 Gaussian 16, Revision A.03,
 Gaussian 16:  EM64L-G16RevA.03 25-Dec-2016

 -------------
 #p 6-31g* mp2
 -------------

 ------------------------------------------------------
 Input file generated by CHIRIPA (05-May-2021 14:53:17)
 ------------------------------------------------------
 Symbolic Z-matrix:
 Charge =  0 Multiplicity = 1

                         Standard orientation:
 ---------------------------------------------------------------------
 Center     Atomic      Atomic             Coordinates (Angstroms)
 Number     Number       Type             X           Y           Z
 ---------------------------------------------------------------------
      1          6           0       -2.110549    1.259253   -0.440395
      2          6           0       -1.998458    2.279733    0.692760
      3          6           0       -1.168621    3.504195    0.305648
      4          1           0       -1.102543    0.941089   -0.739796
      5          1           0       -2.558853    1.744493   -1.318439
      6          1           0       -1.551772    1.792350    1.568856
      7          1           0       -3.006855    2.595361    0.989628
      8          1           0       -1.614721    4.016048   -0.553189
      9          1           0       -0.151370    3.208475    0.029330
     10          1           0       -1.101466    4.220692    1.130259
     11          6           0       -2.937175    0.029529   -0.068646
     12          6           0       -3.049265   -0.990951   -1.201801
     13          6           0       -3.879103   -2.215414   -0.814689
     14          1           0       -2.488871   -0.455711    0.809398
     15          1           0       -3.945180    0.347693    0.230755
     16          1           0       -2.040869   -1.306579   -1.498669
     17          1           0       -3.495952   -0.503568   -2.077897
     18          1           0       -4.896354   -1.919693   -0.538371
     19          1           0       -3.433003   -2.727267    0.044148
     20          1           0       -3.946258   -2.931910   -1.639300
     21          6           0        3.513923    1.061898   -1.041086
     22          6           0        2.575173    1.573097   -0.138897
     23          6           0        1.715625    0.715141    0.553661
     24          6           0        1.822677   -0.654760    0.318716
     25          6           0        2.747542   -1.194562   -0.573770
     26          6           0        3.596965   -0.317868   -1.255265
     27          1           0        4.177708    1.735657   -1.574785
     28          1           0        2.508433    2.644198    0.029431
     29          1           0        0.979668    1.084000    1.257741
     30          1           0        2.790375   -2.266958   -0.720563
     31          1           0        4.325045   -0.717691   -1.955326
     32          7           0        0.918071   -1.572958    1.046040
     33          8           0        1.032391   -2.775900    0.821320
     34          8           0        0.111850   -1.072315    1.827065
 ---------------------------------------------------------------------

 SCF Done:  E(RHF) =  -669.535809332     A.U. after   15 cycles
 E2 =    -0.2094970332D+01 EUMP2 =    -0.67163077966413D+03

 The electronic state is 1-A.
 Alpha  occ. eigenvalues --  -20.61050 -20.61044 -15.86066 -11.31343 -11.27907
 Alpha  occ. eigenvalues --  -11.27882 -11.27627 -11.26895 -11.26878 -11.21494
 Alpha  occ. eigenvalues --  -11.21378 -11.21026 -11.20940 -11.20525 -11.20287
 Alpha  occ. eigenvalues --   -1.60101  -1.39659  -1.19515  -1.08921  -1.07981
 Alpha  occ. eigenvalues --   -1.04906  -1.03178  -0.95771  -0.95630  -0.86658
 Alpha  occ. eigenvalues --   -0.86294  -0.82610  -0.79270  -0.77719  -0.77664
 Alpha  occ. eigenvalues --   -0.72297  -0.71425  -0.70627  -0.65173  -0.64975
 Alpha  occ. eigenvalues --   -0.64565  -0.62286  -0.60510  -0.59048  -0.57213
 Alpha  occ. eigenvalues --   -0.55404  -0.54922  -0.53240  -0.52989  -0.52369
 Alpha  occ. eigenvalues --   -0.52047  -0.49596  -0.49049  -0.49031  -0.47568
 Alpha  occ. eigenvalues --   -0.46313  -0.45459  -0.45269  -0.44686  -0.43365
 Alpha  occ. eigenvalues --   -0.37473  -0.36451
 Alpha virt. eigenvalues --    0.04783   0.11079   0.16163   0.20101   0.23259
 Alpha virt. eigenvalues --    0.24406   0.26265   0.26822   0.27629   0.28335
 Alpha virt. eigenvalues --    0.29259   0.30554   0.31547   0.31918   0.32824

 Mulliken charges:
               1
     1  C   -0.297920
     2  C   -0.307404
     3  C   -0.479597
     4  H    0.145732
     5  H    0.146420
     6  H    0.159728
     7  H    0.155018
     8  H    0.157882
     9  H    0.144033
    10  H    0.159699
    11  C   -0.309974
    12  C   -0.297416
    13  C   -0.477085
    14  H    0.175843
    15  H    0.145632
    16  H    0.149011
    17  H    0.146918
    18  H    0.152231
    19  H    0.165263
    20  H    0.157254
    21  C   -0.170320
    22  C   -0.221716
    23  C   -0.171657
    24  C    0.156506
    25  C   -0.170208
    26  C   -0.218684
    27  H    0.226619
    28  H    0.226266
    29  H    0.283004
    30  H    0.276011
    31  H    0.224168
    32  N    0.488712
    33  O   -0.458192
    34  O   -0.461774
 Sum of Mulliken charges =  -0.00000

 Dipole moment (field-independent basis, Debye):
    X=              3.2844    Y=              3.0331    Z=             -2.4114  Tot=              5.0796
 Quadrupole moment (field-independent basis, Debye-Ang):
   XX=            -82.2907   YY=            -97.1445   ZZ=            -95.9584
   XY=              1.1816   XZ=             -5.1074   YZ=              4.6167

 Normal termination of Gaussian 16 at Thu May  6 17:19:16 2021.
