 Gaussian 16, Revision A.03,
 Gaussian 16:  EM64L-G16RevA.03 25-Dec-2016

 -------------
 #p 6-31g* mp2
 -------------

 ------------------------------------------------------
 Input file generated by CHIRIPA (05-May-2021 14:57:22)
 ------------------------------------------------------
 Symbolic Z-matrix:
 Charge =  0 Multiplicity = 1

                         Standard orientation:
 ---------------------------------------------------------------------
 Center     Atomic      Atomic             Coordinates (Angstroms)
 Number     Number       Type             X           Y           Z
 ---------------------------------------------------------------------
      1          6           0       -0.509622    1.996919   -0.511252
      2          6           0       -0.475758    0.789124   -1.215954
      3          6           0       -1.552086   -0.100788   -1.151740
      4          6           0       -2.651240    0.250578   -0.369634
      5          6           0       -2.714802    1.446399    0.343993
      6          6           0       -1.627066    2.321131    0.265103
      7          1           0        0.330926    2.682328   -0.566835
      8          1           0        0.390751    0.534715   -1.819678
      9          1           0       -1.552184   -1.042472   -1.687137
     10          1           0       -3.592403    1.672380    0.937429
     11          1           0       -1.656123    3.258423    0.813449
     12          7           0       -3.796738   -0.683496   -0.293885
     13          8           0       -4.753425   -0.350618    0.402232
     14          8           0       -3.716203   -1.730815   -0.932065
     15          6           0        0.502139   -1.092337    1.813910
     16          6           0        0.994412   -1.963018    0.836105
     17          6           0        2.080079   -1.592431    0.037018
     18          6           0        2.651963   -0.338030    0.243698
     19          6           0        2.184288    0.551621    1.209663
     20          6           0        1.097598    0.159996    1.997245
     21          1           0       -0.341629   -1.388390    2.430192
     22          1           0        0.533950   -2.936214    0.691504
     23          1           0        2.481287   -2.246922   -0.727241
     24          1           0        2.664141    1.515250    1.330401
     25          1           0        0.717400    0.838230    2.755858
     26          7           0        3.801851    0.065430   -0.596170
     27          8           0        4.288085    1.176047   -0.394323
     28          8           0        4.195125   -0.736595   -1.440403
 ---------------------------------------------------------------------

 SCF Done:  E(RHF) =  -868.335554059     A.U. after   16 cycles
 E2 =    -0.2606927450D+01 EUMP2 =    -0.87094248150985D+03

 The electronic state is 1-A.
 Alpha  occ. eigenvalues --  -20.61562 -20.61543 -20.61262 -20.61256 -15.86603
 Alpha  occ. eigenvalues --  -15.86313 -11.31867 -11.31561 -11.28413 -11.28369
 Alpha  occ. eigenvalues --  -11.28168 -11.28105 -11.27985 -11.27799 -11.27349
 Alpha  occ. eigenvalues --  -11.27329 -11.27118 -11.26969  -1.60644  -1.60347
 Alpha  occ. eigenvalues --   -1.40196  -1.39902  -1.20066  -1.19694  -1.09405
 Alpha  occ. eigenvalues --   -1.09144  -1.05405  -1.05112  -0.96274  -0.95986
 Alpha  occ. eigenvalues --   -0.86787  -0.86528  -0.83097  -0.82827  -0.78183
 Alpha  occ. eigenvalues --   -0.77903  -0.72805  -0.72528  -0.72003  -0.71688
 Alpha  occ. eigenvalues --   -0.71091  -0.70814  -0.65643  -0.65382  -0.65363
 Alpha  occ. eigenvalues --   -0.65125  -0.62748  -0.62483  -0.55820  -0.55603
 Alpha  occ. eigenvalues --   -0.54884  -0.53462  -0.53223  -0.52336  -0.49579
 Alpha  occ. eigenvalues --   -0.49557  -0.49293  -0.49274  -0.45614  -0.45333
 Alpha  occ. eigenvalues --   -0.38449  -0.37881  -0.36742  -0.36141
 Alpha virt. eigenvalues --    0.04126   0.04808   0.10536   0.10901   0.15749
 Alpha virt. eigenvalues --    0.16260   0.20456   0.21354   0.26136   0.26777
 Alpha virt. eigenvalues --    0.27600   0.28482   0.30224   0.30533   0.32084

 Mulliken charges:
               1
     1  C   -0.168895
     2  C   -0.210530
     3  C   -0.170040
     4  C    0.154068
     5  C   -0.174482
     6  C   -0.223588
     7  H    0.228496
     8  H    0.226476
     9  H    0.273286
    10  H    0.274649
    11  H    0.222167
    12  N    0.487305
    13  O   -0.460700
    14  O   -0.461829
    15  C   -0.167684
    16  C   -0.217471
    17  C   -0.179354
    18  C    0.155869
    19  C   -0.177889
    20  C   -0.208621
    21  H    0.231139
    22  H    0.229862
    23  H    0.276501
    24  H    0.272121
    25  H    0.223289
    26  N    0.486265
    27  O   -0.461912
    28  O   -0.458497
 Sum of Mulliken charges =  -0.00000

 Dipole moment (field-independent basis, Debye):
    X=              0.0336    Y=              1.7631    Z=              2.7684  Tot=              3.2823
 Quadrupole moment (field-independent basis, Debye-Ang):
   XX=           -148.8549   YY=            -96.8082   ZZ=           -101.0106
   XY=            -11.7072   XZ=              4.5594   YZ=              1.7673

 Normal termination of Gaussian 16 at Fri May  7 04:48:48 2021.
