 Gaussian 16, Revision A.03,
 Gaussian 16:  EM64L-G16RevA.03 25-Dec-2016

 -------------
 #p 6-31g* mp2
 -------------

 ------------------------------------------------------
 Input file generated by CHIRIPA (05-May-2021 14:53:14)
 ------------------------------------------------------
 Symbolic Z-matrix:
 Charge =  0 Multiplicity = 1

                         Standard orientation:
 ---------------------------------------------------------------------
 Center     Atomic      Atomic             Coordinates (Angstroms)
 Number     Number       Type             X           Y           Z
 ---------------------------------------------------------------------
      1          6           0       -2.501848    0.876720   -0.407050
      2          6           0       -1.650052    2.116006   -0.130284
      3          6           0       -2.070475    3.322056   -0.970808
      4          1           0       -2.433729    0.623584   -1.473927
      5          1           0       -3.556374    1.113391   -0.208668
      6          1           0       -0.597286    1.876660   -0.327801
      7          1           0       -1.720053    2.366108    0.936095
      8          1           0       -3.112645    3.588816   -0.767532
      9          1           0       -1.983498    3.096588   -2.038610
     10          1           0       -1.448464    4.196845   -0.757016
     11          6           0       -2.093678   -0.337251    0.425657
     12          6           0       -2.945473   -1.576537    0.148891
     13          6           0       -2.525050   -2.782588    0.989416
     14          1           0       -1.039151   -0.573922    0.227275
     15          1           0       -2.161796   -0.084115    1.492534
     16          1           0       -2.875472   -1.826639   -0.917488
     17          1           0       -3.998240   -1.337192    0.346409
     18          1           0       -2.612027   -2.557119    2.057217
     19          1           0       -1.482880   -3.049348    0.786140
     20          1           0       -3.147061   -3.657376    0.775624
     21          6           0        2.085627    1.864370    1.398254
     22          6           0        1.838056    0.632131    2.012107
     23          6           0        1.675440   -0.524157    1.243276
     24          6           0        1.767042   -0.411343   -0.143149
     25          6           0        2.012699    0.801906   -0.784219
     26          6           0        2.172006    1.945182    0.004507
     27          1           0        2.210666    2.757548    2.003228
     28          1           0        1.770461    0.566384    3.094305
     29          1           0        1.482892   -1.490876    1.692495
     30          1           0        2.074681    0.835969   -1.865151
     31          1           0        2.364180    2.900818   -0.474945
     32          7           0        1.596640   -1.628565   -0.967607
     33          8           0        1.681901   -1.502602   -2.187239
     34          8           0        1.381043   -2.685541   -0.378576
 ---------------------------------------------------------------------

 SCF Done:  E(RHF) =  -669.533481847     A.U. after   15 cycles
 E2 =    -0.2097492679D+01 EUMP2 =    -0.67163097452590D+03

 The electronic state is 1-A.
 Alpha  occ. eigenvalues --  -20.61025 -20.61016 -15.86038 -11.31320 -11.27897
 Alpha  occ. eigenvalues --  -11.27894 -11.27631 -11.26902 -11.26886 -11.21451
 Alpha  occ. eigenvalues --  -11.21223 -11.21208 -11.21169 -11.21095 -11.20463
 Alpha  occ. eigenvalues --   -1.60078  -1.39633  -1.19543  -1.08933  -1.08225
 Alpha  occ. eigenvalues --   -1.04931  -1.03298  -0.95772  -0.95765  -0.86784
 Alpha  occ. eigenvalues --   -0.86316  -0.82603  -0.79384  -0.78077  -0.77653
 Alpha  occ. eigenvalues --   -0.72262  -0.71416  -0.70620  -0.65187  -0.64909
 Alpha  occ. eigenvalues --   -0.64876  -0.62261  -0.60717  -0.59186  -0.57385
 Alpha  occ. eigenvalues --   -0.55411  -0.55067  -0.53457  -0.52997  -0.52408
 Alpha  occ. eigenvalues --   -0.52210  -0.49733  -0.49030  -0.49018  -0.47703
 Alpha  occ. eigenvalues --   -0.46445  -0.45551  -0.45446  -0.44874  -0.43557
 Alpha  occ. eigenvalues --   -0.37431  -0.36400
 Alpha virt. eigenvalues --    0.04803   0.11050   0.16271   0.21156   0.23084
 Alpha virt. eigenvalues --    0.24247   0.26755   0.27260   0.27599   0.27788
 Alpha virt. eigenvalues --    0.28575   0.30661   0.31444   0.32026   0.32216

 Mulliken charges:
               1
     1  C   -0.298071
     2  C   -0.307841
     3  C   -0.475049
     4  H    0.151663
     5  H    0.148474
     6  H    0.161811
     7  H    0.146284
     8  H    0.156070
     9  H    0.155484
    10  H    0.153251
    11  C   -0.301164
    12  C   -0.298439
    13  C   -0.483747
    14  H    0.151216
    15  H    0.144141
    16  H    0.156503
    17  H    0.148903
    18  H    0.147604
    19  H    0.171157
    20  H    0.160377
    21  C   -0.167055
    22  C   -0.214927
    23  C   -0.171120
    24  C    0.158140
    25  C   -0.175861
    26  C   -0.219108
    27  H    0.226608
    28  H    0.224445
    29  H    0.276501
    30  H    0.276219
    31  H    0.224880
    32  N    0.491707
    33  O   -0.458822
    34  O   -0.460234
 Sum of Mulliken charges =  -0.00000

 Dipole moment (field-independent basis, Debye):
    X=              0.8416    Y=              4.1815    Z=              2.8697  Tot=              5.1409
 Quadrupole moment (field-independent basis, Debye-Ang):
   XX=            -93.2777   YY=            -98.3073   ZZ=            -92.0695
   XY=              8.1171   XZ=              4.1764   YZ=             -3.4175

 Normal termination of Gaussian 16 at Wed May  5 20:14:36 2021.
