 Gaussian 16, Revision A.03,
 Gaussian 16:  EM64L-G16RevA.03 25-Dec-2016

 -------------
 #p 6-31g* mp2
 -------------

 ------------------------------------------------------
 Input file generated by CHIRIPA (05-May-2021 14:51:09)
 ------------------------------------------------------
 Symbolic Z-matrix:
 Charge =  0 Multiplicity = 1

                         Standard orientation:
 ---------------------------------------------------------------------
 Center     Atomic      Atomic             Coordinates (Angstroms)
 Number     Number       Type             X           Y           Z
 ---------------------------------------------------------------------
      1          6           0        2.471308   -0.032651    1.028057
      2          6           0        1.030442   -0.544248    1.015424
      3          6           0        0.260024   -0.172550    2.282740
      4          1           0        2.990316   -0.439150    1.906883
      5          1           0        2.464151    1.059705    1.146812
      6          1           0        1.040275   -1.635164    0.895339
      7          1           0        0.514860   -0.136637    0.136422
      8          1           0        0.220515    0.914735    2.404605
      9          1           0        0.748916   -0.592306    3.167834
     10          1           0       -0.767546   -0.548115    2.252575
     11          6           0        3.254378   -0.396339   -0.232204
     12          6           0        4.695244    0.115258   -0.219571
     13          6           0        5.465662   -0.256440   -1.486887
     14          1           0        3.261536   -1.488695   -0.350959
     15          1           0        2.735371    0.010160   -1.111030
     16          1           0        5.210827   -0.292353    0.659431
     17          1           0        4.685411    1.206174   -0.099486
     18          1           0        4.976770    0.163316   -2.371981
     19          1           0        5.505171   -1.343725   -1.608752
     20          1           0        6.493233    0.119125   -1.456723
     21          6           0       -2.679897   -0.507921   -0.565488
     22          6           0       -3.787526   -1.507301   -0.230251
     23          6           0       -3.406603   -2.948299   -0.571154
     24          1           0       -2.439381   -0.581914   -1.634891
     25          1           0       -1.767458   -0.785818   -0.019941
     26          1           0       -4.698003   -1.226798   -0.775196
     27          1           0       -4.025567   -1.430786    0.838438
     28          1           0       -2.512685   -3.251905   -0.016776
     29          1           0       -3.188943   -3.046759   -1.639578
     30          1           0       -4.212680   -3.645965   -0.323439
     31          6           0       -3.045790    0.936912   -0.230365
     32          6           0       -1.938160    1.936290   -0.565601
     33          6           0       -2.319083    3.377289   -0.224699
     34          1           0       -3.958229    1.214808   -0.775913
     35          1           0       -3.286306    1.010903    0.839038
     36          1           0       -1.700119    1.859776   -1.634291
     37          1           0       -1.027683    1.655789   -0.020657
     38          1           0       -2.536743    3.475748    0.843725
     39          1           0       -3.213001    3.680895   -0.779077
     40          1           0       -1.513006    4.074954   -0.472414
 ---------------------------------------------------------------------

 SCF Done:  E(RHF) =  -470.731909902     A.U. after   11 cycles
 E2 =    -0.1584977203D+01 EUMP2 =    -0.47231688710500D+03

 The electronic state is 1-A.
 Alpha  occ. eigenvalues --  -11.21621 -11.21614 -11.21581 -11.21577 -11.21434
 Alpha  occ. eigenvalues --  -11.21371 -11.21361 -11.21269 -11.21176 -11.21079
 Alpha  occ. eigenvalues --  -11.21077 -11.21056  -1.08508  -1.08374  -1.03593
 Alpha  occ. eigenvalues --   -1.03512  -0.96057  -0.95945  -0.87046  -0.86982
 Alpha  occ. eigenvalues --   -0.79671  -0.79588  -0.78426  -0.78081  -0.65343
 Alpha  occ. eigenvalues --   -0.64889  -0.61161  -0.60750  -0.59417  -0.59326
 Alpha  occ. eigenvalues --   -0.57758  -0.57489  -0.55328  -0.55226  -0.52732
 Alpha  occ. eigenvalues --   -0.52661  -0.52485  -0.52354  -0.49995  -0.49880
 Alpha  occ. eigenvalues --   -0.48039  -0.47879  -0.46852  -0.46588  -0.46085
 Alpha  occ. eigenvalues --   -0.45768  -0.45729  -0.45106  -0.43826  -0.43758
 Alpha virt. eigenvalues --    0.20380   0.22710   0.23845   0.24592   0.26221
 Alpha virt. eigenvalues --    0.26433   0.26962   0.27646   0.28008   0.29658
 Alpha virt. eigenvalues --    0.30405   0.31526   0.31752   0.31948   0.32502

 Mulliken charges:
               1
     1  C   -0.297674
     2  C   -0.308203
     3  C   -0.480147
     4  H    0.149734
     5  H    0.149385
     6  H    0.152152
     7  H    0.159033
     8  H    0.155677
     9  H    0.156717
    10  H    0.161697
    11  C   -0.298502
    12  C   -0.299705
    13  C   -0.475732
    14  H    0.149643
    15  H    0.150204
    16  H    0.151940
    17  H    0.151959
    18  H    0.155259
    19  H    0.155228
    20  H    0.160294
    21  C   -0.309800
    22  C   -0.299341
    23  C   -0.475526
    24  H    0.148859
    25  H    0.163098
    26  H    0.151866
    27  H    0.151263
    28  H    0.154843
    29  H    0.155246
    30  H    0.160140
    31  C   -0.297321
    32  C   -0.307695
    33  C   -0.475377
    34  H    0.149382
    35  H    0.149502
    36  H    0.151081
    37  H    0.160512
    38  H    0.155321
    39  H    0.155323
    40  H    0.159663
 Sum of Mulliken charges =  -0.00000

 Dipole moment (field-independent basis, Debye):
    X=              0.0363    Y=             -0.0071    Z=              0.0075  Tot=              0.0378
 Quadrupole moment (field-independent basis, Debye-Ang):
   XX=            -85.1773   YY=            -85.3025   ZZ=            -84.4878
   XY=             -0.0478   XZ=              1.0754   YZ=             -0.8603

 Normal termination of Gaussian 16 at Thu May  6 03:42:11 2021.
