 Gaussian 16, Revision A.03,
 Gaussian 16:  EM64L-G16RevA.03 25-Dec-2016

 -------------
 #p 6-31g* mp2
 -------------

 ------------------------------------------------------
 Input file generated by CHIRIPA (05-May-2021 14:57:24)
 ------------------------------------------------------
 Symbolic Z-matrix:
 Charge =  0 Multiplicity = 1

                         Standard orientation:
 ---------------------------------------------------------------------
 Center     Atomic      Atomic             Coordinates (Angstroms)
 Number     Number       Type             X           Y           Z
 ---------------------------------------------------------------------
      1          6           0        3.687224    1.488345    1.929476
      2          6           0        4.002460    1.901976    0.630993
      3          6           0        3.727146    1.076876   -0.463521
      4          6           0        3.133375   -0.161034   -0.222056
      5          6           0        2.807422   -0.601377    1.059795
      6          6           0        3.091761    0.240190    2.139363
      7          1           0        3.904600    2.135698    2.773915
      8          1           0        4.464951    2.870786    0.465000
      9          1           0        3.960712    1.372184   -1.479227
     10          1           0        2.346872   -1.572649    1.193739
     11          1           0        2.845846   -0.083653    3.146684
     12          7           0        2.837135   -1.043246   -1.372857
     13          8           0        2.313615   -2.129191   -1.133510
     14          8           0        3.134072   -0.632074   -2.492412
     15          6           0       -2.539184   -2.279120    0.860976
     16          6           0       -1.574218   -1.447878    0.282706
     17          6           0       -1.919173   -0.174461   -0.179853
     18          6           0       -3.244363    0.237483   -0.047714
     19          6           0       -4.228561   -0.567492    0.523827
     20          6           0       -3.860946   -1.837053    0.979482
     21          1           0       -2.262414   -3.266844    1.217622
     22          1           0       -0.546954   -1.788557    0.189373
     23          1           0       -1.192225    0.489540   -0.631591
     24          1           0       -5.244513   -0.200113    0.603157
     25          1           0       -4.612459   -2.480460    1.428148
     26          7           0       -3.621546    1.583553   -0.533751
     27          8           0       -4.795860    1.923027   -0.405762
     28          8           0       -2.735727    2.273638   -1.033493
 ---------------------------------------------------------------------

 SCF Done:  E(RHF) =  -868.339138711     A.U. after   16 cycles
 E2 =    -0.2599378874D+01 EUMP2 =    -0.87093851758506D+03

 The electronic state is 1-A.
 Alpha  occ. eigenvalues --  -20.61597 -20.61527 -20.60572 -20.60567 -15.86581
 Alpha  occ. eigenvalues --  -15.85621 -11.31796 -11.30918 -11.28395 -11.28271
 Alpha  occ. eigenvalues --  -11.27987 -11.27486 -11.27438 -11.27317 -11.27242
 Alpha  occ. eigenvalues --  -11.27183 -11.26501 -11.26366  -1.60619  -1.59649
 Alpha  occ. eigenvalues --   -1.40181  -1.39204  -1.19935  -1.19073  -1.09349
 Alpha  occ. eigenvalues --   -1.08481  -1.05308  -1.04455  -0.96214  -0.95332
 Alpha  occ. eigenvalues --   -0.86714  -0.85855  -0.83048  -0.82158  -0.78135
 Alpha  occ. eigenvalues --   -0.77215  -0.72796  -0.71937  -0.71842  -0.71025
 Alpha  occ. eigenvalues --   -0.70970  -0.70186  -0.65583  -0.65300  -0.64721
 Alpha  occ. eigenvalues --   -0.64434  -0.62667  -0.61790  -0.55785  -0.54964
 Alpha  occ. eigenvalues --   -0.53644  -0.53394  -0.52801  -0.52529  -0.49573
 Alpha  occ. eigenvalues --   -0.49532  -0.48601  -0.48593  -0.45598  -0.44625
 Alpha  occ. eigenvalues --   -0.37887  -0.37059  -0.36901  -0.36054
 Alpha virt. eigenvalues --    0.04346   0.05300   0.10688   0.11593   0.15886
 Alpha virt. eigenvalues --    0.16814   0.20470   0.21838   0.25788   0.27248
 Alpha virt. eigenvalues --    0.28330   0.28669   0.30126   0.31230   0.32269

 Mulliken charges:
               1
     1  C   -0.169547
     2  C   -0.217154
     3  C   -0.169693
     4  C    0.156767
     5  C   -0.175310
     6  C   -0.217057
     7  H    0.228774
     8  H    0.227306
     9  H    0.278373
    10  H    0.269988
    11  H    0.224715
    12  N    0.488027
    13  O   -0.468249
    14  O   -0.452788
    15  C   -0.172084
    16  C   -0.225331
    17  C   -0.171569
    18  C    0.158245
    19  C   -0.172058
    20  C   -0.218500
    21  H    0.225585
    22  H    0.234934
    23  H    0.274728
    24  H    0.274343
    25  H    0.222126
    26  N    0.488104
    27  O   -0.461543
    28  O   -0.461134
 Sum of Mulliken charges =  -0.00000

 Dipole moment (field-independent basis, Debye):
    X=              2.6889    Y=             -1.4824    Z=              5.7363  Tot=              6.5064
 Quadrupole moment (field-independent basis, Debye-Ang):
   XX=           -102.0051   YY=           -106.5171   ZZ=           -105.2484
   XY=             28.5927   XZ=              4.0703   YZ=             -3.2864

 Normal termination of Gaussian 16 at Thu May  6 11:22:54 2021.
