 Gaussian 16, Revision A.03,
 Gaussian 16:  EM64L-G16RevA.03 25-Dec-2016

 -------------
 #p 6-31g* mp2
 -------------

 ------------------------------------------------------
 Input file generated by CHIRIPA (05-May-2021 14:51:07)
 ------------------------------------------------------
 Symbolic Z-matrix:
 Charge =  0 Multiplicity = 1

                         Standard orientation:
 ---------------------------------------------------------------------
 Center     Atomic      Atomic             Coordinates (Angstroms)
 Number     Number       Type             X           Y           Z
 ---------------------------------------------------------------------
      1          6           0       -5.420069   -0.381277    0.112140
      2          6           0       -6.781898   -0.034492   -0.490476
      3          6           0       -7.838990   -1.104945   -0.217563
      4          1           0       -5.081515   -1.344674   -0.293066
      5          1           0       -5.531325   -0.520008    1.196470
      6          1           0       -6.667848    0.104902   -1.573148
      7          1           0       -7.117162    0.928284   -0.083933
      8          1           0       -7.982034   -1.239340    0.859506
      9          1           0       -7.530167   -2.067400   -0.638170
     10          1           0       -8.804733   -0.836779   -0.657208
     11          6           0       -4.352812    0.679287   -0.152237
     12          6           0       -2.990983    0.332502    0.450379
     13          6           0       -1.933892    1.402955    0.177466
     14          1           0       -4.241556    0.818018   -1.236567
     15          1           0       -4.691366    1.642684    0.252969
     16          1           0       -2.655720   -0.630274    0.043836
     17          1           0       -3.105034    0.193108    1.533051
     18          1           0       -2.242714    2.365410    0.598073
     19          1           0       -1.790848    1.537350   -0.899603
     20          1           0       -0.968149    1.134789    0.617111
     21          6           0        4.185975    0.053777   -0.207240
     22          6           0        3.083539   -0.394018    0.753020
     23          6           0        1.687895    0.019035    0.284660
     24          1           0        4.143805    1.145751   -0.320200
     25          1           0        3.991256   -0.371085   -1.201711
     26          1           0        3.281032    0.030435    1.745720
     27          1           0        3.128461   -1.485032    0.863856
     28          1           0        1.465758   -0.416339   -0.694986
     29          1           0        1.619197    1.107738    0.191888
     30          1           0        0.915066   -0.311149    0.985782
     31          6           0        5.586906   -0.351787    0.247337
     32          6           0        6.689343    0.096007   -0.712923
     33          6           0        8.084986   -0.317045   -0.244562
     34          1           0        5.781626    0.073075    1.241807
     35          1           0        5.629076   -1.443760    0.360297
     36          1           0        6.644420    1.187022   -0.823759
     37          1           0        6.491849   -0.328445   -1.705623
     38          1           0        8.153684   -1.405748   -0.151790
     39          1           0        8.307124    0.118329    0.735083
     40          1           0        8.857815    0.013139   -0.945685
 ---------------------------------------------------------------------

 SCF Done:  E(RHF) =  -470.732813536     A.U. after   11 cycles
 E2 =    -0.1582457382D+01 EUMP2 =    -0.47231527091831D+03

 The electronic state is 1-A.
 Alpha  occ. eigenvalues --  -11.21610 -11.21607 -11.21565 -11.21510 -11.21414
 Alpha  occ. eigenvalues --  -11.21355 -11.21347 -11.21285 -11.21096 -11.21075
 Alpha  occ. eigenvalues --  -11.21044 -11.20857  -1.08442  -1.08365  -1.03556
 Alpha  occ. eigenvalues --   -1.03445  -0.96042  -0.95862  -0.87101  -0.86842
 Alpha  occ. eigenvalues --   -0.79656  -0.79478  -0.78253  -0.78181  -0.65071
 Alpha  occ. eigenvalues --   -0.64997  -0.60948  -0.60851  -0.59603  -0.59103
 Alpha  occ. eigenvalues --   -0.57644  -0.57473  -0.55288  -0.55186  -0.53053
 Alpha  occ. eigenvalues --   -0.52476  -0.52369  -0.52110  -0.49929  -0.49840
 Alpha  occ. eigenvalues --   -0.47926  -0.47830  -0.46637  -0.46556  -0.45794
 Alpha  occ. eigenvalues --   -0.45724  -0.45716  -0.45650  -0.43948  -0.43510
 Alpha virt. eigenvalues --    0.22468   0.22962   0.23596   0.24805   0.26605
 Alpha virt. eigenvalues --    0.26673   0.27029   0.27405   0.27639   0.28960
 Alpha virt. eigenvalues --    0.30676   0.31099   0.31469   0.31750   0.32167

 Mulliken charges:
               1
     1  C   -0.298177
     2  C   -0.299582
     3  C   -0.475657
     4  H    0.149460
     5  H    0.149319
     6  H    0.151850
     7  H    0.151863
     8  H    0.155102
     9  H    0.155092
    10  H    0.160121
    11  C   -0.298103
    12  C   -0.299512
    13  C   -0.483792
    14  H    0.149368
    15  H    0.149473
    16  H    0.151670
    17  H    0.150964
    18  H    0.153493
    19  H    0.154273
    20  H    0.171807
    21  C   -0.298685
    22  C   -0.299861
    23  C   -0.477786
    24  H    0.149874
    25  H    0.149507
    26  H    0.151995
    27  H    0.151901
    28  H    0.156002
    29  H    0.156875
    30  H    0.161023
    31  C   -0.298316
    32  C   -0.299633
    33  C   -0.475709
    34  H    0.149558
    35  H    0.149655
    36  H    0.151995
    37  H    0.151923
    38  H    0.155173
    39  H    0.155199
    40  H    0.160281
 Sum of Mulliken charges =  -0.00000

 Dipole moment (field-independent basis, Debye):
    X=              0.0615    Y=             -0.0053    Z=             -0.0007  Tot=              0.0618
 Quadrupole moment (field-independent basis, Debye-Ang):
   XX=            -86.8756   YY=            -84.3291   ZZ=            -83.8294
   XY=             -0.3480   XZ=             -0.3062   YZ=              1.0265

 Normal termination of Gaussian 16 at Wed May  5 16:34:43 2021.
