 Gaussian 16, Revision A.03,
 Gaussian 16:  EM64L-G16RevA.03 25-Dec-2016

 -------------
 #p 6-31g* mp2
 -------------

 ------------------------------------------------------
 Input file generated by CHIRIPA (05-May-2021 14:53:14)
 ------------------------------------------------------
 Symbolic Z-matrix:
 Charge =  0 Multiplicity = 1

                         Standard orientation:
 ---------------------------------------------------------------------
 Center     Atomic      Atomic             Coordinates (Angstroms)
 Number     Number       Type             X           Y           Z
 ---------------------------------------------------------------------
      1          6           0        4.491478   -0.371010    0.269500
      2          6           0        5.513346   -1.268170   -0.429695
      3          6           0        6.220221   -2.221687    0.534114
      4          1           0        4.997361    0.207406    1.054652
      5          1           0        3.746818   -1.000700    0.775827
      6          1           0        6.255071   -0.636970   -0.935707
      7          1           0        5.005008   -1.844376   -1.213401
      8          1           0        5.495460   -2.875420    1.030052
      9          1           0        6.752625   -1.661154    1.309324
     10          1           0        6.946313   -2.853640    0.013264
     11          6           0        3.776505    0.587803   -0.680879
     12          6           0        2.754637    1.484963    0.018317
     13          6           0        2.047763    2.438480   -0.945492
     14          1           0        4.521166    1.217492   -1.187205
     15          1           0        3.270622    0.009387   -1.466030
     16          1           0        3.262976    2.061169    0.802022
     17          1           0        2.012913    0.853763    0.524328
     18          1           0        1.515359    1.877947   -1.720702
     19          1           0        2.772524    3.092213   -1.441430
     20          1           0        1.321670    3.070433   -0.424642
     21          6           0       -1.452798    1.175424    1.433775
     22          6           0       -1.471788    1.213126    0.035655
     23          6           0       -2.451636    0.518756   -0.680094
     24          6           0       -3.401464   -0.206508    0.037618
     25          6           0       -3.409001   -0.263529    1.430451
     26          6           0       -2.419760    0.438515    2.125491
     27          1           0       -0.687979    1.717809    1.981743
     28          1           0       -0.722088    1.784592   -0.504180
     29          1           0       -2.489683    0.530774   -1.762603
     30          1           0       -4.169575   -0.841904    1.940772
     31          1           0       -2.407459    0.407436    3.211275
     32          7           0       -4.443757   -0.945669   -0.709152
     33          8           0       -5.269382   -1.577274   -0.053366
     34          8           0       -4.415346   -0.879421   -1.936116
 ---------------------------------------------------------------------

 SCF Done:  E(RHF) =  -669.535309762     A.U. after   15 cycles
 E2 =    -0.2091799450D+01 EUMP2 =    -0.67162710921216D+03

 The electronic state is 1-A.
 Alpha  occ. eigenvalues --  -20.60731 -20.60726 -15.85782 -11.31138 -11.27702
 Alpha  occ. eigenvalues --  -11.27679 -11.27428 -11.26721 -11.26614 -11.22633
 Alpha  occ. eigenvalues --  -11.22353 -11.22133 -11.22058 -11.21957 -11.21445
 Alpha  occ. eigenvalues --   -1.59806  -1.39360  -1.19301  -1.09158  -1.08698
 Alpha  occ. eigenvalues --   -1.04705  -1.04299  -0.96768  -0.95537  -0.87795
 Alpha  occ. eigenvalues --   -0.86092  -0.82368  -0.80382  -0.78913  -0.77420
 Alpha  occ. eigenvalues --   -0.72001  -0.71129  -0.70413  -0.65821  -0.64950
 Alpha  occ. eigenvalues --   -0.64734  -0.62191  -0.61572  -0.60143  -0.58342
 Alpha  occ. eigenvalues --   -0.56054  -0.55191  -0.53544  -0.53194  -0.53028
 Alpha  occ. eigenvalues --   -0.52685  -0.50662  -0.48759  -0.48757  -0.48683
 Alpha  occ. eigenvalues --   -0.47392  -0.46466  -0.46352  -0.44768  -0.44533
 Alpha  occ. eigenvalues --   -0.37280  -0.36298
 Alpha virt. eigenvalues --    0.05098   0.11265   0.16579   0.19795   0.22584
 Alpha virt. eigenvalues --    0.23982   0.25888   0.26073   0.26445   0.28013
 Alpha virt. eigenvalues --    0.29229   0.30441   0.30925   0.31180   0.32061

 Mulliken charges:
               1
     1  C   -0.299130
     2  C   -0.300369
     3  C   -0.476161
     4  H    0.149824
     5  H    0.150415
     6  H    0.152734
     7  H    0.153639
     8  H    0.155916
     9  H    0.155241
    10  H    0.162092
    11  C   -0.298850
    12  C   -0.303081
    13  C   -0.483918
    14  H    0.151828
    15  H    0.152323
    16  H    0.154000
    17  H    0.150885
    18  H    0.155419
    19  H    0.164750
    20  H    0.153203
    21  C   -0.174976
    22  C   -0.225628
    23  C   -0.173668
    24  C    0.159026
    25  C   -0.171573
    26  C   -0.218519
    27  H    0.226194
    28  H    0.237592
    29  H    0.275511
    30  H    0.275328
    31  H    0.223146
    32  N    0.487982
    33  O   -0.460631
    34  O   -0.460541
 Sum of Mulliken charges =  -0.00000

 Dipole moment (field-independent basis, Debye):
    X=              3.9158    Y=              2.5759    Z=              2.5880  Tot=              5.3541
 Quadrupole moment (field-independent basis, Debye-Ang):
   XX=           -118.7430   YY=            -96.0800   ZZ=            -91.2375
   XY=             -7.9921   XZ=            -11.1989   YZ=             -1.5632

 Normal termination of Gaussian 16 at Thu May  6 18:46:59 2021.
