 Gaussian 16, Revision A.03,
 Gaussian 16:  EM64L-G16RevA.03 25-Dec-2016

 -------------
 #p 6-31g* mp2
 -------------

 ------------------------------------------------------
 Input file generated by CHIRIPA (05-May-2021 14:55:20)
 ------------------------------------------------------
 Symbolic Z-matrix:
 Charge =  0 Multiplicity = 1

                         Standard orientation:
 ---------------------------------------------------------------------
 Center     Atomic      Atomic             Coordinates (Angstroms)
 Number     Number       Type             X           Y           Z
 ---------------------------------------------------------------------
      1          6           0        1.691462    1.810199   -0.675356
      2          6           0        3.047947    2.147550   -0.623746
      3          6           0        4.014486    1.167555   -0.378874
      4          6           0        3.587292   -0.145782   -0.189294
      5          6           0        2.243358   -0.513292   -0.234752
      6          6           0        1.294197    0.483194   -0.481037
      7          1           0        0.947382    2.577888   -0.866127
      8          1           0        3.359372    3.177306   -0.774284
      9          1           0        5.071307    1.401015   -0.333658
     10          1           0        1.963505   -1.548371   -0.080765
     11          1           0        0.241433    0.218299   -0.520567
     12          7           0        4.601325   -1.191988    0.070689
     13          8           0        4.199140   -2.341806    0.234399
     14          8           0        5.779108   -0.842375    0.105831
     15          6           0       -3.946582    0.463019    0.684875
     16          6           0       -2.532170   -0.047863    0.961328
     17          6           0       -1.681612    0.957843    1.737794
     18          1           0       -3.886005    1.405159    0.123051
     19          1           0       -4.436693    0.699331    1.639518
     20          1           0       -2.045361   -0.284449    0.006519
     21          1           0       -2.596124   -0.988995    1.522392
     22          1           0       -2.142012    1.186634    2.704380
     23          1           0       -1.588119    1.895184    1.179893
     24          1           0       -0.674474    0.572268    1.924510
     25          6           0       -4.809047   -0.531232   -0.090592
     26          6           0       -6.223458   -0.020350   -0.367044
     27          6           0       -7.074017   -1.026057   -1.143510
     28          1           0       -4.318936   -0.767543   -1.045235
     29          1           0       -4.869623   -1.473372    0.471232
     30          1           0       -6.159504    0.920783   -0.928109
     31          1           0       -6.710268    0.216236    0.587764
     32          1           0       -7.167511   -1.963397   -0.585609
     33          1           0       -6.613618   -1.254846   -2.110096
     34          1           0       -8.081155   -0.640481   -1.330227
 ---------------------------------------------------------------------

 SCF Done:  E(RHF) =  -669.535018520     A.U. after   15 cycles
 E2 =    -0.2092104191D+01 EUMP2 =    -0.67162712271083D+03

 The electronic state is 1-A.
 Alpha  occ. eigenvalues --  -20.60733 -20.60728 -15.85785 -11.31146 -11.27712
 Alpha  occ. eigenvalues --  -11.27698 -11.27444 -11.26731 -11.26666 -11.22643
 Alpha  occ. eigenvalues --  -11.22184 -11.22127 -11.22005 -11.22000 -11.21495
 Alpha  occ. eigenvalues --   -1.59808  -1.39362  -1.19316  -1.09182  -1.08709
 Alpha  occ. eigenvalues --   -1.04728  -1.04271  -0.96703  -0.95546  -0.87715
 Alpha  occ. eigenvalues --   -0.86111  -0.82381  -0.80359  -0.78964  -0.77431
 Alpha  occ. eigenvalues --   -0.72004  -0.71131  -0.70423  -0.65881  -0.64964
 Alpha  occ. eigenvalues --   -0.64737  -0.62216  -0.61547  -0.60047  -0.58301
 Alpha  occ. eigenvalues --   -0.55987  -0.55209  -0.53465  -0.53177  -0.52960
 Alpha  occ. eigenvalues --   -0.52703  -0.50648  -0.48765  -0.48759  -0.48657
 Alpha  occ. eigenvalues --   -0.47409  -0.46500  -0.46412  -0.44769  -0.44509
 Alpha  occ. eigenvalues --   -0.37282  -0.36301
 Alpha virt. eigenvalues --    0.05095   0.11280   0.16543   0.19644   0.22615
 Alpha virt. eigenvalues --    0.23976   0.25447   0.26032   0.26923   0.28011
 Alpha virt. eigenvalues --    0.28822   0.29867   0.30966   0.31225   0.31889

 Mulliken charges:
               1
     1  C   -0.173723
     2  C   -0.218468
     3  C   -0.171193
     4  C    0.159015
     5  C   -0.175435
     6  C   -0.222495
     7  H    0.225599
     8  H    0.223214
     9  H    0.275415
    10  H    0.275827
    11  H    0.235989
    12  N    0.488082
    13  O   -0.460490
    14  O   -0.460622
    15  C   -0.297339
    16  C   -0.306575
    17  C   -0.481201
    18  H    0.148403
    19  H    0.153196
    20  H    0.143832
    21  H    0.158187
    22  H    0.161818
    23  H    0.149116
    24  H    0.165631
    25  C   -0.299021
    26  C   -0.300144
    27  C   -0.476138
    28  H    0.148852
    29  H    0.151893
    30  H    0.151773
    31  H    0.153235
    32  H    0.156449
    33  H    0.155522
    34  H    0.161795
 Sum of Mulliken charges =  -0.00000

 Dipole moment (field-independent basis, Debye):
    X=             -3.7696    Y=              3.6723    Z=             -0.8336  Tot=              5.3283
 Quadrupole moment (field-independent basis, Debye-Ang):
   XX=           -117.7515   YY=            -94.0520   ZZ=            -94.5797
   XY=             16.5317   XZ=             -3.7746   YZ=             -1.5446

 Normal termination of Gaussian 16 at Wed May  5 22:08:43 2021.
