 Gaussian 16, Revision A.03,
 Gaussian 16:  EM64L-G16RevA.03 25-Dec-2016

 -------------
 #p 6-31g* mp2
 -------------

 ------------------------------------------------------
 Input file generated by CHIRIPA (05-May-2021 14:55:21)
 ------------------------------------------------------
 Symbolic Z-matrix:
 Charge =  0 Multiplicity = 1

                         Standard orientation:
 ---------------------------------------------------------------------
 Center     Atomic      Atomic             Coordinates (Angstroms)
 Number     Number       Type             X           Y           Z
 ---------------------------------------------------------------------
      1          6           0        2.632209   -2.284095    0.666266
      2          6           0        3.376861   -1.515909    1.567323
      3          6           0        3.708677   -0.191595    1.266260
      4          6           0        3.277555    0.334990    0.049653
      5          6           0        2.534372   -0.404900   -0.868787
      6          6           0        2.214078   -1.727121   -0.546775
      7          1           0        2.378922   -3.312041    0.908276
      8          1           0        3.702930   -1.945841    2.510128
      9          1           0        4.284043    0.425586    1.945568
     10          1           0        2.223488    0.051299   -1.800802
     11          1           0        1.635655   -2.321349   -1.248462
     12          7           0        3.622734    1.735874   -0.280158
     13          8           0        3.230962    2.176476   -1.358593
     14          8           0        4.278522    2.366759    0.546015
     15          6           0       -4.613227    0.028119    0.429476
     16          6           0       -5.725926    0.987916    0.006774
     17          6           0       -6.699772    1.301151    1.143128
     18          1           0       -5.062334   -0.904712    0.797000
     19          1           0       -4.063512    0.464645    1.274849
     20          1           0       -6.272501    0.550331   -0.838443
     21          1           0       -5.274112    1.918497   -0.359966
     22          1           0       -6.173368    1.760739    1.985909
     23          1           0       -7.177430    0.384799    1.504714
     24          1           0       -7.487015    1.988961    0.819052
     25          6           0       -3.631675   -0.294634   -0.695741
     26          6           0       -2.518977   -1.254430   -0.273038
     27          6           0       -1.545131   -1.567666   -1.409393
     28          1           0       -4.181390   -0.731159   -1.541113
     29          1           0       -3.182568    0.638197   -1.063265
     30          1           0       -2.970790   -2.185012    0.093701
     31          1           0       -1.972401   -0.816846    0.572178
     32          1           0       -1.067473   -0.651314   -1.770978
     33          1           0       -2.071535   -2.027254   -2.252173
     34          1           0       -0.757888   -2.255476   -1.085317
 ---------------------------------------------------------------------

 SCF Done:  E(RHF) =  -669.535191539     A.U. after   15 cycles
 E2 =    -0.2091370348D+01 EUMP2 =    -0.67162656188732D+03

 The electronic state is 1-A.
 Alpha  occ. eigenvalues --  -20.60766 -20.60761 -15.85819 -11.31180 -11.27743
 Alpha  occ. eigenvalues --  -11.27732 -11.27482 -11.26765 -11.26722 -11.22072
 Alpha  occ. eigenvalues --  -11.21770 -11.21747 -11.21689 -11.21587 -11.21182
 Alpha  occ. eigenvalues --   -1.59842  -1.39395  -1.19349  -1.08752  -1.08720
 Alpha  occ. eigenvalues --   -1.04751  -1.03865  -0.96337  -0.95582  -0.87371
 Alpha  occ. eigenvalues --   -0.86146  -0.82412  -0.79938  -0.78512  -0.77460
 Alpha  occ. eigenvalues --   -0.72037  -0.71165  -0.70457  -0.65348  -0.64999
 Alpha  occ. eigenvalues --   -0.64787  -0.62141  -0.61248  -0.59716  -0.57934
 Alpha  occ. eigenvalues --   -0.55615  -0.55254  -0.53321  -0.53021  -0.52818
 Alpha  occ. eigenvalues --   -0.52553  -0.50261  -0.48796  -0.48792  -0.48247
 Alpha  occ. eigenvalues --   -0.46945  -0.46063  -0.45963  -0.44802  -0.44118
 Alpha  occ. eigenvalues --   -0.37328  -0.36324
 Alpha virt. eigenvalues --    0.05062   0.11217   0.16518   0.20712   0.22701
 Alpha virt. eigenvalues --    0.24083   0.26102   0.26364   0.26957   0.27876
 Alpha virt. eigenvalues --    0.28809   0.29784   0.31183   0.31537   0.32090

 Mulliken charges:
               1
     1  C   -0.172408
     2  C   -0.218358
     3  C   -0.171200
     4  C    0.158365
     5  C   -0.172413
     6  C   -0.216247
     7  H    0.225399
     8  H    0.223350
     9  H    0.275477
    10  H    0.275720
    11  H    0.226372
    12  N    0.488071
    13  O   -0.460546
    14  O   -0.460478
    15  C   -0.298671
    16  C   -0.300119
    17  C   -0.475930
    18  H    0.149038
    19  H    0.150593
    20  H    0.151932
    21  H    0.153730
    22  H    0.155842
    23  H    0.154714
    24  H    0.161190
    25  C   -0.299428
    26  C   -0.299376
    27  C   -0.477489
    28  H    0.149785
    29  H    0.152653
    30  H    0.151407
    31  H    0.154626
    32  H    0.156550
    33  H    0.156777
    34  H    0.151069
 Sum of Mulliken charges =  -0.00000

 Dipole moment (field-independent basis, Debye):
    X=             -1.3141    Y=             -4.8867    Z=              1.1829  Tot=              5.1967
 Quadrupole moment (field-independent basis, Debye-Ang):
   XX=           -102.2382   YY=            -98.3019   ZZ=            -91.4886
   XY=            -15.9100   XZ=              6.9573   YZ=              0.4770

 Normal termination of Gaussian 16 at Thu May  6 20:42:54 2021.
