 Gaussian 16, Revision A.03,
 Gaussian 16:  EM64L-G16RevA.03 25-Dec-2016

 -------------
 #p 6-31g* mp2
 -------------

 ------------------------------------------------------
 Input file generated by CHIRIPA (05-May-2021 14:55:22)
 ------------------------------------------------------
 Symbolic Z-matrix:
 Charge =  0 Multiplicity = 1

                         Standard orientation:
 ---------------------------------------------------------------------
 Center     Atomic      Atomic             Coordinates (Angstroms)
 Number     Number       Type             X           Y           Z
 ---------------------------------------------------------------------
      1          6           0        3.406416    1.928993    0.244604
      2          6           0        2.136086    1.722275   -0.303165
      3          6           0        1.642990    0.426587   -0.483708
      4          6           0        2.450626   -0.644219   -0.103723
      5          6           0        3.720440   -0.470733    0.444698
      6          6           0        4.193151    0.833760    0.616132
      7          1           0        3.781547    2.938935    0.381316
      8          1           0        1.522896    2.570961   -0.592607
      9          1           0        0.663208    0.237901   -0.905421
     10          1           0        4.308511   -1.336627    0.723656
     11          1           0        5.180090    0.991297    1.041783
     12          7           0        1.939397   -2.020567   -0.290034
     13          8           0        2.670501   -2.947163    0.052816
     14          8           0        0.817273   -2.146692   -0.775387
     15          6           0       -3.115858    1.205815   -0.246894
     16          6           0       -1.959757    1.989287    0.375672
     17          6           0       -1.714357    3.330570   -0.316090
     18          1           0       -2.904922    1.037572   -1.311857
     19          1           0       -4.029037    1.815279   -0.201605
     20          1           0       -1.049333    1.377978    0.330471
     21          1           0       -2.173381    2.155519    1.439320
     22          1           0       -2.606586    3.962441   -0.258925
     23          1           0       -1.476151    3.180483   -1.374075
     24          1           0       -0.883681    3.873999    0.144913
     25          6           0       -3.373441   -0.137320    0.433817
     26          6           0       -4.529542   -0.920793   -0.188750
     27          6           0       -4.774942   -2.262076    0.503011
     28          1           0       -2.460262   -0.746785    0.388527
     29          1           0       -3.584377    0.030922    1.498779
     30          1           0       -4.315918   -1.087024   -1.252398
     31          1           0       -5.439967   -0.309484   -0.143549
     32          1           0       -5.013148   -2.111989    1.560997
     33          1           0       -3.882713   -2.893947    0.445848
     34          1           0       -5.605617   -2.805503    0.042008
 ---------------------------------------------------------------------

 SCF Done:  E(RHF) =  -669.535391224     A.U. after   15 cycles
 E2 =    -0.2092613078D+01 EUMP2 =    -0.67162800430213D+03

 The electronic state is 1-A.
 Alpha  occ. eigenvalues --  -20.60841 -20.60833 -15.85887 -11.31223 -11.27789
 Alpha  occ. eigenvalues --  -11.27771 -11.27516 -11.26803 -11.26765 -11.22068
 Alpha  occ. eigenvalues --  -11.21820 -11.21551 -11.21337 -11.21195 -11.20659
 Alpha  occ. eigenvalues --   -1.59909  -1.39465  -1.19395  -1.08791  -1.08515
 Alpha  occ. eigenvalues --   -1.04798  -1.03645  -0.96099  -0.95634  -0.87121
 Alpha  occ. eigenvalues --   -0.86187  -0.82469  -0.79756  -0.78241  -0.77513
 Alpha  occ. eigenvalues --   -0.72107  -0.71229  -0.70516  -0.65217  -0.65019
 Alpha  occ. eigenvalues --   -0.64787  -0.62225  -0.60967  -0.59529  -0.57675
 Alpha  occ. eigenvalues --   -0.55404  -0.55262  -0.53130  -0.52955  -0.52800
 Alpha  occ. eigenvalues --   -0.52473  -0.50028  -0.48864  -0.48859  -0.48036
 Alpha  occ. eigenvalues --   -0.46784  -0.45790  -0.45651  -0.44865  -0.43871
 Alpha  occ. eigenvalues --   -0.37370  -0.36361
 Alpha virt. eigenvalues --    0.04963   0.11214   0.16400   0.19453   0.23039
 Alpha virt. eigenvalues --    0.23917   0.25647   0.26627   0.27382   0.28487
 Alpha virt. eigenvalues --    0.30205   0.30582   0.31361   0.31783   0.32163

 Mulliken charges:
               1
     1  C   -0.171397
     2  C   -0.221203
     3  C   -0.173006
     4  C    0.157952
     5  C   -0.171164
     6  C   -0.218190
     7  H    0.225954
     8  H    0.230163
     9  H    0.276968
    10  H    0.275645
    11  H    0.223597
    12  N    0.488447
    13  O   -0.459720
    14  O   -0.461875
    15  C   -0.298671
    16  C   -0.305652
    17  C   -0.479353
    18  H    0.149416
    19  H    0.150128
    20  H    0.149449
    21  H    0.155858
    22  H    0.161298
    23  H    0.152308
    24  H    0.154166
    25  C   -0.302415
    26  C   -0.299374
    27  C   -0.477408
    28  H    0.160358
    29  H    0.148574
    30  H    0.153873
    31  H    0.149376
    32  H    0.153337
    33  H    0.163016
    34  H    0.159544
 Sum of Mulliken charges =  -0.00000

 Dipole moment (field-independent basis, Debye):
    X=              1.7689    Y=              4.7428    Z=              0.6865  Tot=              5.1083
 Quadrupole moment (field-independent basis, Debye-Ang):
   XX=            -81.8647   YY=           -101.6885   ZZ=            -94.7236
   XY=              8.6350   XZ=              3.0477   YZ=             -0.9820

 Normal termination of Gaussian 16 at Thu May  6 14:14:59 2021.
