 Gaussian 16, Revision A.03,
 Gaussian 16:  EM64L-G16RevA.03 25-Dec-2016

 -------------
 #p 6-31g* mp2
 -------------

 ------------------------------------------------------
 Input file generated by CHIRIPA (05-May-2021 14:53:18)
 ------------------------------------------------------
 Symbolic Z-matrix:
 Charge =  0 Multiplicity = 1

                         Standard orientation:
 ---------------------------------------------------------------------
 Center     Atomic      Atomic             Coordinates (Angstroms)
 Number     Number       Type             X           Y           Z
 ---------------------------------------------------------------------
      1          6           0       -3.534814   -0.255886    0.565889
      2          6           0       -3.076120   -1.696305    0.795625
      3          6           0       -1.724025   -1.780191    1.504565
      4          1           0       -2.775617    0.274056   -0.025486
      5          1           0       -3.594407    0.261325    1.533534
      6          1           0       -3.018743   -2.211048   -0.172033
      7          1           0       -3.836587   -2.222934    1.386360
      8          1           0       -1.771120   -1.291403    2.483069
      9          1           0       -0.948629   -1.279450    0.915821
     10          1           0       -1.415280   -2.818838    1.658673
     11          6           0       -4.884905   -0.155611   -0.141874
     12          6           0       -5.343599    1.284808   -0.371610
     13          6           0       -6.695694    1.368694   -1.080550
     14          1           0       -4.825313   -0.672823   -1.109518
     15          1           0       -5.644103   -0.685553    0.449502
     16          1           0       -4.583132    1.811437   -0.962344
     17          1           0       -5.400977    1.799551    0.596049
     18          1           0       -7.471090    0.867952   -0.491806
     19          1           0       -6.648599    0.879906   -2.059053
     20          1           0       -7.004439    2.407341   -1.234657
     21          6           0        2.868928   -2.228701   -0.858501
     22          6           0        4.179486   -1.755618   -0.735416
     23          6           0        4.424048   -0.433545   -0.352192
     24          6           0        3.329560    0.391743   -0.098646
     25          6           0        2.012330   -0.050100   -0.212534
     26          6           0        1.791432   -1.375936   -0.597129
     27          1           0        2.688137   -3.257180   -1.156732
     28          1           0        5.018221   -2.415635   -0.937766
     29          1           0        5.428501   -0.041269   -0.249186
     30          1           0        1.196657    0.631561   -0.004129
     31          1           0        0.772573   -1.740609   -0.691909
     32          7           0        3.575940    1.793355    0.307781
     33          8           0        2.594455    2.500405    0.525504
     34          8           0        4.745873    2.158346    0.400919
 ---------------------------------------------------------------------

 SCF Done:  E(RHF) =  -669.535252393     A.U. after   15 cycles
 E2 =    -0.2091234167D+01 EUMP2 =    -0.67162648656098D+03

 The electronic state is 1-A.
 Alpha  occ. eigenvalues --  -20.60740 -20.60735 -15.85794 -11.31162 -11.27731
 Alpha  occ. eigenvalues --  -11.27726 -11.27467 -11.26749 -11.26712 -11.22243
 Alpha  occ. eigenvalues --  -11.21887 -11.21869 -11.21827 -11.21719 -11.21248
 Alpha  occ. eigenvalues --   -1.59815  -1.39369  -1.19333  -1.08873  -1.08726
 Alpha  occ. eigenvalues --   -1.04742  -1.03989  -0.96449  -0.95562  -0.87469
 Alpha  occ. eigenvalues --   -0.86133  -0.82401  -0.80055  -0.78651  -0.77445
 Alpha  occ. eigenvalues --   -0.72012  -0.71138  -0.70443  -0.65529  -0.64987
 Alpha  occ. eigenvalues --   -0.64749  -0.62168  -0.61335  -0.59825  -0.58035
 Alpha  occ. eigenvalues --   -0.55774  -0.55221  -0.53176  -0.53062  -0.52915
 Alpha  occ. eigenvalues --   -0.52746  -0.50378  -0.48770  -0.48767  -0.48362
 Alpha  occ. eigenvalues --   -0.47087  -0.46199  -0.46106  -0.44774  -0.44228
 Alpha  occ. eigenvalues --   -0.37311  -0.36328
 Alpha virt. eigenvalues --    0.05077   0.11312   0.16502   0.19753   0.22756
 Alpha virt. eigenvalues --    0.23817   0.25542   0.26681   0.27185   0.28151
 Alpha virt. eigenvalues --    0.29027   0.30313   0.31192   0.31565   0.31993

 Mulliken charges:
               1
     1  C   -0.298069
     2  C   -0.300779
     3  C   -0.478617
     4  H    0.146832
     5  H    0.153224
     6  H    0.148991
     7  H    0.155547
     8  H    0.162496
     9  H    0.146381
    10  H    0.160307
    11  C   -0.298581
    12  C   -0.300269
    13  C   -0.476018
    14  H    0.148773
    15  H    0.150646
    16  H    0.153148
    17  H    0.153707
    18  H    0.155363
    19  H    0.154889
    20  H    0.161978
    21  C   -0.171531
    22  C   -0.218521
    23  C   -0.171045
    24  C    0.158351
    25  C   -0.171839
    26  C   -0.219564
    27  H    0.225641
    28  H    0.223322
    29  H    0.275535
    30  H    0.275405
    31  H    0.227092
    32  N    0.488181
    33  O   -0.460409
    34  O   -0.460566
 Sum of Mulliken charges =  -0.00000

 Dipole moment (field-independent basis, Debye):
    X=             -1.0078    Y=             -4.9259    Z=             -1.3699  Tot=              5.2112
 Quadrupole moment (field-independent basis, Debye-Ang):
   XX=            -95.7150   YY=            -99.1958   ZZ=            -94.6041
   XY=            -17.7612   XZ=             -6.1913   YZ=              0.0729

 Normal termination of Gaussian 16 at Thu May  6 09:09:35 2021.
