 Gaussian 16, Revision A.03,
 Gaussian 16:  EM64L-G16RevA.03 25-Dec-2016

 -------------
 #p 6-31g* mp2
 -------------

 ------------------------------------------------------
 Input file generated by CHIRIPA (05-May-2021 14:51:10)
 ------------------------------------------------------
 Symbolic Z-matrix:
 Charge =  0 Multiplicity = 1

                         Standard orientation:
 ---------------------------------------------------------------------
 Center     Atomic      Atomic             Coordinates (Angstroms)
 Number     Number       Type             X           Y           Z
 ---------------------------------------------------------------------
      1          6           0       -3.396515   -0.316521   -0.371165
      2          6           0       -4.506044    0.560361    0.210218
      3          6           0       -5.481945    1.062241   -0.854455
      4          1           0       -2.848319    0.254093   -1.133284
      5          1           0       -3.849289   -1.173883   -0.888197
      6          1           0       -4.051271    1.415078    0.727187
      7          1           0       -5.051540   -0.012343    0.971178
      8          1           0       -5.962519    0.220730   -1.363875
      9          1           0       -4.956566    1.656261   -1.609252
     10          1           0       -6.266866    1.687053   -0.416995
     11          6           0       -2.412956   -0.825922    0.680906
     12          6           0       -1.303427   -1.702804    0.099523
     13          6           0       -0.327526   -2.204685    1.164196
     14          1           0       -1.960182    0.031440    1.197938
     15          1           0       -2.961152   -1.396536    1.443025
     16          1           0       -0.757931   -1.130100   -0.661437
     17          1           0       -1.758200   -2.557521   -0.417446
     18          1           0       -0.852905   -2.798704    1.918992
     19          1           0        0.153048   -1.363173    1.673615
     20          1           0        0.457395   -2.829496    0.726736
     21          6           0        2.744561   -0.115073   -0.449450
     22          6           0        3.831520   -1.157339   -0.184527
     23          6           0        3.496634   -2.525193   -0.780028
     24          1           0        1.792550   -0.473920   -0.034904
     25          1           0        2.596320   -0.017574   -1.533845
     26          1           0        3.978638   -1.251840    0.899005
     27          1           0        4.781096   -0.795884   -0.599583
     28          1           0        3.370048   -2.452446   -1.865056
     29          1           0        2.563032   -2.910992   -0.357953
     30          1           0        4.287022   -3.255039   -0.578856
     31          6           0        3.064910    1.257515    0.139708
     32          6           0        1.977951    2.299783   -0.125214
     33          6           0        2.312837    3.667636    0.470288
     34          1           0        3.213151    1.160017    1.224104
     35          1           0        4.016921    1.616363   -0.274837
     36          1           0        1.028375    1.938327    0.289842
     37          1           0        1.830832    2.394282   -1.208747
     38          1           0        3.246439    4.053435    0.048213
     39          1           0        2.439422    3.594889    1.555316
     40          1           0        1.522448    4.397482    0.269115
 ---------------------------------------------------------------------

 SCF Done:  E(RHF) =  -470.732610017     A.U. after   11 cycles
 E2 =    -0.1584139804D+01 EUMP2 =    -0.47231674982120D+03

 The electronic state is 1-A.
 Alpha  occ. eigenvalues --  -11.21645 -11.21640 -11.21616 -11.21574 -11.21437
 Alpha  occ. eigenvalues --  -11.21388 -11.21373 -11.21292 -11.21154 -11.21103
 Alpha  occ. eigenvalues --  -11.21080 -11.21042  -1.08481  -1.08408  -1.03595
 Alpha  occ. eigenvalues --   -1.03512  -0.96032  -0.95979  -0.87050  -0.86997
 Alpha  occ. eigenvalues --   -0.79649  -0.79581  -0.78283  -0.78233  -0.65261
 Alpha  occ. eigenvalues --   -0.64927  -0.61085  -0.60875  -0.59483  -0.59253
 Alpha  occ. eigenvalues --   -0.57697  -0.57535  -0.55452  -0.55161  -0.52774
 Alpha  occ. eigenvalues --   -0.52672  -0.52505  -0.52312  -0.50045  -0.49854
 Alpha  occ. eigenvalues --   -0.47982  -0.47858  -0.46675  -0.46606  -0.45910
 Alpha  occ. eigenvalues --   -0.45769  -0.45696  -0.45576  -0.43805  -0.43774
 Alpha virt. eigenvalues --    0.20075   0.22935   0.23562   0.24468   0.26123
 Alpha virt. eigenvalues --    0.26615   0.26755   0.27557   0.27901   0.29723
 Alpha virt. eigenvalues --    0.30439   0.31469   0.31774   0.31821   0.32388

 Mulliken charges:
               1
     1  C   -0.298406
     2  C   -0.299687
     3  C   -0.475743
     4  H    0.150178
     5  H    0.149637
     6  H    0.151953
     7  H    0.151926
     8  H    0.155208
     9  H    0.155299
    10  H    0.160297
    11  C   -0.298381
    12  C   -0.302941
    13  C   -0.484076
    14  H    0.149090
    15  H    0.149834
    16  H    0.155437
    17  H    0.152519
    18  H    0.156933
    19  H    0.154501
    20  H    0.165911
    21  C   -0.309535
    22  C   -0.298596
    23  C   -0.481522
    24  H    0.163556
    25  H    0.148590
    26  H    0.151834
    27  H    0.151804
    28  H    0.155100
    29  H    0.159944
    30  H    0.160292
    31  C   -0.297880
    32  C   -0.299839
    33  C   -0.475652
    34  H    0.149213
    35  H    0.149748
    36  H    0.150626
    37  H    0.151942
    38  H    0.155499
    39  H    0.155262
    40  H    0.160124
 Sum of Mulliken charges =  -0.00000

 Dipole moment (field-independent basis, Debye):
    X=             -0.0256    Y=             -0.0177    Z=             -0.0002  Tot=              0.0311
 Quadrupole moment (field-independent basis, Debye-Ang):
   XX=            -84.9220   YY=            -85.2990   ZZ=            -84.5917
   XY=              0.8908   XZ=             -0.9925   YZ=             -0.4725

 Normal termination of Gaussian 16 at Thu May  6 05:24:26 2021.
