 Gaussian 16, Revision A.03,
 Gaussian 16:  EM64L-G16RevA.03 25-Dec-2016

 -------------
 #p 6-31g* mp2
 -------------

 ------------------------------------------------------
 Input file generated by CHIRIPA (05-May-2021 14:55:19)
 ------------------------------------------------------
 Symbolic Z-matrix:
 Charge =  0 Multiplicity = 1

                         Standard orientation:
 ---------------------------------------------------------------------
 Center     Atomic      Atomic             Coordinates (Angstroms)
 Number     Number       Type             X           Y           Z
 ---------------------------------------------------------------------
      1          6           0       -4.493504   -1.367307    1.252506
      2          6           0       -4.795589   -0.003076    1.316837
      3          6           0       -4.010008    0.931010    0.635005
      4          6           0       -2.924931    0.463816   -0.105013
      5          6           0       -2.598346   -0.888828   -0.188594
      6          6           0       -3.397778   -1.805057    0.501320
      7          1           0       -5.109142   -2.085991    1.785309
      8          1           0       -5.645932    0.339759    1.899441
      9          1           0       -4.221276    1.992952    0.667614
     10          1           0       -1.744230   -1.200321   -0.777556
     11          1           0       -3.160806   -2.863929    0.449556
     12          7           0       -2.085940    1.443238   -0.831116
     13          8           0       -1.135432    1.006091   -1.476155
     14          8           0       -2.394732    2.629511   -0.741448
     15          6           0        3.612974   -0.977413   -0.393063
     16          6           0        2.107447   -0.833829   -0.618353
     17          6           0        1.505917   -2.022682   -1.368408
     18          1           0        4.113437   -1.091199   -1.364420
     19          1           0        3.806129   -1.902061    0.168286
     20          1           0        1.917078    0.090981   -1.177910
     21          1           0        1.610531   -0.720178    0.353641
     22          1           0        1.666635   -2.951142   -0.810975
     23          1           0        1.974924   -2.135373   -2.351228
     24          1           0        0.428854   -1.899267   -1.518624
     25          6           0        4.228834    0.203281    0.355540
     26          6           0        5.734361    0.059696    0.580830
     27          6           0        6.335892    1.248550    1.330885
     28          1           0        4.035679    1.127930   -0.205809
     29          1           0        3.728371    0.317068    1.326897
     30          1           0        6.231277   -0.053953   -0.391165
     31          1           0        5.924730   -0.865113    1.140387
     32          1           0        5.866884    1.361241    2.313705
     33          1           0        6.175173    2.177010    0.773452
     34          1           0        7.412954    1.125136    1.481100
 ---------------------------------------------------------------------

 SCF Done:  E(RHF) =  -669.535689644     A.U. after   15 cycles
 E2 =    -0.2091634466D+01 EUMP2 =    -0.67162732410986D+03

 The electronic state is 1-A.
 Alpha  occ. eigenvalues --  -20.60838 -20.60830 -15.85875 -11.31215 -11.27784
 Alpha  occ. eigenvalues --  -11.27771 -11.27526 -11.26798 -11.26785 -11.21239
 Alpha  occ. eigenvalues --  -11.20989 -11.20943 -11.20889 -11.20844 -11.20736
 Alpha  occ. eigenvalues --   -1.59901  -1.39455  -1.19388  -1.08789  -1.07982
 Alpha  occ. eigenvalues --   -1.04789  -1.03119  -0.95663  -0.95581  -0.86642
 Alpha  occ. eigenvalues --   -0.86186  -0.82460  -0.79164  -0.77778  -0.77505
 Alpha  occ. eigenvalues --   -0.72100  -0.71215  -0.70507  -0.65043  -0.64806
 Alpha  occ. eigenvalues --   -0.64609  -0.62174  -0.60510  -0.58969  -0.57205
 Alpha  occ. eigenvalues --   -0.55293  -0.54907  -0.53118  -0.52946  -0.52278
 Alpha  occ. eigenvalues --   -0.52014  -0.49551  -0.48856  -0.48851  -0.47493
 Alpha  occ. eigenvalues --   -0.46179  -0.45355  -0.45235  -0.44816  -0.43386
 Alpha  occ. eigenvalues --   -0.37369  -0.36389
 Alpha virt. eigenvalues --    0.05007   0.11251   0.16498   0.20505   0.23232
 Alpha virt. eigenvalues --    0.24007   0.26456   0.27110   0.27700   0.28073
 Alpha virt. eigenvalues --    0.29234   0.30446   0.31528   0.31784   0.32322

 Mulliken charges:
               1
     1  C   -0.170350
     2  C   -0.219142
     3  C   -0.169690
     4  C    0.155487
     5  C   -0.177088
     6  C   -0.223098
     7  H    0.225756
     8  H    0.223533
     9  H    0.275685
    10  H    0.290467
    11  H    0.224327
    12  N    0.487765
    13  O   -0.462753
    14  O   -0.459737
    15  C   -0.299040
    16  C   -0.299690
    17  C   -0.479617
    18  H    0.149216
    19  H    0.145386
    20  H    0.171464
    21  H    0.146909
    22  H    0.149115
    23  H    0.157951
    24  H    0.156761
    25  C   -0.298291
    26  C   -0.299307
    27  C   -0.475532
    28  H    0.153655
    29  H    0.148481
    30  H    0.151678
    31  H    0.149980
    32  H    0.154432
    33  H    0.156453
    34  H    0.158836
 Sum of Mulliken charges =  -0.00000

 Dipole moment (field-independent basis, Debye):
    X=             -3.0139    Y=             -3.3052    Z=              2.4914  Tot=              5.1201
 Quadrupole moment (field-independent basis, Debye-Ang):
   XX=            -76.8714   YY=            -96.1924   ZZ=            -94.9118
   XY=              6.3315   XZ=             -9.2913   YZ=              2.0206

 Normal termination of Gaussian 16 at Thu May  6 09:14:52 2021.
