 Gaussian 16, Revision A.03,
 Gaussian 16:  EM64L-G16RevA.03 25-Dec-2016

 -------------
 #p 6-31g* mp2
 -------------

 ------------------------------------------------------
 Input file generated by CHIRIPA (05-May-2021 14:57:22)
 ------------------------------------------------------
 Symbolic Z-matrix:
 Charge =  0 Multiplicity = 1

                         Standard orientation:
 ---------------------------------------------------------------------
 Center     Atomic      Atomic             Coordinates (Angstroms)
 Number     Number       Type             X           Y           Z
 ---------------------------------------------------------------------
      1          6           0       -6.421273    0.467734    0.091219
      2          6           0       -5.522675    1.492016    0.407268
      3          6           0       -4.144229    1.286211    0.297364
      4          6           0       -3.697083    0.038172   -0.133623
      5          6           0       -4.567237   -1.002150   -0.455887
      6          6           0       -5.941532   -0.773891   -0.338592
      7          1           0       -7.490471    0.636329    0.179466
      8          1           0       -5.892396    2.457293    0.741320
      9          1           0       -3.426379    2.061702    0.535531
     10          1           0       -4.168631   -1.953688   -0.786200
     11          1           0       -6.637070   -1.571194   -0.584722
     12          7           0       -2.239981   -0.191590   -0.253885
     13          8           0       -1.871414   -1.300146   -0.635853
     14          8           0       -1.494062    0.741229    0.036098
     15          6           0        5.960451    1.299783   -0.502326
     16          6           0        4.742854    1.930359   -0.226011
     17          6           0        3.615314    1.178067    0.116421
     18          6           0        3.741633   -0.209049    0.173367
     19          6           0        4.940876   -0.866560   -0.096422
     20          6           0        6.055410   -0.094206   -0.436765
     21          1           0        6.831300    1.891974   -0.767524
     22          1           0        4.666175    3.012788   -0.276151
     23          1           0        2.660443    1.640426    0.335197
     24          1           0        4.986410   -1.947284   -0.038279
     25          1           0        6.999729   -0.586625   -0.650845
     26          7           0        2.554842   -1.016086    0.534778
     27          8           0        2.692222   -2.236697    0.578059
     28          8           0        1.509729   -0.412749    0.767930
 ---------------------------------------------------------------------

 SCF Done:  E(RHF) =  -868.334907368     A.U. after   16 cycles
 E2 =    -0.2600634639D+01 EUMP2 =    -0.87093554200711D+03

 The electronic state is 1-A.
 Alpha  occ. eigenvalues --  -20.59682 -20.59673 -20.59363 -20.59218 -15.84759
 Alpha  occ. eigenvalues --  -15.84344 -11.30496 -11.30143 -11.27124 -11.27094
 Alpha  occ. eigenvalues --  -11.26925 -11.26796 -11.26726 -11.26623 -11.26220
 Alpha  occ. eigenvalues --  -11.26197 -11.25907 -11.25878  -1.58732  -1.58368
 Alpha  occ. eigenvalues --   -1.38289  -1.37905  -1.18702  -1.18367  -1.08025
 Alpha  occ. eigenvalues --   -1.07689  -1.04163  -1.03832  -0.94799  -0.94441
 Alpha  occ. eigenvalues --   -0.85544  -0.85211  -0.81639  -0.81267  -0.76617
 Alpha  occ. eigenvalues --   -0.76238  -0.70993  -0.70526  -0.70073  -0.69813
 Alpha  occ. eigenvalues --   -0.69714  -0.69475  -0.64349  -0.64173  -0.64002
 Alpha  occ. eigenvalues --   -0.63847  -0.61509  -0.61169  -0.54653  -0.54339
 Alpha  occ. eigenvalues --   -0.52470  -0.52263  -0.52144  -0.51932  -0.47790
 Alpha  occ. eigenvalues --   -0.47685  -0.47287  -0.47261  -0.43617  -0.43197
 Alpha  occ. eigenvalues --   -0.36705  -0.36383  -0.35784  -0.35457
 Alpha virt. eigenvalues --    0.05929   0.06301   0.11864   0.12191   0.17355
 Alpha virt. eigenvalues --    0.17706   0.21943   0.22254   0.27825   0.28134
 Alpha virt. eigenvalues --    0.28863   0.29207   0.31462   0.31767   0.33116

 Mulliken charges:
               1
     1  C   -0.172090
     2  C   -0.218469
     3  C   -0.171548
     4  C    0.159728
     5  C   -0.171314
     6  C   -0.218490
     7  H    0.223030
     8  H    0.220681
     9  H    0.273583
    10  H    0.276224
    11  H    0.221613
    12  N    0.487944
    13  O   -0.453855
    14  O   -0.456261
    15  C   -0.172319
    16  C   -0.219021
    17  C   -0.171531
    18  C    0.158937
    19  C   -0.171866
    20  C   -0.218834
    21  H    0.221660
    22  H    0.220252
    23  H    0.281067
    24  H    0.273921
    25  H    0.219861
    26  N    0.486993
    27  O   -0.467375
    28  O   -0.442520
 Sum of Mulliken charges =  -0.00000

 Dipole moment (field-independent basis, Debye):
    X=             -1.1075    Y=              3.6019    Z=             -0.8092  Tot=              3.8542
 Quadrupole moment (field-independent basis, Debye-Ang):
   XX=            -38.5603   YY=            -98.7215   ZZ=           -106.6456
   XY=              5.2294   XZ=             -4.9293   YZ=              2.8596

 Normal termination of Gaussian 16 at Thu May  6 14:31:39 2021.
