 Gaussian 16, Revision A.03,
 Gaussian 16:  EM64L-G16RevA.03 25-Dec-2016

 -------------
 #p 6-31g* mp2
 -------------

 ------------------------------------------------------
 Input file generated by CHIRIPA (05-May-2021 14:55:21)
 ------------------------------------------------------
 Symbolic Z-matrix:
 Charge =  0 Multiplicity = 1

                         Standard orientation:
 ---------------------------------------------------------------------
 Center     Atomic      Atomic             Coordinates (Angstroms)
 Number     Number       Type             X           Y           Z
 ---------------------------------------------------------------------
      1          6           0        3.333952    1.342671    0.523496
      2          6           0        3.578250    0.090935    1.097949
      3          6           0        2.804995   -1.017529    0.740273
      4          6           0        1.791035   -0.837531   -0.199288
      5          6           0        1.523162    0.396718   -0.789343
      6          6           0        2.308995    1.491306   -0.416659
      7          1           0        3.939520    2.198363    0.807176
      8          1           0        4.373576   -0.027448    1.828350
      9          1           0        2.972528   -1.997953    1.169366
     10          1           0        0.723295    0.483629   -1.514654
     11          1           0        2.117006    2.462228   -0.864425
     12          7           0        0.965767   -2.003667   -0.585888
     13          8           0        0.078416   -1.818832   -1.415997
     14          8           0        1.221899   -3.080438   -0.051474
     15          6           0       -2.200616    1.376774   -0.284022
     16          6           0       -1.360535    2.422163    0.450423
     17          6           0       -0.835486    3.517389   -0.478338
     18          1           0       -1.595864    0.924221   -1.081780
     19          1           0       -3.045636    1.876468   -0.777624
     20          1           0       -0.518128    1.920461    0.943639
     21          1           0       -1.967296    2.872142    1.246648
     22          1           0       -1.665328    4.044003   -0.960666
     23          1           0       -0.207926    3.086914   -1.265396
     24          1           0       -0.237631    4.254016    0.067382
     25          6           0       -2.732628    0.275290    0.631086
     26          6           0       -3.572711   -0.770099   -0.103358
     27          6           0       -4.097760   -1.865326    0.825402
     28          1           0       -1.887610   -0.224405    1.124688
     29          1           0       -3.337381    0.727841    1.428844
     30          1           0       -2.965949   -1.220079   -0.899583
     31          1           0       -4.415117   -0.268398   -0.596575
     32          1           0       -4.725319   -1.434851    1.612461
     33          1           0       -3.267917   -2.391939    1.307731
     34          1           0       -4.695614   -2.601954    0.279682
 ---------------------------------------------------------------------

 SCF Done:  E(RHF) =  -669.534681516     A.U. after   15 cycles
 E2 =    -0.2095573490D+01 EUMP2 =    -0.67163025500615D+03

 The electronic state is 1-A.
 Alpha  occ. eigenvalues --  -20.60986 -20.60980 -15.86011 -11.31307 -11.27854
 Alpha  occ. eigenvalues --  -11.27840 -11.27573 -11.26856 -11.26800 -11.21766
 Alpha  occ. eigenvalues --  -11.21702 -11.21282 -11.20995 -11.20779 -11.20313
 Alpha  occ. eigenvalues --   -1.60041  -1.39598  -1.19473  -1.08874  -1.08227
 Alpha  occ. eigenvalues --   -1.04872  -1.03315  -0.95836  -0.95723  -0.86879
 Alpha  occ. eigenvalues --   -0.86243  -0.82561  -0.79447  -0.77957  -0.77595
 Alpha  occ. eigenvalues --   -0.72234  -0.71360  -0.70593  -0.65144  -0.64974
 Alpha  occ. eigenvalues --   -0.64816  -0.62250  -0.60621  -0.59289  -0.57387
 Alpha  occ. eigenvalues --   -0.55359  -0.55189  -0.53175  -0.52955  -0.52513
 Alpha  occ. eigenvalues --   -0.52241  -0.49771  -0.49001  -0.48986  -0.47727
 Alpha  occ. eigenvalues --   -0.46449  -0.45542  -0.45356  -0.44877  -0.43560
 Alpha  occ. eigenvalues --   -0.37443  -0.36393
 Alpha virt. eigenvalues --    0.04856   0.11119   0.16294   0.19983   0.23406
 Alpha virt. eigenvalues --    0.24312   0.25721   0.26736   0.27224   0.28395
 Alpha virt. eigenvalues --    0.30101   0.30823   0.31518   0.31631   0.32366

 Mulliken charges:
               1
     1  C   -0.171564
     2  C   -0.218507
     3  C   -0.170955
     4  C    0.156536
     5  C   -0.171501
     6  C   -0.219521
     7  H    0.226333
     8  H    0.223883
     9  H    0.275767
    10  H    0.279371
    11  H    0.228669
    12  N    0.488990
    13  O   -0.462634
    14  O   -0.458603
    15  C   -0.304490
    16  C   -0.305042
    17  C   -0.475695
    18  H    0.153198
    19  H    0.149883
    20  H    0.155529
    21  H    0.154029
    22  H    0.160559
    23  H    0.141532
    24  H    0.157300
    25  C   -0.294939
    26  C   -0.306468
    27  C   -0.475583
    28  H    0.147718
    29  H    0.146786
    30  H    0.172789
    31  H    0.146857
    32  H    0.149804
    33  H    0.159214
    34  H    0.160755
 Sum of Mulliken charges =  -0.00000

 Dipole moment (field-independent basis, Debye):
    X=              2.9640    Y=              3.9401    Z=              1.3414  Tot=              5.1097
 Quadrupole moment (field-independent basis, Debye-Ang):
   XX=            -83.0048   YY=           -100.9507   ZZ=            -94.2321
   XY=              2.6245   XZ=              4.2111   YZ=             -3.3183

 Normal termination of Gaussian 16 at Thu May  6 01:24:59 2021.
