 Gaussian 16, Revision A.03,
 Gaussian 16:  EM64L-G16RevA.03 25-Dec-2016

 -------------
 #p 6-31g* mp2
 -------------

 ------------------------------------------------------
 Input file generated by CHIRIPA (05-May-2021 14:53:16)
 ------------------------------------------------------
 Symbolic Z-matrix:
 Charge =  0 Multiplicity = 1

                         Standard orientation:
 ---------------------------------------------------------------------
 Center     Atomic      Atomic             Coordinates (Angstroms)
 Number     Number       Type             X           Y           Z
 ---------------------------------------------------------------------
      1          6           0       -4.211790   -0.087603   -0.254742
      2          6           0       -4.887736   -1.412842    0.098560
      3          6           0       -5.847180   -1.895644   -0.989632
      4          1           0       -4.983106    0.674798   -0.430130
      5          1           0       -3.665801   -0.203379   -1.201255
      6          1           0       -5.431147   -1.294992    1.044833
      7          1           0       -4.114716   -2.172129    0.273316
      8          1           0       -5.315213   -2.041166   -1.935379
      9          1           0       -6.639125   -1.159045   -1.159478
     10          1           0       -6.319309   -2.844503   -0.716465
     11          6           0       -3.249669    0.408067    0.823388
     12          6           0       -2.573723    1.733306    0.470086
     13          6           0       -1.614279    2.216107    1.558279
     14          1           0       -3.795658    0.523843    1.769901
     15          1           0       -2.478353   -0.354334    0.998776
     16          1           0       -3.346743    2.492593    0.295331
     17          1           0       -2.030312    1.615456   -0.476187
     18          1           0       -0.822335    1.479509    1.728124
     19          1           0       -2.146246    2.361629    2.504025
     20          1           0       -1.142150    3.164967    1.285112
     21          6           0        1.168966    1.470836   -1.100364
     22          6           0        2.524652    1.807821   -1.171628
     23          6           0        3.500534    0.931218   -0.688132
     24          6           0        3.083397   -0.279478   -0.137223
     25          6           0        1.740525   -0.643799   -0.052047
     26          6           0        0.781911    0.248256   -0.541785
     27          1           0        0.417584    2.157805   -1.478380
     28          1           0        2.828156    2.756609   -1.604908
     29          1           0        4.556970    1.166887   -0.730796
     30          1           0        1.468681   -1.596800    0.385341
     31          1           0       -0.270208   -0.016093   -0.485130
     32          7           0        4.107380   -1.215678    0.377938
     33          8           0        3.713959   -2.276224    0.858667
     34          8           0        5.284008   -0.871199    0.291236
 ---------------------------------------------------------------------

 SCF Done:  E(RHF) =  -669.534496897     A.U. after   15 cycles
 E2 =    -0.2093389756D+01 EUMP2 =    -0.67162788665301D+03

 The electronic state is 1-A.
 Alpha  occ. eigenvalues --  -20.60757 -20.60752 -15.85810 -11.31179 -11.27749
 Alpha  occ. eigenvalues --  -11.27746 -11.27477 -11.26761 -11.26721 -11.22758
 Alpha  occ. eigenvalues --  -11.22413 -11.22285 -11.22221 -11.21895 -11.21614
 Alpha  occ. eigenvalues --   -1.59832  -1.39386  -1.19355  -1.09372  -1.08742
 Alpha  occ. eigenvalues --   -1.04778  -1.04365  -0.96793  -0.95578  -0.87801
 Alpha  occ. eigenvalues --   -0.86165  -0.82416  -0.80461  -0.79151  -0.77472
 Alpha  occ. eigenvalues --   -0.72031  -0.71156  -0.70473  -0.66241  -0.65005
 Alpha  occ. eigenvalues --   -0.64673  -0.62299  -0.61490  -0.60177  -0.58407
 Alpha  occ. eigenvalues --   -0.56099  -0.55247  -0.53469  -0.53210  -0.53052
 Alpha  occ. eigenvalues --   -0.52836  -0.50720  -0.48814  -0.48784  -0.48714
 Alpha  occ. eigenvalues --   -0.47539  -0.46665  -0.46626  -0.44791  -0.44640
 Alpha  occ. eigenvalues --   -0.37304  -0.36343
 Alpha virt. eigenvalues --    0.05060   0.11208   0.16488   0.18855   0.22538
 Alpha virt. eigenvalues --    0.24113   0.25087   0.25408   0.26839   0.28381
 Alpha virt. eigenvalues --    0.28984   0.30472   0.30927   0.31409   0.31845

 Mulliken charges:
               1
     1  C   -0.298806
     2  C   -0.300169
     3  C   -0.476253
     4  H    0.152693
     5  H    0.146010
     6  H    0.154412
     7  H    0.152107
     8  H    0.155394
     9  H    0.156215
    10  H    0.163071
    11  C   -0.301433
    12  C   -0.305629
    13  C   -0.477957
    14  H    0.156412
    15  H    0.145218
    16  H    0.158256
    17  H    0.138889
    18  H    0.160360
    19  H    0.159767
    20  H    0.159185
    21  C   -0.171829
    22  C   -0.218717
    23  C   -0.170803
    24  C    0.158792
    25  C   -0.173866
    26  C   -0.222141
    27  H    0.227269
    28  H    0.223445
    29  H    0.275617
    30  H    0.275394
    31  H    0.231936
    32  N    0.488070
    33  O   -0.460489
    34  O   -0.460417
 Sum of Mulliken charges =  -0.00000

 Dipole moment (field-independent basis, Debye):
    X=             -3.7874    Y=              3.3130    Z=             -1.7282  Tot=              5.3204
 Quadrupole moment (field-independent basis, Debye-Ang):
   XX=           -113.7112   YY=            -94.7872   ZZ=            -94.8420
   XY=             13.3148   XZ=             -7.3366   YZ=             -0.9298

 Normal termination of Gaussian 16 at Wed May  5 15:40:32 2021.
