 Gaussian 16, Revision A.03,
 Gaussian 16:  EM64L-G16RevA.03 25-Dec-2016

 -------------
 #p 6-31g* mp2
 -------------

 ------------------------------------------------------
 Input file generated by CHIRIPA (05-May-2021 14:51:07)
 ------------------------------------------------------
 Symbolic Z-matrix:
 Charge =  0 Multiplicity = 1

                         Standard orientation:
 ---------------------------------------------------------------------
 Center     Atomic      Atomic             Coordinates (Angstroms)
 Number     Number       Type             X           Y           Z
 ---------------------------------------------------------------------
      1          6           0       -3.070064   -0.811402   -0.304988
      2          6           0       -3.990055    0.406819   -0.391824
      3          6           0       -5.086914    0.245409   -1.444744
      4          1           0       -2.613211   -0.988743   -1.288237
      5          1           0       -3.672253   -1.701284   -0.075044
      6          1           0       -3.386129    1.294371   -0.620170
      7          1           0       -4.444623    0.581396    0.591795
      8          1           0       -5.713828   -0.623008   -1.217958
      9          1           0       -4.649319    0.094017   -2.436808
     10          1           0       -5.732972    1.127693   -1.489960
     11          6           0       -1.968423   -0.665119    0.743209
     12          6           0       -1.048433   -1.883340    0.830046
     13          6           0        0.048427   -1.721930    1.882965
     14          1           0       -1.366235    0.224763    0.513265
     15          1           0       -2.425277   -0.487777    1.726458
     16          1           0       -0.593864   -2.057917   -0.153573
     17          1           0       -1.652358   -2.770892    1.058391
     18          1           0       -0.389168   -1.570538    2.875030
     19          1           0        0.675340   -0.853512    1.656179
     20          1           0        0.694484   -2.604214    1.928182
     21          6           0        1.949110    1.228244   -0.354368
     22          6           0        1.612757    2.113510    0.846114
     23          6           0        0.470195    3.088438    0.560000
     24          1           0        2.214373    1.865587   -1.208988
     25          1           0        1.052014    0.666693   -0.649793
     26          1           0        2.510585    2.672189    1.140050
     27          1           0        1.348450    1.473982    1.698030
     28          1           0       -0.440674    2.545319    0.288083
     29          1           0        0.728065    3.750333   -0.273066
     30          1           0        0.246307    3.711448    1.431546
     31          6           0        3.089378    0.248276   -0.083853
     32          6           0        3.425730   -0.636989   -1.284335
     33          6           0        4.568293   -1.611917   -0.998221
     34          1           0        3.986473    0.809827    0.211571
     35          1           0        2.824115   -0.389066    0.770767
     36          1           0        3.690038    0.002539   -2.136252
     37          1           0        2.527902   -1.195668   -1.578272
     38          1           0        4.310422   -2.273812   -0.165154
     39          1           0        5.479161   -1.068798   -0.726304
     40          1           0        4.792180   -2.234927   -1.869767
 ---------------------------------------------------------------------

 SCF Done:  E(RHF) =  -470.732161254     A.U. after   11 cycles
 E2 =    -0.1585633366D+01 EUMP2 =    -0.47231779462021D+03

 The electronic state is 1-A.
 Alpha  occ. eigenvalues --  -11.21678 -11.21640 -11.21637 -11.21617 -11.21457
 Alpha  occ. eigenvalues --  -11.21440 -11.21396 -11.21353 -11.21106 -11.21106
 Alpha  occ. eigenvalues --  -11.21090 -11.21074  -1.08543  -1.08423  -1.03600
 Alpha  occ. eigenvalues --   -1.03544  -0.96078  -0.95968  -0.87057  -0.87024
 Alpha  occ. eigenvalues --   -0.79657  -0.79627  -0.78309  -0.78283  -0.65580
 Alpha  occ. eigenvalues --   -0.64763  -0.61089  -0.60831  -0.59393  -0.59371
 Alpha  occ. eigenvalues --   -0.57654  -0.57618  -0.55613  -0.55034  -0.52730
 Alpha  occ. eigenvalues --   -0.52712  -0.52463  -0.52415  -0.50019  -0.49955
 Alpha  occ. eigenvalues --   -0.48054  -0.47897  -0.46782  -0.46681  -0.46067
 Alpha  occ. eigenvalues --   -0.45796  -0.45594  -0.45389  -0.43835  -0.43809
 Alpha virt. eigenvalues --    0.19134   0.22303   0.23482   0.24854   0.25396
 Alpha virt. eigenvalues --    0.25918   0.26583   0.28195   0.29110   0.29581
 Alpha virt. eigenvalues --    0.30930   0.31534   0.31678   0.31875   0.32215

 Mulliken charges:
               1
     1  C   -0.297908
     2  C   -0.300584
     3  C   -0.475748
     4  H    0.149513
     5  H    0.149910
     6  H    0.152349
     7  H    0.152214
     8  H    0.155279
     9  H    0.155326
    10  H    0.160526
    11  C   -0.308133
    12  C   -0.299212
    13  C   -0.486326
    14  H    0.158040
    15  H    0.150140
    16  H    0.151456
    17  H    0.152630
    18  H    0.155489
    19  H    0.166421
    20  H    0.159879
    21  C   -0.303484
    22  C   -0.303793
    23  C   -0.479860
    24  H    0.150904
    25  H    0.151471
    26  H    0.152948
    27  H    0.155220
    28  H    0.158193
    29  H    0.155363
    30  H    0.160966
    31  C   -0.302568
    32  C   -0.299542
    33  C   -0.475834
    34  H    0.149824
    35  H    0.154336
    36  H    0.151885
    37  H    0.151670
    38  H    0.155596
    39  H    0.155243
    40  H    0.160200
 Sum of Mulliken charges =  -0.00000

 Dipole moment (field-independent basis, Debye):
    X=             -0.0016    Y=              0.0085    Z=              0.0167  Tot=              0.0188
 Quadrupole moment (field-independent basis, Debye-Ang):
   XX=            -85.2273   YY=            -84.7236   ZZ=            -84.6908
   XY=              1.3734   XZ=             -1.2800   YZ=             -0.4406

 Normal termination of Gaussian 16 at Thu May  6 11:32:28 2021.
