 Gaussian 16, Revision A.03,
 Gaussian 16:  EM64L-G16RevA.03 25-Dec-2016

 -------------
 #p 6-31g* mp2
 -------------

 ------------------------------------------------------
 Input file generated by CHIRIPA (05-May-2021 14:57:23)
 ------------------------------------------------------
 Symbolic Z-matrix:
 Charge =  0 Multiplicity = 1

                         Standard orientation:
 ---------------------------------------------------------------------
 Center     Atomic      Atomic             Coordinates (Angstroms)
 Number     Number       Type             X           Y           Z
 ---------------------------------------------------------------------
      1          6           0       -1.274263    1.279596   -0.174778
      2          6           0       -1.340026   -0.014090   -0.702578
      3          6           0       -2.530339   -0.745049   -0.644265
      4          6           0       -3.640650   -0.148874   -0.048383
      5          6           0       -3.606680    1.138046    0.486381
      6          6           0       -2.405805    1.850529    0.416974
      7          1           0       -0.345497    1.840246   -0.224385
      8          1           0       -0.462834   -0.460012   -1.162723
      9          1           0       -2.609090   -1.748351   -1.045015
     10          1           0       -4.497746    1.555919    0.938931
     11          1           0       -2.357651    2.855036    0.827694
     12          7           0       -4.906372   -0.912927    0.019223
     13          8           0       -5.870510   -0.365201    0.549384
     14          8           0       -4.910340   -2.045051   -0.459230
     15          6           0        2.405336    2.303529   -0.273261
     16          6           0        2.933232    1.607359   -1.365595
     17          6           0        3.504524    0.343095   -1.192942
     18          6           0        3.531302   -0.197530    0.091698
     19          6           0        3.013612    0.471249    1.199859
     20          6           0        2.447137    1.734256    1.003728
     21          1           0        1.963414    3.285151   -0.416500
     22          1           0        2.902143    2.047007   -2.358463
     23          1           0        3.920498   -0.217769   -2.021082
     24          1           0        3.059093    0.007104    2.177570
     25          1           0        2.037930    2.272614    1.853885
     26          7           0        4.133554   -1.535284    0.286904
     27          8           0        4.144911   -1.989723    1.428830
     28          8           0        4.582838   -2.104046   -0.705714
 ---------------------------------------------------------------------

 SCF Done:  E(RHF) =  -868.336657783     A.U. after   16 cycles
 E2 =    -0.2601686760D+01 EUMP2 =    -0.87093834454325D+03

 The electronic state is 1-A.
 Alpha  occ. eigenvalues --  -20.61641 -20.61632 -20.60904 -20.60894 -15.86699
 Alpha  occ. eigenvalues --  -15.85958 -11.32336 -11.31376 -11.28895 -11.28868
 Alpha  occ. eigenvalues --  -11.28731 -11.28007 -11.27995 -11.27983 -11.27930
 Alpha  occ. eigenvalues --  -11.27648 -11.27031 -11.26935  -1.60710  -1.59977
 Alpha  occ. eigenvalues --   -1.40254  -1.39528  -1.20541  -1.19559  -1.09915
 Alpha  occ. eigenvalues --   -1.08944  -1.05944  -1.04972  -0.96692  -0.95769
 Alpha  occ. eigenvalues --   -0.87336  -0.86368  -0.83485  -0.82604  -0.78468
 Alpha  occ. eigenvalues --   -0.77639  -0.72907  -0.72174  -0.72042  -0.71695
 Alpha  occ. eigenvalues --   -0.71301  -0.70669  -0.66171  -0.65919  -0.65210
 Alpha  occ. eigenvalues --   -0.64990  -0.63247  -0.62319  -0.56511  -0.55695
 Alpha  occ. eigenvalues --   -0.54091  -0.54009  -0.53296  -0.53060  -0.49689
 Alpha  occ. eigenvalues --   -0.49648  -0.48939  -0.48925  -0.45598  -0.44922
 Alpha  occ. eigenvalues --   -0.38560  -0.37744  -0.37351  -0.36582
 Alpha virt. eigenvalues --    0.03974   0.04889   0.10052   0.11063   0.15279
 Alpha virt. eigenvalues --    0.16397   0.19823   0.21683   0.26125   0.26556
 Alpha virt. eigenvalues --    0.27027   0.29066   0.29896   0.31427   0.31968

 Mulliken charges:
               1
     1  C   -0.173168
     2  C   -0.223280
     3  C   -0.170187
     4  C    0.158274
     5  C   -0.170227
     6  C   -0.222050
     7  H    0.226633
     8  H    0.225531
     9  H    0.277491
    10  H    0.275557
    11  H    0.219410
    12  N    0.487959
    13  O   -0.460561
    14  O   -0.459004
    15  C   -0.187589
    16  C   -0.219027
    17  C   -0.173619
    18  C    0.158860
    19  C   -0.169124
    20  C   -0.217473
    21  H    0.226695
    22  H    0.228021
    23  H    0.279507
    24  H    0.280459
    25  H    0.226983
    26  N    0.487662
    27  O   -0.456187
    28  O   -0.457546
 Sum of Mulliken charges =  -0.00000

 Dipole moment (field-independent basis, Debye):
    X=              2.6522    Y=              7.2052    Z=             -0.8957  Tot=              7.7299
 Quadrupole moment (field-independent basis, Debye-Ang):
   XX=           -151.4474   YY=           -105.5805   ZZ=            -99.4951
   XY=              4.6550   XZ=             -4.1669   YZ=              2.8319

 Normal termination of Gaussian 16 at Thu May  6 01:48:58 2021.
