 Gaussian 16, Revision A.03,
 Gaussian 16:  EM64L-G16RevA.03 25-Dec-2016

 -------------
 #p 6-31g* mp2
 -------------

 ------------------------------------------------------
 Input file generated by CHIRIPA (05-May-2021 14:51:13)
 ------------------------------------------------------
 Symbolic Z-matrix:
 Charge =  0 Multiplicity = 1

                         Standard orientation:
 ---------------------------------------------------------------------
 Center     Atomic      Atomic             Coordinates (Angstroms)
 Number     Number       Type             X           Y           Z
 ---------------------------------------------------------------------
      1          6           0       -1.621546   -1.492741   -0.265099
      2          6           0       -1.088078   -2.540218    0.712750
      3          6           0        0.078524   -3.344825    0.138781
      4          1           0       -1.939058   -1.992399   -1.190558
      5          1           0       -0.805724   -0.810776   -0.542142
      6          1           0       -1.904998   -3.219172    0.988937
      7          1           0       -0.771978   -2.038030    1.636061
      8          1           0        0.911991   -2.683807   -0.120042
      9          1           0       -0.227467   -3.871660   -0.770842
     10          1           0        0.444339   -4.087786    0.854358
     11          6           0       -2.788030   -0.680268    0.294305
     12          6           0       -3.321498    0.367209   -0.683544
     13          6           0       -4.488100    1.171817   -0.109576
     14          1           0       -3.603852   -1.362233    0.571347
     15          1           0       -2.470518   -0.180609    1.219763
     16          1           0       -3.637598   -0.134979   -1.606855
     17          1           0       -2.504578    1.046163   -0.959732
     18          1           0       -4.182109    1.698652    0.800048
     19          1           0       -5.321567    0.510798    0.149248
     20          1           0       -4.853915    1.914777   -0.825152
     21          6           0        2.298334    0.354854   -0.213020
     22          6           0        3.722877   -0.155548    0.006416
     23          6           0        3.894245   -1.620866   -0.395172
     24          1           0        1.599710   -0.268453    0.361746
     25          1           0        2.030523    0.230024   -1.271362
     26          1           0        3.988421   -0.028516    1.063754
     27          1           0        4.418212    0.469166   -0.568788
     28          1           0        3.655848   -1.760382   -1.454561
     29          1           0        3.223615   -2.260891    0.187257
     30          1           0        4.919976   -1.965066   -0.230064
     31          6           0        2.111242    1.818154    0.183814
     32          6           0        0.686698    2.328557   -0.035621
     33          6           0        0.515331    3.793874    0.365968
     34          1           0        2.379054    1.942984    1.242156
     35          1           0        2.809867    2.441462   -0.390952
     36          1           0       -0.008636    1.703843    0.539582
     37          1           0        0.421154    2.201524   -1.092959
     38          1           0        1.185961    4.433899   -0.216463
     39          1           0        0.753729    3.933390    1.425355
     40          1           0       -0.510400    4.138075    0.200859
 ---------------------------------------------------------------------

 SCF Done:  E(RHF) =  -470.732396284     A.U. after   11 cycles
 E2 =    -0.1585432493D+01 EUMP2 =    -0.47231782877683D+03

 The electronic state is 1-A.
 Alpha  occ. eigenvalues --  -11.21718 -11.21665 -11.21564 -11.21539 -11.21505
 Alpha  occ. eigenvalues --  -11.21446 -11.21344 -11.21257 -11.21155 -11.21079
 Alpha  occ. eigenvalues --  -11.21038 -11.20968  -1.08551  -1.08360  -1.03630
 Alpha  occ. eigenvalues --   -1.03470  -0.96068  -0.95923  -0.87093  -0.86932
 Alpha  occ. eigenvalues --   -0.79734  -0.79505  -0.78486  -0.78072  -0.65331
 Alpha  occ. eigenvalues --   -0.64859  -0.61149  -0.60792  -0.59446  -0.59277
 Alpha  occ. eigenvalues --   -0.57735  -0.57497  -0.55402  -0.55172  -0.52749
 Alpha  occ. eigenvalues --   -0.52660  -0.52524  -0.52292  -0.50104  -0.49778
 Alpha  occ. eigenvalues --   -0.48170  -0.47728  -0.46802  -0.46596  -0.46267
 Alpha  occ. eigenvalues --   -0.45807  -0.45700  -0.45020  -0.43863  -0.43728
 Alpha virt. eigenvalues --    0.19921   0.21951   0.23643   0.24927   0.25220
 Alpha virt. eigenvalues --    0.26321   0.26487   0.27804   0.28587   0.30068
 Alpha virt. eigenvalues --    0.31066   0.31302   0.31525   0.31783   0.32071

 Mulliken charges:
               1
     1  C   -0.305868
     2  C   -0.299046
     3  C   -0.485138
     4  H    0.149265
     5  H    0.157753
     6  H    0.151951
     7  H    0.149998
     8  H    0.165315
     9  H    0.155239
    10  H    0.159132
    11  C   -0.297814
    12  C   -0.302791
    13  C   -0.475587
    14  H    0.149359
    15  H    0.148629
    16  H    0.151627
    17  H    0.155630
    18  H    0.154856
    19  H    0.155061
    20  H    0.159966
    21  C   -0.304763
    22  C   -0.299573
    23  C   -0.480551
    24  H    0.155102
    25  H    0.150080
    26  H    0.151917
    27  H    0.152227
    28  H    0.155363
    29  H    0.160524
    30  H    0.160725
    31  C   -0.298045
    32  C   -0.303929
    33  C   -0.476092
    34  H    0.149702
    35  H    0.150275
    36  H    0.154821
    37  H    0.152749
    38  H    0.155684
    39  H    0.155424
    40  H    0.160821
 Sum of Mulliken charges =  -0.00000

 Dipole moment (field-independent basis, Debye):
    X=              0.0726    Y=              0.0393    Z=             -0.0229  Tot=              0.0856
 Quadrupole moment (field-independent basis, Debye-Ang):
   XX=            -85.1320   YY=            -85.8048   ZZ=            -83.8799
   XY=              1.3440   XZ=              0.3420   YZ=             -0.4121

 Normal termination of Gaussian 16 at Thu May  6 02:21:58 2021.
