 Gaussian 16, Revision A.03,
 Gaussian 16:  EM64L-G16RevA.03 25-Dec-2016

 -------------
 #p 6-31g* mp2
 -------------

 ------------------------------------------------------
 Input file generated by CHIRIPA (05-May-2021 14:55:18)
 ------------------------------------------------------
 Symbolic Z-matrix:
 Charge =  0 Multiplicity = 1

                         Standard orientation:
 ---------------------------------------------------------------------
 Center     Atomic      Atomic             Coordinates (Angstroms)
 Number     Number       Type             X           Y           Z
 ---------------------------------------------------------------------
      1          6           0        1.488845    1.566719    0.977248
      2          6           0        2.318751    1.889011   -0.101596
      3          6           0        3.273673    0.976640   -0.560129
      4          6           0        3.371946   -0.254453    0.086433
      5          6           0        2.559634   -0.604906    1.163755
      6          6           0        1.611719    0.322982    1.605373
      7          1           0        0.749760    2.281498    1.326877
      8          1           0        2.225560    2.854167   -0.591325
      9          1           0        3.928992    1.200252   -1.393179
     10          1           0        2.676067   -1.574890    1.631722
     11          1           0        0.968548    0.069972    2.443443
     12          7           0        4.379171   -1.228553   -0.390042
     13          8           0        4.445880   -2.306504    0.196650
     14          8           0        5.082852   -0.895656   -1.341172
     15          6           0       -4.432065   -0.526537   -0.450472
     16          6           0       -5.678728   -0.905603    0.349606
     17          6           0       -6.324582   -2.201716   -0.141066
     18          1           0       -4.701382   -0.425177   -1.510726
     19          1           0       -3.702897   -1.346340   -0.390186
     20          1           0       -6.404769   -0.084748    0.288970
     21          1           0       -5.406450   -1.005886    1.408106
     22          1           0       -5.620020   -3.036192   -0.064618
     23          1           0       -6.624012   -2.109821   -1.190113
     24          1           0       -7.213998   -2.453896    0.444769
     25          6           0       -3.775151    0.766944    0.028169
     26          6           0       -2.528487    1.146011   -0.771908
     27          6           0       -1.882634    2.442124   -0.281236
     28          1           0       -4.504318    1.586748   -0.032116
     29          1           0       -3.505834    0.665585    1.088424
     30          1           0       -2.800765    1.246293   -1.830409
     31          1           0       -1.802446    0.325157   -0.711274
     32          1           0       -1.583203    2.350229    0.767810
     33          1           0       -2.587195    3.276600   -0.357685
     34          1           0       -0.993217    2.694304   -0.867071
 ---------------------------------------------------------------------

 SCF Done:  E(RHF) =  -669.535056742     A.U. after   15 cycles
 E2 =    -0.2091712274D+01 EUMP2 =    -0.67162676901629D+03

 The electronic state is 1-A.
 Alpha  occ. eigenvalues --  -20.60751 -20.60745 -15.85806 -11.31163 -11.27754
 Alpha  occ. eigenvalues --  -11.27747 -11.27433 -11.26748 -11.26735 -11.22314
 Alpha  occ. eigenvalues --  -11.22114 -11.22016 -11.22006 -11.21844 -11.21388
 Alpha  occ. eigenvalues --   -1.59827  -1.39381  -1.19345  -1.09009  -1.08731
 Alpha  occ. eigenvalues --   -1.04751  -1.04137  -0.96623  -0.95562  -0.87641
 Alpha  occ. eigenvalues --   -0.86145  -0.82405  -0.80205  -0.78786  -0.77455
 Alpha  occ. eigenvalues --   -0.72024  -0.71151  -0.70466  -0.65638  -0.64995
 Alpha  occ. eigenvalues --   -0.64757  -0.62102  -0.61545  -0.59995  -0.58198
 Alpha  occ. eigenvalues --   -0.56094  -0.55099  -0.53355  -0.53051  -0.52974
 Alpha  occ. eigenvalues --   -0.52839  -0.50525  -0.48782  -0.48779  -0.48513
 Alpha  occ. eigenvalues --   -0.47213  -0.46340  -0.46239  -0.44788  -0.44384
 Alpha  occ. eigenvalues --   -0.37282  -0.36361
 Alpha virt. eigenvalues --    0.05075   0.11219   0.16521   0.20413   0.22551
 Alpha virt. eigenvalues --    0.24048   0.25651   0.26456   0.26479   0.27347
 Alpha virt. eigenvalues --    0.29043   0.29726   0.31163   0.31318   0.32085

 Mulliken charges:
               1
     1  C   -0.167354
     2  C   -0.221470
     3  C   -0.170772
     4  C    0.158069
     5  C   -0.170677
     6  C   -0.221517
     7  H    0.230366
     8  H    0.223509
     9  H    0.275534
    10  H    0.275431
    11  H    0.222688
    12  N    0.488133
    13  O   -0.460653
    14  O   -0.460524
    15  C   -0.298922
    16  C   -0.299905
    17  C   -0.476062
    18  H    0.151397
    19  H    0.150682
    20  H    0.152395
    21  H    0.151200
    22  H    0.156065
    23  H    0.156172
    24  H    0.161254
    25  C   -0.298453
    26  C   -0.300655
    27  C   -0.476758
    28  H    0.150662
    29  H    0.146801
    30  H    0.155497
    31  H    0.155870
    32  H    0.145124
    33  H    0.158648
    34  H    0.158227
 Sum of Mulliken charges =  -0.00000

 Dipole moment (field-independent basis, Debye):
    X=             -3.6914    Y=              3.3974    Z=              1.6095  Tot=              5.2687
 Quadrupole moment (field-independent basis, Debye-Ang):
   XX=           -118.6072   YY=            -95.4474   ZZ=            -92.0254
   XY=             12.9389   XZ=              4.6282   YZ=             -3.4146

 Normal termination of Gaussian 16 at Thu May  6 10:45:42 2021.
