 Gaussian 16, Revision A.03,
 Gaussian 16:  EM64L-G16RevA.03 25-Dec-2016

 -------------
 #p 6-31g* mp2
 -------------

 ------------------------------------------------------
 Input file generated by CHIRIPA (05-May-2021 14:51:11)
 ------------------------------------------------------
 Symbolic Z-matrix:
 Charge =  0 Multiplicity = 1

                         Standard orientation:
 ---------------------------------------------------------------------
 Center     Atomic      Atomic             Coordinates (Angstroms)
 Number     Number       Type             X           Y           Z
 ---------------------------------------------------------------------
      1          6           0        4.034567   -0.104195    0.018246
      2          6           0        3.603492   -1.565678   -0.109139
      3          6           0        4.777604   -2.539545   -0.005045
      4          1           0        4.772024    0.123421   -0.763607
      5          1           0        4.545518    0.037564    0.980654
      6          1           0        3.092283   -1.704329   -1.070418
      7          1           0        2.866833   -1.789788    0.672989
      8          1           0        5.284351   -2.430355    0.959261
      9          1           0        5.511083   -2.344410   -0.794052
     10          1           0        4.446855   -3.578624   -0.098750
     11          6           0        2.871895    0.881457   -0.083791
     12          6           0        3.302971    2.342940    0.043594
     13          6           0        2.128859    3.316807   -0.060500
     14          1           0        2.360945    0.739698   -1.046199
     15          1           0        2.134439    0.653841    0.698062
     16          1           0        4.039630    2.567050   -0.738534
     17          1           0        3.814180    2.481591    1.004873
     18          1           0        1.395380    3.121672    0.728507
     19          1           0        1.622111    3.207617   -1.024806
     20          1           0        2.459608    4.355886    0.033205
     21          6           0       -2.729166   -0.192341    0.176410
     22          6           0       -1.733273   -1.326147   -0.069896
     23          6           0       -0.288918   -0.918083    0.221849
     24          1           0       -2.456537    0.668886   -0.448814
     25          1           0       -2.644818    0.140088    1.220331
     26          1           0       -1.820445   -1.657272   -1.112668
     27          1           0       -2.008417   -2.184844    0.555845
     28          1           0       -0.179807   -0.607304    1.265933
     29          1           0        0.009233   -0.076734   -0.412059
     30          1           0        0.406174   -1.743511    0.039163
     31          6           0       -4.177297   -0.584921   -0.110865
     32          6           0       -5.173189    0.548885    0.135441
     33          6           0       -6.617545    0.140820   -0.156304
     34          1           0       -4.261644   -0.917351   -1.154786
     35          1           0       -4.449925   -1.446149    0.514359
     36          1           0       -4.898045    1.407581   -0.490300
     37          1           0       -5.086017    0.880010    1.178213
     38          1           0       -6.915695   -0.700528    0.477604
     39          1           0       -6.726656   -0.169959   -1.200389
     40          1           0       -7.312637    0.966249    0.026382
 ---------------------------------------------------------------------

 SCF Done:  E(RHF) =  -470.731677676     A.U. after   11 cycles
 E2 =    -0.1584100339D+01 EUMP2 =    -0.47231577801453D+03

 The electronic state is 1-A.
 Alpha  occ. eigenvalues --  -11.21576 -11.21534 -11.21533 -11.21511 -11.21366
 Alpha  occ. eigenvalues --  -11.21319 -11.21305 -11.21213 -11.21053 -11.21047
 Alpha  occ. eigenvalues --  -11.21035 -11.20906  -1.08411  -1.08342  -1.03483
 Alpha  occ. eigenvalues --   -1.03478  -0.95991  -0.95876  -0.86998  -0.86920
 Alpha  occ. eigenvalues --   -0.79630  -0.79552  -0.78301  -0.78008  -0.65042
 Alpha  occ. eigenvalues --   -0.64976  -0.60887  -0.60880  -0.59463  -0.59162
 Alpha  occ. eigenvalues --   -0.57696  -0.57407  -0.55267  -0.55179  -0.52805
 Alpha  occ. eigenvalues --   -0.52609  -0.52486  -0.52133  -0.49914  -0.49852
 Alpha  occ. eigenvalues --   -0.48121  -0.47619  -0.46634  -0.46573  -0.45957
 Alpha  occ. eigenvalues --   -0.45735  -0.45533  -0.45359  -0.43756  -0.43602
 Alpha virt. eigenvalues --    0.22069   0.23071   0.23972   0.24314   0.25682
 Alpha virt. eigenvalues --    0.26239   0.27060   0.27562   0.27920   0.29766
 Alpha virt. eigenvalues --    0.30248   0.30826   0.31575   0.31853   0.32258

 Mulliken charges:
               1
     1  C   -0.297924
     2  C   -0.302566
     3  C   -0.475321
     4  H    0.148905
     5  H    0.148856
     6  H    0.151827
     7  H    0.155440
     8  H    0.154974
     9  H    0.154971
    10  H    0.159757
    11  C   -0.302626
    12  C   -0.298954
    13  C   -0.476138
    14  H    0.148955
    15  H    0.158566
    16  H    0.151242
    17  H    0.151396
    18  H    0.155504
    19  H    0.154239
    20  H    0.160273
    21  C   -0.298307
    22  C   -0.300970
    23  C   -0.480124
    24  H    0.149630
    25  H    0.149002
    26  H    0.151240
    27  H    0.150998
    28  H    0.151894
    29  H    0.160311
    30  H    0.165246
    31  C   -0.298104
    32  C   -0.299567
    33  C   -0.475667
    34  H    0.149373
    35  H    0.149517
    36  H    0.151940
    37  H    0.151808
    38  H    0.155108
    39  H    0.155121
    40  H    0.160171
 Sum of Mulliken charges =  -0.00000

 Dipole moment (field-independent basis, Debye):
    X=              0.0175    Y=             -0.0008    Z=              0.0063  Tot=              0.0186
 Quadrupole moment (field-independent basis, Debye-Ang):
   XX=            -86.8371   YY=            -85.5337   ZZ=            -82.8284
   XY=              0.4438   XZ=             -0.4116   YZ=             -0.3199

 Normal termination of Gaussian 16 at Wed May  5 15:12:54 2021.
