 Gaussian 16, Revision A.03,
 Gaussian 16:  EM64L-G16RevA.03 25-Dec-2016

 -------------
 #p 6-31g* mp2
 -------------

 ------------------------------------------------------
 Input file generated by CHIRIPA (05-May-2021 14:53:17)
 ------------------------------------------------------
 Symbolic Z-matrix:
 Charge =  0 Multiplicity = 1

                         Standard orientation:
 ---------------------------------------------------------------------
 Center     Atomic      Atomic             Coordinates (Angstroms)
 Number     Number       Type             X           Y           Z
 ---------------------------------------------------------------------
      1          6           0       -4.069089   -0.510638    0.006494
      2          6           0       -5.152871   -1.228770   -0.798297
      3          6           0       -5.146885   -2.741970   -0.579245
      4          1           0       -3.086614   -0.918429   -0.268088
      5          1           0       -4.210423   -0.728049    1.074273
      6          1           0       -5.010362   -1.008949   -1.864123
      7          1           0       -6.132864   -0.819089   -0.521908
      8          1           0       -5.311859   -2.979006    0.476785
      9          1           0       -4.182979   -3.169944   -0.873057
     10          1           0       -5.929518   -3.235365   -1.163973
     11          6           0       -4.062367    1.002714   -0.201952
     12          6           0       -2.978585    1.720846    0.602838
     13          6           0       -2.984571    3.234046    0.383786
     14          1           0       -3.921033    1.220125   -1.269731
     15          1           0       -5.044842    1.410505    0.072629
     16          1           0       -1.998592    1.311165    0.326449
     17          1           0       -3.121094    1.501025    1.668665
     18          1           0       -3.948477    3.662020    0.677598
     19          1           0       -2.819597    3.471081   -0.672244
     20          1           0       -2.201938    3.727441    0.968514
     21          6           0        0.837113   -0.476390    0.978092
     22          6           0        1.123321    0.566078    0.090473
     23          6           0        2.415863    0.733081   -0.415485
     24          6           0        3.402498   -0.164744   -0.010826
     25          6           0        3.148626   -1.213268    0.872031
     26          6           0        1.848894   -1.361176    1.365356
     27          1           0       -0.169758   -0.598705    1.366226
     28          1           0        0.339541    1.254720   -0.212022
     29          1           0        2.665041    1.531399   -1.103974
     30          1           0        3.950821   -1.883864    1.155232
     31          1           0        1.629514   -2.171683    2.054554
     32          7           0        4.774661    0.001948   -0.539774
     33          8           0        5.626257   -0.802444   -0.167784
     34          8           0        4.972583    0.933834   -1.316337
 ---------------------------------------------------------------------

 SCF Done:  E(RHF) =  -669.535518965     A.U. after   15 cycles
 E2 =    -0.2091516390D+01 EUMP2 =    -0.67162703535516D+03

 The electronic state is 1-A.
 Alpha  occ. eigenvalues --  -20.60730 -20.60725 -15.85783 -11.31140 -11.27711
 Alpha  occ. eigenvalues --  -11.27707 -11.27425 -11.26718 -11.26695 -11.22848
 Alpha  occ. eigenvalues --  -11.22381 -11.22341 -11.22294 -11.22065 -11.21716
 Alpha  occ. eigenvalues --   -1.59806  -1.39359  -1.19311  -1.09395  -1.08705
 Alpha  occ. eigenvalues --   -1.04717  -1.04449  -0.96864  -0.95541  -0.87881
 Alpha  occ. eigenvalues --   -0.86119  -0.82374  -0.80545  -0.79212  -0.77427
 Alpha  occ. eigenvalues --   -0.72002  -0.71129  -0.70412  -0.66058  -0.64962
 Alpha  occ. eigenvalues --   -0.64728  -0.62157  -0.61755  -0.60241  -0.58482
 Alpha  occ. eigenvalues --   -0.56141  -0.55200  -0.53556  -0.53283  -0.53044
 Alpha  occ. eigenvalues --   -0.52819  -0.50804  -0.48854  -0.48757  -0.48743
 Alpha  occ. eigenvalues --   -0.47574  -0.46739  -0.46646  -0.44767  -0.44701
 Alpha  occ. eigenvalues --   -0.37288  -0.36321
 Alpha virt. eigenvalues --    0.05107   0.11324   0.16592   0.19074   0.22589
 Alpha virt. eigenvalues --    0.23358   0.24963   0.25695   0.26542   0.27997
 Alpha virt. eigenvalues --    0.29468   0.30566   0.31046   0.31094   0.31438

 Mulliken charges:
               1
     1  C   -0.299966
     2  C   -0.300158
     3  C   -0.476478
     4  H    0.145772
     5  H    0.149188
     6  H    0.154154
     7  H    0.154216
     8  H    0.155180
     9  H    0.155263
    10  H    0.163270
    11  C   -0.297913
    12  C   -0.306393
    13  C   -0.477194
    14  H    0.152086
    15  H    0.154065
    16  H    0.143005
    17  H    0.154156
    18  H    0.160535
    19  H    0.156834
    20  H    0.161690
    21  C   -0.174053
    22  C   -0.223837
    23  C   -0.171020
    24  C    0.158645
    25  C   -0.171116
    26  C   -0.218671
    27  H    0.228602
    28  H    0.228877
    29  H    0.275597
    30  H    0.275420
    31  H    0.223375
    32  N    0.487948
    33  O   -0.460527
    34  O   -0.460552
 Sum of Mulliken charges =  -0.00000

 Dipole moment (field-independent basis, Debye):
    X=             -5.1039    Y=             -0.5466    Z=              1.8428  Tot=              5.4539
 Quadrupole moment (field-independent basis, Debye-Ang):
   XX=           -126.3499   YY=            -92.5087   ZZ=            -93.3642
   XY=             -2.9920   XZ=              6.9521   YZ=             -2.5731

 Normal termination of Gaussian 16 at Thu May  6 10:40:55 2021.
