 Gaussian 16, Revision A.03,
 Gaussian 16:  EM64L-G16RevA.03 25-Dec-2016

 -------------
 #p 6-31g* mp2
 -------------

 ------------------------------------------------------
 Input file generated by CHIRIPA (05-May-2021 14:57:23)
 ------------------------------------------------------
 Symbolic Z-matrix:
 Charge =  0 Multiplicity = 1

                         Standard orientation:
 ---------------------------------------------------------------------
 Center     Atomic      Atomic             Coordinates (Angstroms)
 Number     Number       Type             X           Y           Z
 ---------------------------------------------------------------------
      1          6           0        1.867962    0.307248    1.260882
      2          6           0        2.851561    1.301581    1.279718
      3          6           0        4.092717    1.084089    0.674098
      4          6           0        4.317390   -0.144971    0.055855
      5          6           0        3.357626   -1.155357    0.020310
      6          6           0        2.123683   -0.915891    0.632346
      7          1           0        0.906603    0.484736    1.733834
      8          1           0        2.655749    2.252451    1.767109
      9          1           0        4.872028    1.836479    0.673877
     10          1           0        3.582164   -2.093080   -0.473326
     11          1           0        1.361677   -1.689927    0.616165
     12          7           0        5.627528   -0.386851   -0.588685
     13          8           0        5.800692   -1.478224   -1.126789
     14          8           0        6.456443    0.519516   -0.543565
     15          6           0       -6.110850   -1.384922    0.166708
     16          6           0       -6.282469   -0.058584   -0.243040
     17          6           0       -5.176322    0.776065   -0.428375
     18          6           0       -3.907203    0.249156   -0.193868
     19          6           0       -3.703671   -1.067922    0.214997
     20          6           0       -4.824267   -1.884477    0.394018
     21          1           0       -6.975744   -2.026270    0.308228
     22          1           0       -7.280469    0.332077   -0.420315
     23          1           0       -5.280467    1.806742   -0.745039
     24          1           0       -2.696404   -1.428904    0.383885
     25          1           0       -4.687976   -2.914124    0.712292
     26          7           0       -2.728526    1.123184   -0.386733
     27          8           0       -1.620909    0.634960   -0.173523
     28          8           0       -2.934615    2.279923   -0.747455
 ---------------------------------------------------------------------

 SCF Done:  E(RHF) =  -868.339144905     A.U. after   16 cycles
 E2 =    -0.2598549009D+01 EUMP2 =    -0.87093769391322D+03

 The electronic state is 1-A.
 Alpha  occ. eigenvalues --  -20.61718 -20.61653 -20.60068 -20.60062 -15.86730
 Alpha  occ. eigenvalues --  -15.85118 -11.31930 -11.30285 -11.28521 -11.28443
 Alpha  occ. eigenvalues --  -11.28159 -11.27458 -11.27417 -11.26884 -11.26860
 Alpha  occ. eigenvalues --  -11.26432 -11.25802 -11.25757  -1.60752  -1.59149
 Alpha  occ. eigenvalues --   -1.40315  -1.38708  -1.20080  -1.18439  -1.09499
 Alpha  occ. eigenvalues --   -1.07834  -1.05460  -1.03836  -0.96366  -0.94707
 Alpha  occ. eigenvalues --   -0.86864  -0.85225  -0.83209  -0.81567  -0.78283
 Alpha  occ. eigenvalues --   -0.76671  -0.72964  -0.72063  -0.71342  -0.71184
 Alpha  occ. eigenvalues --   -0.70470  -0.69463  -0.65735  -0.65456  -0.64085
 Alpha  occ. eigenvalues --   -0.63840  -0.62817  -0.61212  -0.55950  -0.54226
 Alpha  occ. eigenvalues --   -0.53791  -0.53549  -0.52141  -0.51933  -0.49721
 Alpha  occ. eigenvalues --   -0.49679  -0.48106  -0.48080  -0.45754  -0.44160
 Alpha  occ. eigenvalues --   -0.38038  -0.37055  -0.36320  -0.35449
 Alpha virt. eigenvalues --    0.04233   0.05894   0.10603   0.12226   0.15755
 Alpha virt. eigenvalues --    0.17455   0.20598   0.22302   0.26448   0.27246
 Alpha virt. eigenvalues --    0.28372   0.29279   0.30586   0.31679   0.32204

 Mulliken charges:
               1
     1  C   -0.160454
     2  C   -0.219555
     3  C   -0.171321
     4  C    0.157084
     5  C   -0.172038
     6  C   -0.216378
     7  H    0.234151
     8  H    0.222734
     9  H    0.272971
    10  H    0.271549
    11  H    0.217661
    12  N    0.488380
    13  O   -0.463547
    14  O   -0.462577
    15  C   -0.170063
    16  C   -0.218215
    17  C   -0.170382
    18  C    0.158520
    19  C   -0.170278
    20  C   -0.218000
    21  H    0.228121
    22  H    0.225961
    23  H    0.277136
    24  H    0.269426
    25  H    0.224659
    26  N    0.490397
    27  O   -0.470470
    28  O   -0.455475
 Sum of Mulliken charges =  -0.00000

 Dipole moment (field-independent basis, Debye):
    X=             -9.3136    Y=             -2.1110    Z=              2.9706  Tot=             10.0012
 Quadrupole moment (field-independent basis, Debye-Ang):
   XX=           -110.9547   YY=            -99.8855   ZZ=           -105.7169
   XY=             14.7504   XZ=              9.2606   YZ=              0.7057

 Normal termination of Gaussian 16 at Thu May  6 19:36:44 2021.
