 Gaussian 16, Revision A.03,
 Gaussian 16:  EM64L-G16RevA.03 25-Dec-2016

 -------------
 #p 6-31g* mp2
 -------------

 ------------------------------------------------------
 Input file generated by CHIRIPA (05-May-2021 14:53:11)
 ------------------------------------------------------
 Symbolic Z-matrix:
 Charge =  0 Multiplicity = 1

                         Standard orientation:
 ---------------------------------------------------------------------
 Center     Atomic      Atomic             Coordinates (Angstroms)
 Number     Number       Type             X           Y           Z
 ---------------------------------------------------------------------
      1          6           0       -4.044200    0.412383   -0.386536
      2          6           0       -2.588968   -0.026394   -0.219927
      3          6           0       -1.595973    0.998336   -0.769183
      4          1           0       -4.247888    0.588049   -1.451710
      5          1           0       -4.190159    1.375159    0.122534
      6          1           0       -2.446136   -0.988732   -0.727983
      7          1           0       -2.388773   -0.201221    0.844956
      8          1           0       -1.709472    1.958463   -0.255495
      9          1           0       -1.767160    1.166477   -1.837371
     10          1           0       -0.561725    0.664507   -0.639765
     11          6           0       -5.048802   -0.601631    0.157779
     12          6           0       -6.504034   -0.162854   -0.008830
     13          6           0       -7.497029   -1.187584    0.540426
     14          1           0       -4.902843   -1.564408   -0.351291
     15          1           0       -4.845114   -0.777297    1.222954
     16          1           0       -6.704229    0.011973   -1.073712
     17          1           0       -6.646866    0.799483    0.499227
     18          1           0       -7.325842   -1.355726    1.608614
     19          1           0       -7.383530   -2.147711    0.026738
     20          1           0       -8.531277   -0.853755    0.411008
     21          6           0        1.806847    1.875590    0.362359
     22          6           0        2.463559    1.361259    1.485174
     23          6           0        3.432208    0.362841    1.345786
     24          6           0        3.720665   -0.100253    0.062966
     25          6           0        3.083683    0.392085   -1.075081
     26          6           0        2.118455    1.390216   -0.911938
     27          1           0        1.055707    2.651074    0.479866
     28          1           0        2.223595    1.736311    2.476032
     29          1           0        3.955892   -0.053074    2.197950
     30          1           0        3.344338   -0.001760   -2.049947
     31          1           0        1.610046    1.787793   -1.785721
     32          7           0        4.744318   -1.157083   -0.097173
     33          8           0        4.980343   -1.548205   -1.238204
     34          8           0        5.291250   -1.574293    0.921374
 ---------------------------------------------------------------------

 SCF Done:  E(RHF) =  -669.534310004     A.U. after   15 cycles
 E2 =    -0.2092382003D+01 EUMP2 =    -0.67162669200648D+03

 The electronic state is 1-A.
 Alpha  occ. eigenvalues --  -20.60770 -20.60764 -15.85824 -11.31194 -11.27779
 Alpha  occ. eigenvalues --  -11.27766 -11.27483 -11.26774 -11.26743 -11.22154
 Alpha  occ. eigenvalues --  -11.21923 -11.21853 -11.21756 -11.21735 -11.21332
 Alpha  occ. eigenvalues --   -1.59845  -1.39399  -1.19383  -1.08877  -1.08767
 Alpha  occ. eigenvalues --   -1.04788  -1.03991  -0.96474  -0.95595  -0.87507
 Alpha  occ. eigenvalues --   -0.86171  -0.82430  -0.80072  -0.78664  -0.77476
 Alpha  occ. eigenvalues --   -0.72043  -0.71170  -0.70477  -0.65499  -0.65032
 Alpha  occ. eigenvalues --   -0.64788  -0.62135  -0.61397  -0.59856  -0.58071
 Alpha  occ. eigenvalues --   -0.55809  -0.55223  -0.53637  -0.52967  -0.52851
 Alpha  occ. eigenvalues --   -0.52566  -0.50409  -0.48801  -0.48796  -0.48373
 Alpha  occ. eigenvalues --   -0.47090  -0.46213  -0.46126  -0.44804  -0.44260
 Alpha  occ. eigenvalues --   -0.37263  -0.36365
 Alpha virt. eigenvalues --    0.05050   0.11183   0.16515   0.20838   0.22511
 Alpha virt. eigenvalues --    0.24013   0.26002   0.26387   0.27200   0.27475
 Alpha virt. eigenvalues --    0.28858   0.30038   0.31473   0.31799   0.32240

 Mulliken charges:
               1
     1  C   -0.298641
     2  C   -0.298033
     3  C   -0.488459
     4  H    0.150073
     5  H    0.148186
     6  H    0.155210
     7  H    0.152375
     8  H    0.146991
     9  H    0.153762
    10  H    0.171698
    11  C   -0.298640
    12  C   -0.299834
    13  C   -0.475925
    14  H    0.150964
    15  H    0.149906
    16  H    0.152290
    17  H    0.151529
    18  H    0.155458
    19  H    0.156054
    20  H    0.160969
    21  C   -0.168858
    22  C   -0.219306
    23  C   -0.170746
    24  C    0.158177
    25  C   -0.171831
    26  C   -0.221431
    27  H    0.228985
    28  H    0.223494
    29  H    0.275700
    30  H    0.275794
    31  H    0.226831
    32  N    0.488144
    33  O   -0.460413
    34  O   -0.460474
 Sum of Mulliken charges =  -0.00000

 Dipole moment (field-independent basis, Debye):
    X=             -3.6397    Y=              3.6793    Z=              0.5767  Tot=              5.2074
 Quadrupole moment (field-independent basis, Debye-Ang):
   XX=           -122.8209   YY=            -96.5233   ZZ=            -89.0606
   XY=             14.0478   XZ=              2.9915   YZ=              0.8236

 Normal termination of Gaussian 16 at Wed May  5 23:19:21 2021.
