 Gaussian 16, Revision A.03,
 Gaussian 16:  EM64L-G16RevA.03 25-Dec-2016

 -------------
 #p 6-31g* mp2
 -------------

 ------------------------------------------------------
 Input file generated by CHIRIPA (05-May-2021 14:57:23)
 ------------------------------------------------------
 Symbolic Z-matrix:
 Charge =  0 Multiplicity = 1

                         Standard orientation:
 ---------------------------------------------------------------------
 Center     Atomic      Atomic             Coordinates (Angstroms)
 Number     Number       Type             X           Y           Z
 ---------------------------------------------------------------------
      1          6           0       -2.142728   -1.406787    0.532790
      2          6           0       -3.339286   -1.701475    1.194553
      3          6           0       -4.489111   -0.943535    0.953765
      4          6           0       -4.406288    0.106659    0.040789
      5          6           0       -3.228908    0.425016   -0.634276
      6          6           0       -2.091448   -0.346352   -0.377906
      7          1           0       -1.254320   -2.000789    0.725892
      8          1           0       -3.382046   -2.524436    1.902332
      9          1           0       -5.428487   -1.149830    1.452195
     10          1           0       -3.217207    1.251568   -1.334343
     11          1           0       -1.163552   -0.115204   -0.893295
     12          7           0       -5.617011    0.916164   -0.222370
     13          8           0       -5.517937    1.836166   -1.031331
     14          8           0       -6.642124    0.615324    0.385310
     15          6           0        5.835535    1.790177    0.692577
     16          6           0        6.283885    0.492662    0.424330
     17          6           0        5.390319   -0.492432   -0.006572
     18          6           0        4.049281   -0.143724   -0.159253
     19          6           0        3.571998    1.140134    0.099973
     20          6           0        4.483406    2.109210    0.529830
     21          1           0        6.536608    2.549200    1.026906
     22          1           0        7.333400    0.242044    0.549846
     23          1           0        5.710433   -1.504767   -0.221330
     24          1           0        2.519823    1.359899   -0.034374
     25          1           0        4.132382    3.116056    0.737412
     26          7           0        3.093859   -1.178120   -0.614876
     27          8           0        1.917441   -0.845525   -0.741599
     28          8           0        3.539508   -2.301887   -0.836645
 ---------------------------------------------------------------------

 SCF Done:  E(RHF) =  -868.340327272     A.U. after   16 cycles
 E2 =    -0.2598146447D+01 EUMP2 =    -0.87093847371873D+03

 The electronic state is 1-A.
 Alpha  occ. eigenvalues --  -20.61853 -20.61787 -20.60208 -20.60203 -15.86864
 Alpha  occ. eigenvalues --  -15.85253 -11.31937 -11.30434 -11.28489 -11.28452
 Alpha  occ. eigenvalues --  -11.28142 -11.27414 -11.27401 -11.27002 -11.26941
 Alpha  occ. eigenvalues --  -11.26529 -11.25952 -11.25757  -1.60883  -1.59288
 Alpha  occ. eigenvalues --   -1.40449  -1.38847  -1.20078  -1.18564  -1.09523
 Alpha  occ. eigenvalues --   -1.07961  -1.05438  -1.03936  -0.96409  -0.94838
 Alpha  occ. eigenvalues --   -0.86849  -0.85314  -0.83257  -0.81682  -0.78338
 Alpha  occ. eigenvalues --   -0.76779  -0.73104  -0.72185  -0.71474  -0.71181
 Alpha  occ. eigenvalues --   -0.70610  -0.69597  -0.65737  -0.65434  -0.64192
 Alpha  occ. eigenvalues --   -0.63879  -0.62792  -0.61277  -0.55940  -0.54332
 Alpha  occ. eigenvalues --   -0.53781  -0.53525  -0.52286  -0.51988  -0.49861
 Alpha  occ. eigenvalues --   -0.49805  -0.48243  -0.48210  -0.45917  -0.44295
 Alpha  occ. eigenvalues --   -0.38035  -0.37028  -0.36497  -0.35558
 Alpha virt. eigenvalues --    0.04179   0.05736   0.10631   0.12110   0.15735
 Alpha virt. eigenvalues --    0.17301   0.20696   0.22365   0.26597   0.27203
 Alpha virt. eigenvalues --    0.28477   0.29251   0.30407   0.31489   0.32476

 Mulliken charges:
               1
     1  C   -0.173181
     2  C   -0.219481
     3  C   -0.172701
     4  C    0.157933
     5  C   -0.173613
     6  C   -0.225067
     7  H    0.235826
     8  H    0.221016
     9  H    0.272609
    10  H    0.272271
    11  H    0.239977
    12  N    0.488196
    13  O   -0.462853
    14  O   -0.462722
    15  C   -0.169761
    16  C   -0.218415
    17  C   -0.170444
    18  C    0.157660
    19  C   -0.170187
    20  C   -0.218300
    21  H    0.228411
    22  H    0.225837
    23  H    0.276621
    24  H    0.272569
    25  H    0.226044
    26  N    0.493264
    27  O   -0.475866
    28  O   -0.455641
 Sum of Mulliken charges =  -0.00000

 Dipole moment (field-independent basis, Debye):
    X=              8.2402    Y=              0.7530    Z=              2.5389  Tot=              8.6553
 Quadrupole moment (field-independent basis, Debye-Ang):
   XX=           -111.8411   YY=           -103.2611   ZZ=           -104.5688
   XY=             26.7007   XZ=              0.2722   YZ=             -2.6076

 Normal termination of Gaussian 16 at Wed May  5 21:01:14 2021.
