 Gaussian 16, Revision A.03,
 Gaussian 16:  EM64L-G16RevA.03 25-Dec-2016

 -------------
 #p 6-31g* mp2
 -------------

 ------------------------------------------------------
 Input file generated by CHIRIPA (05-May-2021 14:51:09)
 ------------------------------------------------------
 Symbolic Z-matrix:
 Charge =  0 Multiplicity = 1

                         Standard orientation:
 ---------------------------------------------------------------------
 Center     Atomic      Atomic             Coordinates (Angstroms)
 Number     Number       Type             X           Y           Z
 ---------------------------------------------------------------------
      1          6           0        2.182682    0.607535    0.854165
      2          6           0        1.213274    0.494084    2.031179
      3          6           0        0.746671    1.856038    2.546113
      4          1           0        3.053424    1.203209    1.160639
      5          1           0        1.696081    1.161519    0.039478
      6          1           0        1.701069   -0.060721    2.842883
      7          1           0        0.344828   -0.101550    1.721926
      8          1           0        0.236232    2.413179    1.753871
      9          1           0        1.600178    2.454240    2.881197
     10          1           0        0.054467    1.751508    3.387414
     11          6           0        2.658080   -0.745669    0.328273
     12          6           0        3.627488   -0.632219   -0.848741
     13          6           0        4.094092   -1.994173   -1.363675
     14          1           0        3.144682   -1.299653    1.142960
     15          1           0        1.787338   -1.341343    0.021799
     16          1           0        4.495934   -0.036584   -0.539488
     17          1           0        3.139694   -0.077413   -1.660446
     18          1           0        3.240585   -2.592374   -1.698760
     19          1           0        4.604531   -2.551313   -0.571433
     20          1           0        4.786295   -1.889643   -2.204976
     21          6           0       -3.010530   -0.210483   -0.194977
     22          6           0       -2.925409   -1.719586    0.035996
     23          6           0       -4.113175   -2.264006    0.830109
     24          1           0       -3.069074    0.299931    0.776103
     25          1           0       -3.944449    0.020031   -0.726061
     26          1           0       -1.991267   -1.947335    0.565265
     27          1           0       -2.866867   -2.226456   -0.935740
     28          1           0       -5.052188   -2.065705    0.303294
     29          1           0       -4.171613   -1.784998    1.812828
     30          1           0       -4.031993   -3.344598    0.983694
     31          6           0       -1.830232    0.348618   -0.987462
     32          6           0       -1.915354    1.857721   -1.218434
     33          6           0       -0.727587    2.402140   -2.012546
     34          1           0       -0.896313    0.118103   -0.456376
     35          1           0       -1.771688   -0.161797   -1.958540
     36          1           0       -1.973896    2.364590   -0.246698
     37          1           0       -2.849495    2.085470   -1.747703
     38          1           0       -0.669150    1.923133   -2.995265
     39          1           0        0.211425    2.203840   -1.485733
     40          1           0       -0.808770    3.482733   -2.166131
 ---------------------------------------------------------------------

 SCF Done:  E(RHF) =  -470.732896162     A.U. after   11 cycles
 E2 =    -0.1585021521D+01 EUMP2 =    -0.47231791768310D+03

 The electronic state is 1-A.
 Alpha  occ. eigenvalues --  -11.21674 -11.21662 -11.21652 -11.21608 -11.21450
 Alpha  occ. eigenvalues --  -11.21446 -11.21390 -11.21384 -11.21145 -11.21129
 Alpha  occ. eigenvalues --  -11.21100 -11.21069  -1.08534  -1.08433  -1.03606
 Alpha  occ. eigenvalues --   -1.03550  -0.96038  -0.96015  -0.87053  -0.87033
 Alpha  occ. eigenvalues --   -0.79650  -0.79635  -0.78310  -0.78291  -0.65523
 Alpha  occ. eigenvalues --   -0.64769  -0.61157  -0.60775  -0.59412  -0.59372
 Alpha  occ. eigenvalues --   -0.57686  -0.57593  -0.55399  -0.55260  -0.52724
 Alpha  occ. eigenvalues --   -0.52713  -0.52501  -0.52410  -0.50060  -0.49927
 Alpha  occ. eigenvalues --   -0.48047  -0.47907  -0.46715  -0.46677  -0.46123
 Alpha  occ. eigenvalues --   -0.45806  -0.45654  -0.45396  -0.43835  -0.43823
 Alpha virt. eigenvalues --    0.18558   0.22423   0.23081   0.24844   0.25176
 Alpha virt. eigenvalues --    0.26174   0.26436   0.28447   0.28951   0.29938
 Alpha virt. eigenvalues --    0.30461   0.31420   0.31717   0.31938   0.32295

 Mulliken charges:
               1
     1  C   -0.308128
     2  C   -0.303192
     3  C   -0.478298
     4  H    0.150580
     5  H    0.157816
     6  H    0.152850
     7  H    0.154020
     8  H    0.157082
     9  H    0.155903
    10  H    0.160296
    11  C   -0.299016
    12  C   -0.299900
    13  C   -0.475812
    14  H    0.149774
    15  H    0.150409
    16  H    0.151957
    17  H    0.152503
    18  H    0.155488
    19  H    0.155097
    20  H    0.160348
    21  C   -0.298217
    22  C   -0.301008
    23  C   -0.475687
    24  H    0.150212
    25  H    0.149916
    26  H    0.152115
    27  H    0.152074
    28  H    0.155347
    29  H    0.155421
    30  H    0.160452
    31  C   -0.306177
    32  C   -0.300789
    33  C   -0.483200
    34  H    0.156991
    35  H    0.149650
    36  H    0.153203
    37  H    0.152574
    38  H    0.155512
    39  H    0.160806
    40  H    0.161028
 Sum of Mulliken charges =  -0.00000

 Dipole moment (field-independent basis, Debye):
    X=              0.0022    Y=              0.0025    Z=             -0.0017  Tot=              0.0037
 Quadrupole moment (field-independent basis, Debye-Ang):
   XX=            -84.6166   YY=            -85.8572   ZZ=            -84.1266
   XY=              0.0762   XZ=              1.6213   YZ=              0.0391

 Normal termination of Gaussian 16 at Wed May  5 15:08:50 2021.
