 Gaussian 16, Revision A.03,
 Gaussian 16:  EM64L-G16RevA.03 25-Dec-2016

 -------------
 #p 6-31g* mp2
 -------------

 ------------------------------------------------------
 Input file generated by CHIRIPA (05-May-2021 14:51:08)
 ------------------------------------------------------
 Symbolic Z-matrix:
 Charge =  0 Multiplicity = 1

                         Standard orientation:
 ---------------------------------------------------------------------
 Center     Atomic      Atomic             Coordinates (Angstroms)
 Number     Number       Type             X           Y           Z
 ---------------------------------------------------------------------
      1          6           0       -3.674910    0.863731   -0.302011
      2          6           0       -3.132603    2.014640    0.546103
      3          6           0       -3.911890    3.314794    0.345837
      4          1           0       -3.644451    1.151621   -1.361792
      5          1           0       -4.732552    0.700484   -0.052734
      6          1           0       -2.075923    2.174757    0.296292
      7          1           0       -3.164179    1.723902    1.603973
      8          1           0       -4.964565    3.178155    0.613805
      9          1           0       -3.870126    3.631572   -0.701306
     10          1           0       -3.507384    4.124208    0.961534
     11          6           0       -2.906213   -0.442797   -0.112756
     12          6           0       -3.448520   -1.593707   -0.960869
     13          6           0       -2.669232   -2.893860   -0.760604
     14          1           0       -1.848571   -0.279551   -0.362033
     15          1           0       -2.936672   -0.730688    0.947025
     16          1           0       -3.416944   -1.302969   -2.018740
     17          1           0       -4.505200   -1.753824   -0.711059
     18          1           0       -2.710997   -3.210638    0.286539
     19          1           0       -1.616558   -2.757222   -1.028572
     20          1           0       -3.073739   -3.703275   -1.376301
     21          6           0        3.942501    0.172614    0.315349
     22          6           0        4.517212    0.766195   -0.971256
     23          6           0        5.821478    1.529574   -0.739013
     24          1           0        3.772138    0.980427    1.040165
     25          1           0        4.686544   -0.499237    0.765250
     26          1           0        3.771778    1.435657   -1.419325
     27          1           0        4.686047   -0.043101   -1.693163
     28          1           0        6.584024    0.868987   -0.313868
     29          1           0        5.664559    2.356147   -0.038473
     30          1           0        6.214786    1.945490   -1.671850
     31          6           0        2.638622   -0.593547    0.099418
     32          6           0        2.063911   -1.187129    1.386023
     33          6           0        0.759645   -1.950508    1.153780
     34          1           0        1.894579    0.078304   -0.350483
     35          1           0        2.808985   -1.401360   -0.625399
     36          1           0        1.895075   -0.377833    2.107931
     37          1           0        2.809344   -1.856591    1.834092
     38          1           0        0.916563   -2.777079    0.453239
     39          1           0       -0.002900   -1.289920    0.728634
     40          1           0        0.366337   -2.366422    2.086616
 ---------------------------------------------------------------------

 SCF Done:  E(RHF) =  -470.732812699     A.U. after   11 cycles
 E2 =    -0.1583323778D+01 EUMP2 =    -0.47231613647681D+03

 The electronic state is 1-A.
 Alpha  occ. eigenvalues --  -11.21633 -11.21605 -11.21578 -11.21550 -11.21416
 Alpha  occ. eigenvalues --  -11.21402 -11.21356 -11.21343 -11.21094 -11.21073
 Alpha  occ. eigenvalues --  -11.20971 -11.20938  -1.08449  -1.08408  -1.03544
 Alpha  occ. eigenvalues --   -1.03480  -0.95975  -0.95944  -0.86995  -0.86961
 Alpha  occ. eigenvalues --   -0.79682  -0.79488  -0.78321  -0.78167  -0.65109
 Alpha  occ. eigenvalues --   -0.65016  -0.60953  -0.60879  -0.59352  -0.59317
 Alpha  occ. eigenvalues --   -0.57610  -0.57538  -0.55321  -0.55183  -0.52673
 Alpha  occ. eigenvalues --   -0.52643  -0.52433  -0.52349  -0.49991  -0.49828
 Alpha  occ. eigenvalues --   -0.48119  -0.47716  -0.46691  -0.46589  -0.45938
 Alpha  occ. eigenvalues --   -0.45745  -0.45725  -0.45354  -0.43784  -0.43758
 Alpha virt. eigenvalues --    0.21660   0.23141   0.23574   0.24634   0.25741
 Alpha virt. eigenvalues --    0.26563   0.26851   0.27553   0.28096   0.29391
 Alpha virt. eigenvalues --    0.30692   0.31001   0.31659   0.31945   0.32317

 Mulliken charges:
               1
     1  C   -0.297434
     2  C   -0.299594
     3  C   -0.475687
     4  H    0.149575
     5  H    0.149730
     6  H    0.151006
     7  H    0.152095
     8  H    0.155364
     9  H    0.155227
    10  H    0.160236
    11  C   -0.302489
    12  C   -0.299619
    13  C   -0.477845
    14  H    0.152159
    15  H    0.150622
    16  H    0.151504
    17  H    0.151719
    18  H    0.155834
    19  H    0.159223
    20  H    0.159268
    21  C   -0.298206
    22  C   -0.299618
    23  C   -0.475700
    24  H    0.149695
    25  H    0.149687
    26  H    0.151676
    27  H    0.151906
    28  H    0.155237
    29  H    0.155194
    30  H    0.160213
    31  C   -0.298097
    32  C   -0.299915
    33  C   -0.482754
    34  H    0.148164
    35  H    0.149469
    36  H    0.151703
    37  H    0.151546
    38  H    0.154832
    39  H    0.164541
    40  H    0.159528
 Sum of Mulliken charges =  -0.00000

 Dipole moment (field-independent basis, Debye):
    X=             -0.0271    Y=             -0.0062    Z=              0.0030  Tot=              0.0279
 Quadrupole moment (field-independent basis, Debye-Ang):
   XX=            -85.2597   YY=            -85.3730   ZZ=            -84.2034
   XY=             -0.3703   XZ=             -0.6457   YZ=             -0.0229

 Normal termination of Gaussian 16 at Wed May  5 15:04:44 2021.
