 Gaussian 16, Revision A.03,
 Gaussian 16:  EM64L-G16RevA.03 25-Dec-2016

 -------------
 #p 6-31g* mp2
 -------------

 ------------------------------------------------------
 Input file generated by CHIRIPA (05-May-2021 14:51:10)
 ------------------------------------------------------
 Symbolic Z-matrix:
 Charge =  0 Multiplicity = 1

                         Standard orientation:
 ---------------------------------------------------------------------
 Center     Atomic      Atomic             Coordinates (Angstroms)
 Number     Number       Type             X           Y           Z
 ---------------------------------------------------------------------
      1          6           0       -3.273814    0.146446   -0.591079
      2          6           0       -3.148777   -1.325697   -0.197193
      3          6           0       -3.978304   -2.249037   -1.090009
      4          1           0       -4.330698    0.442961   -0.546136
      5          1           0       -2.959595    0.266889   -1.637098
      6          1           0       -3.461824   -1.443101    0.848194
      7          1           0       -2.092045   -1.618690   -0.242894
      8          1           0       -3.661862   -2.161373   -2.134413
      9          1           0       -5.039424   -1.984787   -1.037126
     10          1           0       -3.874248   -3.296652   -0.790783
     11          6           0       -2.450270    1.081971    0.292264
     12          6           0       -2.575307    2.554114   -0.101622
     13          6           0       -1.745780    3.477455    0.791194
     14          1           0       -2.764488    0.961529    1.338283
     15          1           0       -1.393386    0.785456    0.247321
     16          1           0       -3.632039    2.847108   -0.055921
     17          1           0       -2.262260    2.671519   -1.147009
     18          1           0       -0.684660    3.213204    0.738311
     19          1           0       -2.062222    3.389791    1.835598
     20          1           0       -1.849836    4.525069    0.491967
     21          6           0        2.500766   -1.286067    0.188376
     22          6           0        1.246239   -1.250181    1.061795
     23          6           0        0.534478   -2.601682    1.129890
     24          1           0        2.225146   -1.608404   -0.825072
     25          1           0        3.190895   -2.045596    0.581098
     26          1           0        0.559277   -0.489979    0.668359
     27          1           0        1.524847   -0.927709    2.073232
     28          1           0        1.199511   -3.366926    1.543091
     29          1           0        0.228454   -2.926710    0.130236
     30          1           0       -0.359522   -2.553331    1.759402
     31          6           0        3.223318    0.057649    0.110439
     32          6           0        4.477845    0.021764   -0.762980
     33          6           0        5.189605    1.373264   -0.831074
     34          1           0        2.533188    0.817178   -0.282282
     35          1           0        3.498938    0.379986    1.123887
     36          1           0        4.199237   -0.300709   -1.774417
     37          1           0        5.164808   -0.738438   -0.369544
     38          1           0        5.495630    1.698292    0.168579
     39          1           0        4.524573    2.138508   -1.244276
     40          1           0        6.083606    1.324914   -1.460587
 ---------------------------------------------------------------------

 SCF Done:  E(RHF) =  -470.732892734     A.U. after   11 cycles
 E2 =    -0.1583933266D+01 EUMP2 =    -0.47231682600003D+03

 The electronic state is 1-A.
 Alpha  occ. eigenvalues --  -11.21628 -11.21611 -11.21609 -11.21547 -11.21438
 Alpha  occ. eigenvalues --  -11.21400 -11.21378 -11.21341 -11.21091 -11.21076
 Alpha  occ. eigenvalues --  -11.21070 -11.21052  -1.08476  -1.08415  -1.03565
 Alpha  occ. eigenvalues --   -1.03511  -0.96004  -0.95974  -0.87042  -0.86967
 Alpha  occ. eigenvalues --   -0.79678  -0.79527  -0.78343  -0.78184  -0.65254
 Alpha  occ. eigenvalues --   -0.64930  -0.61032  -0.60855  -0.59416  -0.59294
 Alpha  occ. eigenvalues --   -0.57623  -0.57576  -0.55308  -0.55268  -0.52715
 Alpha  occ. eigenvalues --   -0.52643  -0.52456  -0.52372  -0.50076  -0.49818
 Alpha  occ. eigenvalues --   -0.48023  -0.47837  -0.46837  -0.46472  -0.46072
 Alpha  occ. eigenvalues --   -0.45776  -0.45744  -0.45289  -0.43806  -0.43770
 Alpha virt. eigenvalues --    0.20550   0.23291   0.23464   0.24219   0.25757
 Alpha virt. eigenvalues --    0.26790   0.26993   0.27591   0.27893   0.29566
 Alpha virt. eigenvalues --    0.30703   0.31514   0.31704   0.32055   0.32214

 Mulliken charges:
               1
     1  C   -0.297509
     2  C   -0.306536
     3  C   -0.475598
     4  H    0.149658
     5  H    0.148742
     6  H    0.151195
     7  H    0.160865
     8  H    0.154656
     9  H    0.155065
    10  H    0.160454
    11  C   -0.307059
    12  C   -0.298954
    13  C   -0.475714
    14  H    0.149546
    15  H    0.157531
    16  H    0.152117
    17  H    0.151474
    18  H    0.155038
    19  H    0.155366
    20  H    0.160264
    21  C   -0.297489
    22  C   -0.309716
    23  C   -0.477204
    24  H    0.149166
    25  H    0.149822
    26  H    0.159690
    27  H    0.152539
    28  H    0.155535
    29  H    0.154564
    30  H    0.162759
    31  C   -0.298134
    32  C   -0.299661
    33  C   -0.475744
    34  H    0.148418
    35  H    0.150018
    36  H    0.151887
    37  H    0.152122
    38  H    0.155320
    39  H    0.155151
    40  H    0.160357
 Sum of Mulliken charges =  -0.00000

 Dipole moment (field-independent basis, Debye):
    X=              0.0124    Y=             -0.0121    Z=              0.0222  Tot=              0.0281
 Quadrupole moment (field-independent basis, Debye-Ang):
   XX=            -84.5780   YY=            -86.1839   ZZ=            -84.0274
   XY=             -1.2192   XZ=             -0.2838   YZ=             -0.4695

 Normal termination of Gaussian 16 at Thu May  6 05:25:03 2021.
