 Gaussian 16, Revision A.03,
 Gaussian 16:  EM64L-G16RevA.03 25-Dec-2016

 -------------
 #p 6-31g* mp2
 -------------

 ------------------------------------------------------
 Input file generated by CHIRIPA (05-May-2021 14:51:13)
 ------------------------------------------------------
 Symbolic Z-matrix:
 Charge =  0 Multiplicity = 1

                         Standard orientation:
 ---------------------------------------------------------------------
 Center     Atomic      Atomic             Coordinates (Angstroms)
 Number     Number       Type             X           Y           Z
 ---------------------------------------------------------------------
      1          6           0        2.077543   -1.070142    0.347848
      2          6           0        1.468450   -1.216432    1.742692
      3          6           0        0.556880   -2.437900    1.864555
      4          1           0        1.269175   -1.001533   -0.392948
      5          1           0        2.646314   -1.978815    0.106583
      6          1           0        0.902144   -0.307182    1.981814
      7          1           0        2.278360   -1.284509    2.480273
      8          1           0        1.113259   -3.356540    1.652083
      9          1           0       -0.270777   -2.373661    1.150792
     10          1           0        0.132226   -2.523245    2.869665
     11          6           0        2.991268    0.146380    0.210336
     12          6           0        3.600362    0.292669   -1.184508
     13          6           0        4.511931    1.514137   -1.306371
     14          1           0        2.422498    1.055052    0.451601
     15          1           0        3.799636    0.077770    0.951132
     16          1           0        2.790451    0.360746   -1.922089
     17          1           0        4.166668   -0.616581   -1.423630
     18          1           0        5.339589    1.449898   -0.592608
     19          1           0        3.955553    2.432777   -1.093900
     20          1           0        4.936585    1.599482   -2.311481
     21          6           0       -2.821467    1.127932   -0.039498
     22          6           0       -1.754369    2.106057    0.453003
     23          6           0       -2.344186    3.433955    0.929025
     24          1           0       -3.387155    1.593886   -0.857928
     25          1           0       -3.540029    0.941599    0.770652
     26          1           0       -1.037254    2.289415   -0.357393
     27          1           0       -1.191030    1.637646    1.270228
     28          1           0       -3.044675    3.270519    1.754377
     29          1           0       -2.890026    3.925991    0.117508
     30          1           0       -1.563905    4.118151    1.276727
     31          6           0       -2.247344   -0.204169   -0.518686
     32          6           0       -3.314442   -1.182294   -1.011187
     33          6           0       -2.724625   -2.510192   -1.487209
     34          1           0       -1.528781   -0.017836   -1.328836
     35          1           0       -1.681656   -0.670124    0.299744
     36          1           0       -3.877782   -0.713883   -1.828412
     37          1           0       -4.031557   -1.365652   -0.200791
     38          1           0       -2.178786   -3.002229   -0.675692
     39          1           0       -2.024136   -2.346756   -2.312561
     40          1           0       -3.504906   -3.194389   -1.834911
 ---------------------------------------------------------------------

 SCF Done:  E(RHF) =  -470.733112456     A.U. after   11 cycles
 E2 =    -0.1584335948D+01 EUMP2 =    -0.47231744840433D+03

 The electronic state is 1-A.
 Alpha  occ. eigenvalues --  -11.21690 -11.21655 -11.21594 -11.21579 -11.21472
 Alpha  occ. eigenvalues --  -11.21412 -11.21354 -11.21291 -11.21132 -11.21114
 Alpha  occ. eigenvalues --  -11.21067 -11.21055  -1.08514  -1.08387  -1.03599
 Alpha  occ. eigenvalues --   -1.03514  -0.96041  -0.95964  -0.87058  -0.86983
 Alpha  occ. eigenvalues --   -0.79691  -0.79551  -0.78354  -0.78183  -0.65244
 Alpha  occ. eigenvalues --   -0.64941  -0.61051  -0.60875  -0.59434  -0.59309
 Alpha  occ. eigenvalues --   -0.57659  -0.57565  -0.55366  -0.55228  -0.52732
 Alpha  occ. eigenvalues --   -0.52665  -0.52475  -0.52386  -0.50019  -0.49907
 Alpha  occ. eigenvalues --   -0.48059  -0.47880  -0.46837  -0.46472  -0.46066
 Alpha  occ. eigenvalues --   -0.45786  -0.45631  -0.45394  -0.43849  -0.43760
 Alpha virt. eigenvalues --    0.19861   0.22502   0.23623   0.23813   0.25553
 Alpha virt. eigenvalues --    0.25947   0.26935   0.27909   0.28581   0.29814
 Alpha virt. eigenvalues --    0.30173   0.31460   0.31591   0.31793   0.32426

 Mulliken charges:
               1
     1  C   -0.300365
     2  C   -0.301998
     3  C   -0.483895
     4  H    0.153062
     5  H    0.149152
     6  H    0.153633
     7  H    0.152149
     8  H    0.155812
     9  H    0.161716
    10  H    0.159719
    11  C   -0.298780
    12  C   -0.299491
    13  C   -0.475684
    14  H    0.150320
    15  H    0.149300
    16  H    0.151516
    17  H    0.151878
    18  H    0.155173
    19  H    0.155116
    20  H    0.160082
    21  C   -0.297678
    22  C   -0.302627
    23  C   -0.475684
    24  H    0.150032
    25  H    0.149900
    26  H    0.151663
    27  H    0.153928
    28  H    0.155521
    29  H    0.155510
    30  H    0.160423
    31  C   -0.307442
    32  C   -0.299436
    33  C   -0.479611
    34  H    0.149502
    35  H    0.158476
    36  H    0.152212
    37  H    0.152177
    38  H    0.158547
    39  H    0.155289
    40  H    0.160881
 Sum of Mulliken charges =  -0.00000

 Dipole moment (field-independent basis, Debye):
    X=             -0.0400    Y=              0.0026    Z=             -0.0079  Tot=              0.0409
 Quadrupole moment (field-independent basis, Debye-Ang):
   XX=            -84.6361   YY=            -86.0293   ZZ=            -84.0470
   XY=             -0.7235   XZ=              0.4147   YZ=             -0.6566

 Normal termination of Gaussian 16 at Wed May  5 20:00:30 2021.
