 Gaussian 16, Revision A.03,
 Gaussian 16:  EM64L-G16RevA.03 25-Dec-2016

 -------------
 #p 6-31g* mp2
 -------------

 ------------------------------------------------------
 Input file generated by CHIRIPA (05-May-2021 14:51:12)
 ------------------------------------------------------
 Symbolic Z-matrix:
 Charge =  0 Multiplicity = 1

                         Standard orientation:
 ---------------------------------------------------------------------
 Center     Atomic      Atomic             Coordinates (Angstroms)
 Number     Number       Type             X           Y           Z
 ---------------------------------------------------------------------
      1          6           0        2.166591   -0.780798    0.368480
      2          6           0        1.884205   -1.213640    1.807539
      3          6           0        0.496954   -1.833841    1.976892
      4          1           0        1.400100   -0.060212    0.051949
      5          1           0        2.069799   -1.651593   -0.294650
      6          1           0        1.982857   -0.342573    2.467937
      7          1           0        2.651568   -1.933134    2.120746
      8          1           0        0.390620   -2.719170    1.341685
      9          1           0       -0.281891   -1.119571    1.690849
     10          1           0        0.316094   -2.136073    3.013138
     11          6           0        3.549584   -0.158915    0.183220
     12          6           0        3.831971    0.273928   -1.255838
     13          6           0        5.219221    0.894129   -1.425191
     14          1           0        3.646376    0.711880    0.846351
     15          1           0        4.316076   -0.879501    0.499751
     16          1           0        3.064608    0.993422   -1.569045
     17          1           0        3.733318   -0.597139   -1.916236
     18          1           0        5.998066    0.179859   -1.139148
     19          1           0        5.325556    1.779457   -0.789985
     20          1           0        5.400082    1.196361   -2.461437
     21          6           0       -3.034727    1.144398    0.035959
     22          6           0       -1.833089    2.078802    0.180661
     23          6           0       -2.202433    3.424290    0.805996
     24          1           0       -3.802301    1.636735   -0.576722
     25          1           0       -3.483128    0.979166    1.025418
     26          1           0       -1.386252    2.241118   -0.808585
     27          1           0       -1.068207    1.584106    0.792909
     28          1           0       -2.628184    3.281161    1.804420
     29          1           0       -2.948036    3.941906    0.193827
     30          1           0       -1.328671    4.076627    0.900093
     31          6           0       -2.681449   -0.204685   -0.587660
     32          6           0       -3.883086   -1.139090   -0.732362
     33          6           0       -3.513742   -2.484577   -1.357696
     34          1           0       -2.233047   -0.039452   -1.577119
     35          1           0       -1.913874   -0.697023    0.025021
     36          1           0       -4.647969   -0.644394   -1.344610
     37          1           0       -4.329923   -1.301406    0.256884
     38          1           0       -2.768138   -3.002193   -0.745528
     39          1           0       -3.087992   -2.341448   -2.356121
     40          1           0       -4.387505   -3.136914   -1.451794
 ---------------------------------------------------------------------

 SCF Done:  E(RHF) =  -470.733289197     A.U. after   11 cycles
 E2 =    -0.1583433205D+01 EUMP2 =    -0.47231672240217D+03

 The electronic state is 1-A.
 Alpha  occ. eigenvalues --  -11.21670 -11.21634 -11.21592 -11.21573 -11.21404
 Alpha  occ. eigenvalues --  -11.21398 -11.21338 -11.21315 -11.21133 -11.21118
 Alpha  occ. eigenvalues --  -11.21065 -11.21035  -1.08454  -1.08418  -1.03549
 Alpha  occ. eigenvalues --   -1.03538  -0.96012  -0.95971  -0.87031  -0.86987
 Alpha  occ. eigenvalues --   -0.79626  -0.79596  -0.78335  -0.78156  -0.65179
 Alpha  occ. eigenvalues --   -0.64975  -0.60965  -0.60919  -0.59366  -0.59351
 Alpha  occ. eigenvalues --   -0.57660  -0.57552  -0.55392  -0.55175  -0.52696
 Alpha  occ. eigenvalues --   -0.52682  -0.52491  -0.52352  -0.50028  -0.49850
 Alpha  occ. eigenvalues --   -0.47996  -0.47909  -0.46732  -0.46636  -0.46055
 Alpha  occ. eigenvalues --   -0.45745  -0.45715  -0.45269  -0.43797  -0.43785
 Alpha virt. eigenvalues --    0.20012   0.23055   0.24008   0.24171   0.25664
 Alpha virt. eigenvalues --    0.26485   0.27038   0.27789   0.28007   0.29685
 Alpha virt. eigenvalues --    0.30797   0.31495   0.31683   0.31875   0.32164

 Mulliken charges:
               1
     1  C   -0.301355
     2  C   -0.299145
     3  C   -0.483220
     4  H    0.152947
     5  H    0.149641
     6  H    0.151726
     7  H    0.152203
     8  H    0.155334
     9  H    0.161382
    10  H    0.160604
    11  C   -0.298191
    12  C   -0.299703
    13  C   -0.475712
    14  H    0.149450
    15  H    0.149598
    16  H    0.152211
    17  H    0.151945
    18  H    0.155141
    19  H    0.155160
    20  H    0.160212
    21  C   -0.297798
    22  C   -0.303365
    23  C   -0.475625
    24  H    0.149902
    25  H    0.149433
    26  H    0.152136
    27  H    0.153581
    28  H    0.155451
    29  H    0.155628
    30  H    0.160113
    31  C   -0.307285
    32  C   -0.298975
    33  C   -0.475983
    34  H    0.149432
    35  H    0.158586
    36  H    0.151703
    37  H    0.151894
    38  H    0.155868
    39  H    0.155028
    40  H    0.160045
 Sum of Mulliken charges =  -0.00000

 Dipole moment (field-independent basis, Debye):
    X=              0.0014    Y=             -0.0033    Z=              0.0006  Tot=              0.0036
 Quadrupole moment (field-independent basis, Debye-Ang):
   XX=            -85.5946   YY=            -85.0163   ZZ=            -84.1619
   XY=             -0.8035   XZ=              0.3900   YZ=             -0.4901

 Normal termination of Gaussian 16 at Wed May  5 23:09:20 2021.
