 Gaussian 16, Revision A.03,
 Gaussian 16:  EM64L-G16RevA.03 25-Dec-2016

 -------------
 #p 6-31g* mp2
 -------------

 ------------------------------------------------------
 Input file generated by CHIRIPA (05-May-2021 14:57:26)
 ------------------------------------------------------
 Symbolic Z-matrix:
 Charge =  0 Multiplicity = 1

                         Standard orientation:
 ---------------------------------------------------------------------
 Center     Atomic      Atomic             Coordinates (Angstroms)
 Number     Number       Type             X           Y           Z
 ---------------------------------------------------------------------
      1          6           0        6.193891    0.766049    0.071974
      2          6           0        5.904041   -0.381006    0.818145
      3          6           0        4.627095   -0.948906    0.780079
      4          6           0        3.659600   -0.340964   -0.018451
      5          6           0        3.917577    0.802280   -0.773256
      6          6           0        5.201484    1.352997   -0.719948
      7          1           0        7.188557    1.200533    0.107465
      8          1           0        6.672790   -0.838979    1.434042
      9          1           0        4.375518   -1.836561    1.347701
     10          1           0        3.130525    1.236248   -1.377937
     11          1           0        5.423737    2.243853   -1.300486
     12          7           0        2.304070   -0.933079   -0.066818
     13          8           0        1.469202   -0.378433   -0.778155
     14          8           0        2.102141   -1.940612    0.607526
     15          6           0       -2.776363    2.495334    0.274953
     16          6           0       -4.104243    2.316440    0.676515
     17          6           0       -4.727534    1.073081    0.534681
     18          6           0       -3.989994    0.025666   -0.015088
     19          6           0       -2.665595    0.172474   -0.424606
     20          6           0       -2.062536    1.424668   -0.273360
     21          1           0       -2.300034    3.464637    0.388788
     22          1           0       -4.661046    3.146145    1.102662
     23          1           0       -5.754300    0.906853    0.837235
     24          1           0       -2.136213   -0.673443   -0.846027
     25          1           0       -1.031157    1.560694   -0.586090
     26          7           0       -4.639136   -1.295299   -0.170223
     27          8           0       -3.967693   -2.202181   -0.657427
     28          8           0       -5.807084   -1.398777    0.198322
 ---------------------------------------------------------------------

 SCF Done:  E(RHF) =  -868.339496487     A.U. after   16 cycles
 E2 =    -0.2598618921D+01 EUMP2 =    -0.87093811540743D+03

 The electronic state is 1-A.
 Alpha  occ. eigenvalues --  -20.61561 -20.61489 -20.59843 -20.59814 -15.86559
 Alpha  occ. eigenvalues --  -15.84878 -11.31756 -11.30150 -11.28336 -11.28271
 Alpha  occ. eigenvalues --  -11.28002 -11.27291 -11.27251 -11.26797 -11.26556
 Alpha  occ. eigenvalues --  -11.26520 -11.25839 -11.25583  -1.60578  -1.58909
 Alpha  occ. eigenvalues --   -1.40142  -1.38462  -1.19908  -1.18329  -1.09331
 Alpha  occ. eigenvalues --   -1.07766  -1.05288  -1.03687  -0.96197  -0.94605
 Alpha  occ. eigenvalues --   -0.86693  -0.85113  -0.83040  -0.81412  -0.78108
 Alpha  occ. eigenvalues --   -0.76453  -0.72790  -0.71882  -0.71101  -0.71014
 Alpha  occ. eigenvalues --   -0.70231  -0.69469  -0.65567  -0.65286  -0.63977
 Alpha  occ. eigenvalues --   -0.63685  -0.62640  -0.61003  -0.55787  -0.54276
 Alpha  occ. eigenvalues --   -0.53623  -0.53377  -0.52072  -0.51762  -0.49558
 Alpha  occ. eigenvalues --   -0.49505  -0.47865  -0.47845  -0.45577  -0.43887
 Alpha  occ. eigenvalues --   -0.37873  -0.36883  -0.36369  -0.35290
 Alpha virt. eigenvalues --    0.04402   0.06038   0.10774   0.12340   0.15912
 Alpha virt. eigenvalues --    0.17531   0.20876   0.22458   0.26791   0.27472
 Alpha virt. eigenvalues --    0.28623   0.29285   0.30504   0.31649   0.32461

 Mulliken charges:
               1
     1  C   -0.170142
     2  C   -0.218399
     3  C   -0.170216
     4  C    0.158331
     5  C   -0.171057
     6  C   -0.218354
     7  H    0.227457
     8  H    0.225691
     9  H    0.277705
    10  H    0.271913
    11  H    0.224196
    12  N    0.491117
    13  O   -0.473074
    14  O   -0.452576
    15  C   -0.172275
    16  C   -0.219174
    17  C   -0.172642
    18  C    0.157440
    19  C   -0.171191
    20  C   -0.222828
    21  H    0.220018
    22  H    0.218719
    23  H    0.272165
    24  H    0.287668
    25  H    0.234379
    26  N    0.487861
    27  O   -0.457696
    28  O   -0.465036
 Sum of Mulliken charges =  -0.00000

 Dipole moment (field-independent basis, Debye):
    X=              7.5992    Y=              6.5211    Z=              0.7145  Tot=             10.0391
 Quadrupole moment (field-independent basis, Debye-Ang):
   XX=            -85.2802   YY=           -103.9327   ZZ=           -103.3412
   XY=            -15.1101   XZ=             -2.0095   YZ=             -2.1405

 Normal termination of Gaussian 16 at Thu May  6 06:45:53 2021.
