 Gaussian 16, Revision A.03,
 Gaussian 16:  EM64L-G16RevA.03 25-Dec-2016

 -------------
 #p 6-31g* mp2
 -------------

 ------------------------------------------------------
 Input file generated by CHIRIPA (05-May-2021 14:51:14)
 ------------------------------------------------------
 Symbolic Z-matrix:
 Charge =  0 Multiplicity = 1

                         Standard orientation:
 ---------------------------------------------------------------------
 Center     Atomic      Atomic             Coordinates (Angstroms)
 Number     Number       Type             X           Y           Z
 ---------------------------------------------------------------------
      1          6           0       -2.408186   -0.316063    1.072711
      2          6           0       -1.349984   -1.419061    1.112572
      3          6           0       -0.788850   -1.649489    2.516077
      4          1           0       -1.970154    0.617392    1.451835
      5          1           0       -3.226712   -0.577931    1.757426
      6          1           0       -0.534353   -1.155856    0.426945
      7          1           0       -1.790531   -2.349952    0.733129
      8          1           0       -1.587368   -1.936482    3.207890
      9          1           0       -0.324052   -0.735601    2.899966
     10          1           0       -0.034104   -2.442072    2.521554
     11          6           0       -2.978638   -0.073991   -0.323611
     12          6           0       -4.036840    1.029007   -0.363472
     13          6           0       -4.597973    1.259434   -1.766976
     14          1           0       -2.160111    0.187877   -1.008326
     15          1           0       -3.416670   -1.007446   -0.702735
     16          1           0       -3.596292    1.959897    0.015971
     17          1           0       -4.852471    0.765801    0.322155
     18          1           0       -5.062772    0.345546   -2.150866
     19          1           0       -3.799456    1.546427   -2.458790
     20          1           0       -5.352720    2.052017   -1.772453
     21          6           0        2.257261   -0.417250   -0.509907
     22          6           0        3.024497   -1.581494   -1.137496
     23          6           0        2.138393   -2.799068   -1.402313
     24          1           0        1.801021   -0.752239    0.431673
     25          1           0        1.429694   -0.132114   -1.174154
     26          1           0        3.851210   -1.863443   -0.472915
     27          1           0        3.479123   -1.243642   -2.077596
     28          1           0        1.321375   -2.540084   -2.083496
     29          1           0        1.695576   -3.163407   -0.469698
     30          1           0        2.707082   -3.619482   -1.851060
     31          6           0        3.129562    0.807304   -0.239193
     32          6           0        2.362326    1.971549    0.388395
     33          6           0        3.248430    3.189123    0.653213
     34          1           0        3.957129    0.522168    0.425054
     35          1           0        3.585803    1.142293   -1.180773
     36          1           0        1.907700    1.633696    1.328496
     37          1           0        1.535614    2.253498   -0.276184
     38          1           0        3.691247    3.553462   -0.279401
     39          1           0        4.065448    2.930139    1.334395
     40          1           0        2.679742    4.009537    1.101960
 ---------------------------------------------------------------------

 SCF Done:  E(RHF) =  -470.732978871     A.U. after   11 cycles
 E2 =    -0.1583899255D+01 EUMP2 =    -0.47231687812619D+03

 The electronic state is 1-A.
 Alpha  occ. eigenvalues --  -11.21677 -11.21645 -11.21576 -11.21461 -11.21443
 Alpha  occ. eigenvalues --  -11.21401 -11.21357 -11.21288 -11.21125 -11.21091
 Alpha  occ. eigenvalues --  -11.21071 -11.21059  -1.08506  -1.08368  -1.03589
 Alpha  occ. eigenvalues --   -1.03482  -0.96031  -0.95950  -0.87047  -0.86964
 Alpha  occ. eigenvalues --   -0.79694  -0.79522  -0.78413  -0.78094  -0.65164
 Alpha  occ. eigenvalues --   -0.64978  -0.61000  -0.60884  -0.59447  -0.59270
 Alpha  occ. eigenvalues --   -0.57642  -0.57557  -0.55351  -0.55207  -0.52722
 Alpha  occ. eigenvalues --   -0.52645  -0.52466  -0.52370  -0.49970  -0.49894
 Alpha  occ. eigenvalues --   -0.48083  -0.47815  -0.46756  -0.46626  -0.46071
 Alpha  occ. eigenvalues --   -0.45771  -0.45702  -0.45196  -0.43839  -0.43738
 Alpha virt. eigenvalues --    0.20627   0.23068   0.23538   0.23905   0.25267
 Alpha virt. eigenvalues --    0.26431   0.27045   0.27988   0.28687   0.29613
 Alpha virt. eigenvalues --    0.30389   0.31269   0.31558   0.31736   0.32453

 Mulliken charges:
               1
     1  C   -0.297706
     2  C   -0.308969
     3  C   -0.476474
     4  H    0.149544
     5  H    0.148947
     6  H    0.163306
     7  H    0.151245
     8  H    0.155478
     9  H    0.154420
    10  H    0.158986
    11  C   -0.298316
    12  C   -0.299639
    13  C   -0.475632
    14  H    0.149021
    15  H    0.149627
    16  H    0.151921
    17  H    0.151952
    18  H    0.155169
    19  H    0.154833
    20  H    0.160180
    21  C   -0.304873
    22  C   -0.299272
    23  C   -0.477081
    24  H    0.156594
    25  H    0.149313
    26  H    0.152000
    27  H    0.151977
    28  H    0.155673
    29  H    0.156482
    30  H    0.160429
    31  C   -0.297397
    32  C   -0.300119
    33  C   -0.475688
    34  H    0.149860
    35  H    0.149814
    36  H    0.151697
    37  H    0.151418
    38  H    0.155419
    39  H    0.155497
    40  H    0.160367
 Sum of Mulliken charges =  -0.00000

 Dipole moment (field-independent basis, Debye):
    X=              0.0527    Y=             -0.0015    Z=             -0.0192  Tot=              0.0561
 Quadrupole moment (field-independent basis, Debye-Ang):
   XX=            -84.7124   YY=            -85.1786   ZZ=            -84.9208
   XY=              0.0747   XZ=             -0.5197   YZ=             -0.3836

 Normal termination of Gaussian 16 at Thu May  6 07:12:26 2021.
