 Gaussian 16, Revision A.03,
 Gaussian 16:  EM64L-G16RevA.03 25-Dec-2016

 -------------
 #p 6-31g* mp2
 -------------

 ------------------------------------------------------
 Input file generated by CHIRIPA (05-May-2021 14:55:18)
 ------------------------------------------------------
 Symbolic Z-matrix:
 Charge =  0 Multiplicity = 1

                         Standard orientation:
 ---------------------------------------------------------------------
 Center     Atomic      Atomic             Coordinates (Angstroms)
 Number     Number       Type             X           Y           Z
 ---------------------------------------------------------------------
      1          6           0       -0.706710   -1.082929   -0.543729
      2          6           0       -0.831425    0.219172   -0.048249
      3          6           0       -2.092339    0.755614    0.229009
      4          6           0       -3.212369   -0.041544   -0.001994
      5          6           0       -3.120772   -1.342269   -0.494957
      6          6           0       -1.849767   -1.858127   -0.765112
      7          1           0        0.276718   -1.491655   -0.756351
      8          1           0        0.054547    0.823496    0.124645
      9          1           0       -2.217707    1.760647    0.613208
     10          1           0       -4.022300   -1.920512   -0.657136
     11          1           0       -1.755932   -2.869671   -1.149844
     12          7           0       -4.552585    0.515468    0.287767
     13          8           0       -5.523843   -0.207241    0.075667
     14          8           0       -4.606410    1.664215    0.721494
     15          6           0        4.185899   -0.441969    0.347909
     16          6           0        3.463753   -1.756512    0.050474
     17          6           0        4.189750   -2.973071    0.625543
     18          1           0        5.204511   -0.489933   -0.060839
     19          1           0        4.290685   -0.327237    1.435682
     20          1           0        3.359132   -1.868066   -1.036368
     21          1           0        2.446678   -1.705340    0.459810
     22          1           0        4.281305   -2.888454    1.713228
     23          1           0        5.198943   -3.052106    0.208549
     24          1           0        3.656277   -3.902024    0.401235
     25          6           0        3.472305    0.783334   -0.220548
     26          6           0        4.194451    2.097877    0.076886
     27          6           0        3.468453    3.314437   -0.498183
     28          1           0        3.367518    0.668601   -1.308321
     29          1           0        2.453693    0.831298    0.188199
     30          1           0        5.211526    2.046704   -0.332449
     31          1           0        4.299072    2.209430    1.163728
     32          1           0        2.459260    3.393470   -0.081189
     33          1           0        3.376898    3.229819   -1.585868
     34          1           0        4.001927    4.243390   -0.273874
 ---------------------------------------------------------------------

 SCF Done:  E(RHF) =  -669.535374546     A.U. after   15 cycles
 E2 =    -0.2092216065D+01 EUMP2 =    -0.67162759061126D+03

 The electronic state is 1-A.
 Alpha  occ. eigenvalues --  -20.60703 -20.60698 -15.85756 -11.31104 -11.27673
 Alpha  occ. eigenvalues --  -11.27668 -11.27351 -11.26674 -11.26646 -11.22847
 Alpha  occ. eigenvalues --  -11.22611 -11.22504 -11.22444 -11.22035 -11.21900
 Alpha  occ. eigenvalues --   -1.59779  -1.39333  -1.19270  -1.09533  -1.08662
 Alpha  occ. eigenvalues --   -1.04674  -1.04550  -0.96972  -0.95503  -0.87987
 Alpha  occ. eigenvalues --   -0.86073  -0.82343  -0.80637  -0.79395  -0.77392
 Alpha  occ. eigenvalues --   -0.71974  -0.71102  -0.70371  -0.66187  -0.64917
 Alpha  occ. eigenvalues --   -0.64665  -0.62063  -0.61911  -0.60358  -0.58601
 Alpha  occ. eigenvalues --   -0.56255  -0.55171  -0.53635  -0.53404  -0.53002
 Alpha  occ. eigenvalues --   -0.52767  -0.50901  -0.48941  -0.48731  -0.48714
 Alpha  occ. eigenvalues --   -0.47658  -0.46884  -0.46800  -0.44820  -0.44743
 Alpha  occ. eigenvalues --   -0.37239  -0.36282
 Alpha virt. eigenvalues --    0.05128   0.11354   0.16583   0.19088   0.22495
 Alpha virt. eigenvalues --    0.22648   0.24870   0.25579   0.26969   0.27473
 Alpha virt. eigenvalues --    0.29381   0.30343   0.31002   0.31303   0.31957

 Mulliken charges:
               1
     1  C   -0.178589
     2  C   -0.226380
     3  C   -0.171976
     4  C    0.158749
     5  C   -0.171077
     6  C   -0.219495
     7  H    0.233923
     8  H    0.231479
     9  H    0.275639
    10  H    0.275187
    11  H    0.223258
    12  N    0.487939
    13  O   -0.460709
    14  O   -0.460653
    15  C   -0.297520
    16  C   -0.307230
    17  C   -0.475384
    18  H    0.154527
    19  H    0.153366
    20  H    0.151058
    21  H    0.148096
    22  H    0.158889
    23  H    0.158941
    24  H    0.160795
    25  C   -0.305500
    26  C   -0.300087
    27  C   -0.476167
    28  H    0.151287
    29  H    0.143733
    30  H    0.155831
    31  H    0.154621
    32  H    0.151277
    33  H    0.157138
    34  H    0.165036
 Sum of Mulliken charges =  -0.00000

 Dipole moment (field-independent basis, Debye):
    X=              5.0665    Y=             -1.9415    Z=             -1.0051  Tot=              5.5181
 Quadrupole moment (field-independent basis, Debye-Ang):
   XX=           -123.2685   YY=            -91.5904   ZZ=            -94.4341
   XY=              8.6548   XZ=              3.5226   YZ=              1.8758

 Normal termination of Gaussian 16 at Wed May  5 22:06:07 2021.
