 Gaussian 16, Revision A.03,
 Gaussian 16:  EM64L-G16RevA.03 25-Dec-2016

 -------------
 #p 6-31g* mp2
 -------------

 ------------------------------------------------------
 Input file generated by CHIRIPA (05-May-2021 14:53:17)
 ------------------------------------------------------
 Symbolic Z-matrix:
 Charge =  0 Multiplicity = 1

                         Standard orientation:
 ---------------------------------------------------------------------
 Center     Atomic      Atomic             Coordinates (Angstroms)
 Number     Number       Type             X           Y           Z
 ---------------------------------------------------------------------
      1          6           0       -3.938512   -0.350549    0.507644
      2          6           0       -4.430838   -1.427846   -0.459327
      3          6           0       -4.866641   -2.708058    0.254063
      4          1           0       -3.099336   -0.749029    1.094109
      5          1           0       -4.738188   -0.117918    1.224440
      6          1           0       -3.630951   -1.657383   -1.174946
      7          1           0       -5.268815   -1.026690   -1.043692
      8          1           0       -5.681377   -2.500112    0.955181
      9          1           0       -4.034207   -3.134389    0.823182
     10          1           0       -5.214883   -3.464653   -0.455973
     11          6           0       -3.499326    0.935286   -0.190549
     12          6           0       -3.007001    2.012583    0.776421
     13          6           0       -2.571198    3.292795    0.063031
     14          1           0       -2.699651    0.702655   -0.907346
     15          1           0       -4.338502    1.333767   -0.777014
     16          1           0       -2.169023    1.611427    1.360787
     17          1           0       -3.806887    2.242120    1.492040
     18          1           0       -3.403632    3.719127   -0.506087
     19          1           0       -1.756462    3.084850   -0.638086
     20          1           0       -2.222955    4.049390    0.773068
     21          6           0        0.460144   -0.378571   -0.727249
     22          6           0        1.149004   -1.521272   -0.307452
     23          6           0        2.503991   -1.449808    0.029374
     24          6           0        3.141804   -0.213896   -0.065532
     25          6           0        2.482885    0.942385   -0.480416
     26          6           0        1.128106    0.847449   -0.812241
     27          1           0       -0.592362   -0.443204   -0.986961
     28          1           0        0.632818   -2.474747   -0.240501
     29          1           0        3.061467   -2.318759    0.357340
     30          1           0        3.024434    1.878825   -0.537190
     31          1           0        0.595663    1.736530   -1.137948
     32          7           0        4.576159   -0.125815    0.288404
     33          8           0        5.115288    0.974869    0.196376
     34          8           0        5.134116   -1.159131    0.651144
 ---------------------------------------------------------------------

 SCF Done:  E(RHF) =  -669.535370041     A.U. after   15 cycles
 E2 =    -0.2092151637D+01 EUMP2 =    -0.67162752167835D+03

 The electronic state is 1-A.
 Alpha  occ. eigenvalues --  -20.60762 -20.60757 -15.85816 -11.31189 -11.27759
 Alpha  occ. eigenvalues --  -11.27755 -11.27483 -11.26777 -11.26767 -11.22603
 Alpha  occ. eigenvalues --  -11.22593 -11.22535 -11.22393 -11.22090 -11.21904
 Alpha  occ. eigenvalues --   -1.59838  -1.39391  -1.19362  -1.09489  -1.08754
 Alpha  occ. eigenvalues --   -1.04767  -1.04510  -0.96968  -0.95590  -0.87976
 Alpha  occ. eigenvalues --   -0.86164  -0.82424  -0.80567  -0.79299  -0.77468
 Alpha  occ. eigenvalues --   -0.72034  -0.71161  -0.70512  -0.66149  -0.65013
 Alpha  occ. eigenvalues --   -0.64757  -0.62167  -0.61860  -0.60317  -0.58568
 Alpha  occ. eigenvalues --   -0.56368  -0.55197  -0.53618  -0.53377  -0.53092
 Alpha  occ. eigenvalues --   -0.52853  -0.50908  -0.48880  -0.48790  -0.48788
 Alpha  occ. eigenvalues --   -0.47615  -0.46827  -0.46763  -0.44795  -0.44783
 Alpha  occ. eigenvalues --   -0.37338  -0.36370
 Alpha virt. eigenvalues --    0.05055   0.11237   0.16482   0.17842   0.21871
 Alpha virt. eigenvalues --    0.23538   0.24932   0.25478   0.26234   0.28051
 Alpha virt. eigenvalues --    0.29386   0.30754   0.31003   0.31388   0.31930

 Mulliken charges:
               1
     1  C   -0.300748
     2  C   -0.299817
     3  C   -0.475967
     4  H    0.148962
     5  H    0.154908
     6  H    0.144874
     7  H    0.155758
     8  H    0.158556
     9  H    0.154142
    10  H    0.162843
    11  C   -0.300495
    12  C   -0.302506
    13  C   -0.476457
    14  H    0.138317
    15  H    0.155001
    16  H    0.155000
    17  H    0.156985
    18  H    0.159049
    19  H    0.146591
    20  H    0.165557
    21  C   -0.177324
    22  C   -0.220041
    23  C   -0.170712
    24  C    0.158555
    25  C   -0.171327
    26  C   -0.223793
    27  H    0.234327
    28  H    0.223656
    29  H    0.275573
    30  H    0.276023
    31  H    0.227278
    32  N    0.488000
    33  O   -0.460334
    34  O   -0.460434
 Sum of Mulliken charges =  -0.00000

 Dipole moment (field-independent basis, Debye):
    X=             -5.2977    Y=             -0.2630    Z=             -1.1298  Tot=              5.4232
 Quadrupole moment (field-independent basis, Debye-Ang):
   XX=           -125.1800   YY=            -90.3134   ZZ=            -95.3464
   XY=             -0.7706   XZ=             -3.8623   YZ=             -0.3856

 Normal termination of Gaussian 16 at Wed May  5 23:38:20 2021.
