 Gaussian 16, Revision A.03,
 Gaussian 16:  EM64L-G16RevA.03 25-Dec-2016

 -------------
 #p 6-31g* mp2
 -------------

 ------------------------------------------------------
 Input file generated by CHIRIPA (05-May-2021 14:53:16)
 ------------------------------------------------------
 Symbolic Z-matrix:
 Charge =  0 Multiplicity = 1

                         Standard orientation:
 ---------------------------------------------------------------------
 Center     Atomic      Atomic             Coordinates (Angstroms)
 Number     Number       Type             X           Y           Z
 ---------------------------------------------------------------------
      1          6           0       -2.497954   -0.469101    0.005214
      2          6           0       -3.533080   -1.254188   -0.801098
      3          6           0       -3.301061   -2.764580   -0.749354
      4          1           0       -1.493701   -0.700494   -0.375414
      5          1           0       -2.522336   -0.809176    1.049795
      6          1           0       -3.507715   -0.911764   -1.843556
      7          1           0       -4.534999   -1.020753   -0.418632
      8          1           0       -3.347012   -3.126251    0.282966
      9          1           0       -2.313891   -3.016643   -1.150054
     10          1           0       -4.052316   -3.306366   -1.332402
     11          6           0       -2.716602    1.042240   -0.036818
     12          6           0       -1.681477    1.827327    0.769494
     13          6           0       -1.913495    3.337719    0.717749
     14          1           0       -2.692221    1.382315   -1.081400
     15          1           0       -3.720855    1.273633    0.343809
     16          1           0       -0.679557    1.593892    0.387027
     17          1           0       -1.706841    1.484903    1.811952
     18          1           0       -2.900665    3.589782    1.118450
     19          1           0       -1.867544    3.699390   -0.314570
     20          1           0       -1.162241    3.879505    1.300798
     21          6           0        1.729099   -1.509309    2.161494
     22          6           0        1.936228   -2.194309    0.959664
     23          6           0        2.108001   -1.492394   -0.237148
     24          6           0        2.066697   -0.099612   -0.195426
     25          6           0        1.862145    0.611503    0.985999
     26          6           0        1.692782   -0.111054    2.170809
     27          1           0        1.596598   -2.062590    3.086545
     28          1           0        1.964905   -3.280181    0.949430
     29          1           0        2.269955   -1.997434   -1.181671
     30          1           0        1.838549    1.694278    0.964585
     31          1           0        1.532092    0.423574    3.102686
     32          7           0        2.247269    0.654400   -1.456085
     33          8           0        2.206665    1.881169   -1.392636
     34          8           0        2.425986    0.004348   -2.483767
 ---------------------------------------------------------------------

 SCF Done:  E(RHF) =  -669.535044617     A.U. after   15 cycles
 E2 =    -0.2093773821D+01 EUMP2 =    -0.67162881843887D+03

 The electronic state is 1-A.
 Alpha  occ. eigenvalues --  -20.60867 -20.60856 -15.85908 -11.31244 -11.27828
 Alpha  occ. eigenvalues --  -11.27800 -11.27545 -11.26813 -11.26793 -11.21620
 Alpha  occ. eigenvalues --  -11.21566 -11.21396 -11.21313 -11.21193 -11.20998
 Alpha  occ. eigenvalues --   -1.59936  -1.39489  -1.19425  -1.08816  -1.08425
 Alpha  occ. eigenvalues --   -1.04823  -1.03541  -0.95989  -0.95658  -0.87005
 Alpha  occ. eigenvalues --   -0.86222  -0.82486  -0.79624  -0.78259  -0.77531
 Alpha  occ. eigenvalues --   -0.72124  -0.71263  -0.70533  -0.65090  -0.65057
 Alpha  occ. eigenvalues --   -0.64798  -0.62183  -0.60927  -0.59371  -0.57612
 Alpha  occ. eigenvalues --   -0.55327  -0.55256  -0.53226  -0.52907  -0.52660
 Alpha  occ. eigenvalues --   -0.52421  -0.49922  -0.48886  -0.48881  -0.47946
 Alpha  occ. eigenvalues --   -0.46654  -0.45765  -0.45702  -0.44865  -0.43790
 Alpha  occ. eigenvalues --   -0.37374  -0.36334
 Alpha virt. eigenvalues --    0.04983   0.11142   0.16464   0.21128   0.22818
 Alpha virt. eigenvalues --    0.24108   0.26414   0.26798   0.27405   0.27795
 Alpha virt. eigenvalues --    0.28819   0.30509   0.31485   0.31732   0.31904

 Mulliken charges:
               1
     1  C   -0.298546
     2  C   -0.299905
     3  C   -0.475120
     4  H    0.150843
     5  H    0.145516
     6  H    0.155034
     7  H    0.151572
     8  H    0.152235
     9  H    0.153989
    10  H    0.160985
    11  C   -0.298768
    12  C   -0.304513
    13  C   -0.474674
    14  H    0.154240
    15  H    0.148593
    16  H    0.157426
    17  H    0.144465
    18  H    0.153845
    19  H    0.162175
    20  H    0.155906
    21  C   -0.170444
    22  C   -0.217619
    23  C   -0.172187
    24  C    0.160436
    25  C   -0.172665
    26  C   -0.215897
    27  H    0.225887
    28  H    0.223859
    29  H    0.275691
    30  H    0.276633
    31  H    0.223908
    32  N    0.488104
    33  O   -0.460959
    34  O   -0.460045
 Sum of Mulliken charges =  -0.00000

 Dipole moment (field-independent basis, Debye):
    X=             -0.5752    Y=             -2.6445    Z=              4.3813  Tot=              5.1497
 Quadrupole moment (field-independent basis, Debye-Ang):
   XX=            -97.9099   YY=            -91.9553   ZZ=            -95.0415
   XY=             -6.0140   XZ=              8.9201   YZ=              2.1755

 Normal termination of Gaussian 16 at Thu May  6 15:33:52 2021.
