 Gaussian 16, Revision A.03,
 Gaussian 16:  EM64L-G16RevA.03 25-Dec-2016

 -------------
 #p 6-31g* mp2
 -------------

 ------------------------------------------------------
 Input file generated by CHIRIPA (05-May-2021 14:53:14)
 ------------------------------------------------------
 Symbolic Z-matrix:
 Charge =  0 Multiplicity = 1

                         Standard orientation:
 ---------------------------------------------------------------------
 Center     Atomic      Atomic             Coordinates (Angstroms)
 Number     Number       Type             X           Y           Z
 ---------------------------------------------------------------------
      1          6           0       -4.878019    0.112253   -0.303705
      2          6           0       -5.494706    0.947975    0.818459
      3          6           0       -7.009447    1.101165    0.677439
      4          1           0       -5.112427    0.578272   -1.270568
      5          1           0       -5.348613   -0.880646   -0.313022
      6          1           0       -5.022113    1.938533    0.826541
      7          1           0       -5.258641    0.480016    1.782774
      8          1           0       -7.498665    0.121845    0.691590
      9          1           0       -7.260793    1.588649   -0.270076
     10          1           0       -7.429569    1.702046    1.490027
     11          6           0       -3.364321   -0.049876   -0.176578
     12          6           0       -2.747634   -0.885598   -1.298741
     13          6           0       -1.232893   -1.038788   -1.157722
     14          1           0       -2.893727    0.943023   -0.167261
     15          1           0       -3.129914   -0.515896    0.790285
     16          1           0       -2.983699   -0.417639   -2.263057
     17          1           0       -3.220227   -1.876156   -1.306823
     18          1           0       -0.981547   -1.526272   -0.210207
     19          1           0       -0.743675   -0.059468   -1.171873
     20          1           0       -0.812771   -1.639669   -1.970310
     21          6           0        4.494088    2.028114   -0.539778
     22          6           0        3.917036    1.186790   -1.496703
     23          6           0        3.208682    0.046846   -1.105150
     24          6           0        3.096457   -0.222792    0.257932
     25          6           0        3.660066    0.596008    1.235276
     26          6           0        4.363991    1.730563    0.820758
     27          1           0        5.042634    2.911555   -0.852865
     28          1           0        4.016463    1.415391   -2.554011
     29          1           0        2.751956   -0.621624   -1.824848
     30          1           0        3.544001    0.341991    2.281899
     31          1           0        4.811090    2.382150    1.566133
     32          7           0        2.348900   -1.426746    0.684607
     33          8           0        2.264342   -1.642232    1.891692
     34          8           0        1.861676   -2.132122   -0.196129
 ---------------------------------------------------------------------

 SCF Done:  E(RHF) =  -669.535906154     A.U. after   15 cycles
 E2 =    -0.2091378883D+01 EUMP2 =    -0.67162728503687D+03

 The electronic state is 1-A.
 Alpha  occ. eigenvalues --  -20.60855 -20.60820 -15.85859 -11.31211 -11.27779
 Alpha  occ. eigenvalues --  -11.27771 -11.27525 -11.26795 -11.26784 -11.21251
 Alpha  occ. eigenvalues --  -11.20951 -11.20891 -11.20803 -11.20786 -11.20058
 Alpha  occ. eigenvalues --   -1.59896  -1.39451  -1.19383  -1.08783  -1.07915
 Alpha  occ. eigenvalues --   -1.04783  -1.02966  -0.95630  -0.95388  -0.86408
 Alpha  occ. eigenvalues --   -0.86182  -0.82455  -0.79045  -0.77730  -0.77492
 Alpha  occ. eigenvalues --   -0.72088  -0.71203  -0.70492  -0.65038  -0.64789
 Alpha  occ. eigenvalues --   -0.64550  -0.62130  -0.60364  -0.58791  -0.57014
 Alpha  occ. eigenvalues --   -0.55290  -0.54687  -0.53112  -0.52876  -0.52071
 Alpha  occ. eigenvalues --   -0.51830  -0.49371  -0.48845  -0.48826  -0.47368
 Alpha  occ. eigenvalues --   -0.46095  -0.45328  -0.45199  -0.44709  -0.43193
 Alpha  occ. eigenvalues --   -0.37361  -0.36385
 Alpha virt. eigenvalues --    0.05009   0.11246   0.16488   0.21350   0.23349
 Alpha virt. eigenvalues --    0.24813   0.27084   0.27227   0.27847   0.27988
 Alpha virt. eigenvalues --    0.28829   0.30870   0.31861   0.32028   0.32358

 Mulliken charges:
               1
     1  C   -0.297670
     2  C   -0.299272
     3  C   -0.475397
     4  H    0.147709
     5  H    0.149766
     6  H    0.150269
     7  H    0.152695
     8  H    0.155314
     9  H    0.154094
    10  H    0.159075
    11  C   -0.298119
    12  C   -0.301266
    13  C   -0.473515
    14  H    0.146125
    15  H    0.152360
    16  H    0.146455
    17  H    0.152266
    18  H    0.170924
    19  H    0.142696
    20  H    0.161135
    21  C   -0.170735
    22  C   -0.218796
    23  C   -0.170545
    24  C    0.158772
    25  C   -0.170972
    26  C   -0.218610
    27  H    0.225643
    28  H    0.223567
    29  H    0.276550
    30  H    0.275600
    31  H    0.223494
    32  N    0.488069
    33  O   -0.460521
    34  O   -0.457163
 Sum of Mulliken charges =  -0.00000

 Dipole moment (field-independent basis, Debye):
    X=              2.8189    Y=              4.1137    Z=             -1.4423  Tot=              5.1912
 Quadrupole moment (field-independent basis, Debye-Ang):
   XX=            -80.8559   YY=            -96.2471   ZZ=            -90.8429
   XY=             13.6292   XZ=             -3.2614   YZ=              2.1815

 Normal termination of Gaussian 16 at Wed May  5 17:06:51 2021.
