 Gaussian 16, Revision A.03,
 Gaussian 16:  EM64L-G16RevA.03 25-Dec-2016

 -------------
 #p 6-31g* mp2
 -------------

 ------------------------------------------------------
 Input file generated by CHIRIPA (05-May-2021 14:57:23)
 ------------------------------------------------------
 Symbolic Z-matrix:
 Charge =  0 Multiplicity = 1

                         Standard orientation:
 ---------------------------------------------------------------------
 Center     Atomic      Atomic             Coordinates (Angstroms)
 Number     Number       Type             X           Y           Z
 ---------------------------------------------------------------------
      1          6           0       -5.958644    0.803316   -1.294050
      2          6           0       -4.979150    1.644278   -0.755631
      3          6           0       -3.934124    1.118105    0.009621
      4          6           0       -3.899262   -0.259884    0.217519
      5          6           0       -4.860227   -1.123756   -0.305512
      6          6           0       -5.896167   -0.575586   -1.067671
      7          1           0       -6.766916    1.220603   -1.887315
      8          1           0       -5.025138    2.715535   -0.929807
      9          1           0       -3.162660    1.746207    0.438280
     10          1           0       -4.787695   -2.187589   -0.114684
     11          1           0       -6.655474   -1.231093   -1.484575
     12          7           0       -2.797750   -0.828563    1.026020
     13          8           0       -2.789569   -2.045991    1.194657
     14          8           0       -1.963422   -0.046098    1.475777
     15          6           0        2.016820    1.421942    0.642983
     16          6           0        3.250599    2.078210    0.582781
     17          6           0        4.400773    1.392354    0.181225
     18          6           0        4.280343    0.044754   -0.154576
     19          6           0        3.065372   -0.636897   -0.104713
     20          6           0        1.928300    0.068869    0.299649
     21          1           0        1.128425    1.962466    0.956011
     22          1           0        3.322326    3.128977    0.848839
     23          1           0        5.368519    1.875886    0.125693
     24          1           0        3.025287   -1.684843   -0.376044
     25          1           0        0.971451   -0.443366    0.345466
     26          7           0        5.491047   -0.691870   -0.581171
     27          8           0        5.358423   -1.878695   -0.871853
     28          8           0        6.549693   -0.068464   -0.616776
 ---------------------------------------------------------------------

 SCF Done:  E(RHF) =  -868.340068782     A.U. after   16 cycles
 E2 =    -0.2598390975D+01 EUMP2 =    -0.87093845975752D+03

 The electronic state is 1-A.
 Alpha  occ. eigenvalues --  -20.61910 -20.61850 -20.60137 -20.60127 -15.86903
 Alpha  occ. eigenvalues --  -15.85180 -11.32001 -11.30393 -11.28569 -11.28507
 Alpha  occ. eigenvalues --  -11.28209 -11.27494 -11.27458 -11.26976 -11.26863
 Alpha  occ. eigenvalues --  -11.26570 -11.25974 -11.25709  -1.60941  -1.59213
 Alpha  occ. eigenvalues --   -1.40503  -1.38771  -1.20144  -1.18529  -1.09584
 Alpha  occ. eigenvalues --   -1.07939  -1.05506  -1.03896  -0.96465  -0.94808
 Alpha  occ. eigenvalues --   -0.86916  -0.85285  -0.83309  -0.81641  -0.78392
 Alpha  occ. eigenvalues --   -0.76719  -0.73128  -0.72245  -0.71401  -0.71245
 Alpha  occ. eigenvalues --   -0.70534  -0.69611  -0.65799  -0.65502  -0.64165
 Alpha  occ. eigenvalues --   -0.63851  -0.62861  -0.61232  -0.56005  -0.54364
 Alpha  occ. eigenvalues --   -0.53847  -0.53593  -0.52254  -0.51958  -0.49898
 Alpha  occ. eigenvalues --   -0.49849  -0.48167  -0.48142  -0.45956  -0.44211
 Alpha  occ. eigenvalues --   -0.38099  -0.37096  -0.36495  -0.35506
 Alpha virt. eigenvalues --    0.04096   0.05786   0.10563   0.12153   0.15636
 Alpha virt. eigenvalues --    0.17334   0.20673   0.22376   0.26605   0.27402
 Alpha virt. eigenvalues --    0.28373   0.29077   0.30498   0.31613   0.32347

 Mulliken charges:
               1
     1  C   -0.169644
     2  C   -0.218113
     3  C   -0.170504
     4  C    0.157883
     5  C   -0.170190
     6  C   -0.218290
     7  H    0.228494
     8  H    0.225075
     9  H    0.271513
    10  H    0.277351
    11  H    0.226401
    12  N    0.488518
    13  O   -0.454653
    14  O   -0.470476
    15  C   -0.172385
    16  C   -0.219127
    17  C   -0.172886
    18  C    0.158184
    19  C   -0.172899
    20  C   -0.222792
    21  H    0.228259
    22  H    0.219351
    23  H    0.272407
    24  H    0.274835
    25  H    0.240274
    26  N    0.488118
    27  O   -0.461515
    28  O   -0.463191
 Sum of Mulliken charges =  -0.00000

 Dipole moment (field-independent basis, Debye):
    X=             -8.7426    Y=              4.4830    Z=             -1.3711  Tot=              9.9202
 Quadrupole moment (field-independent basis, Debye-Ang):
   XX=           -109.7326   YY=            -98.2359   ZZ=           -107.9866
   XY=              8.5760   XZ=             18.7312   YZ=              1.9656

 Normal termination of Gaussian 16 at Thu May  6 11:19:39 2021.
