 Gaussian 16, Revision A.03,
 Gaussian 16:  EM64L-G16RevA.03 25-Dec-2016

 -------------
 #p 6-31g* mp2
 -------------

 ------------------------------------------------------
 Input file generated by CHIRIPA (05-May-2021 14:57:23)
 ------------------------------------------------------
 Symbolic Z-matrix:
 Charge =  0 Multiplicity = 1

                         Standard orientation:
 ---------------------------------------------------------------------
 Center     Atomic      Atomic             Coordinates (Angstroms)
 Number     Number       Type             X           Y           Z
 ---------------------------------------------------------------------
      1          6           0        1.574893   -0.105691    0.320262
      2          6           0        2.401567    0.055847    1.436970
      3          6           0        3.792545    0.056417    1.296517
      4          6           0        4.325429   -0.107742    0.018872
      5          6           0        3.528275   -0.270910   -1.113033
      6          6           0        2.139889   -0.268268   -0.948938
      7          1           0        0.495355   -0.104886    0.438552
      8          1           0        1.965561    0.182308    2.423860
      9          1           0        4.455894    0.179514    2.144004
     10          1           0        3.992178   -0.394847   -2.084039
     11          1           0        1.500333   -0.393927   -1.817973
     12          7           0        5.796623   -0.108839   -0.142333
     13          8           0        6.241382   -0.255258   -1.278726
     14          8           0        6.477129    0.036740    0.870758
     15          6           0       -5.238798   -2.130456    0.100298
     16          6           0       -5.991068   -0.951403    0.121433
     17          6           0       -5.361267    0.294179    0.041291
     18          6           0       -3.971216    0.323925   -0.059530
     19          6           0       -3.194113   -0.833161   -0.083067
     20          6           0       -3.845178   -2.067681   -0.001705
     21          1           0       -5.736301   -3.093757    0.163027
     22          1           0       -7.073515   -0.997121    0.200575
     23          1           0       -5.919298    1.222521    0.055467
     24          1           0       -2.116589   -0.755623   -0.162745
     25          1           0       -3.258403   -2.981717   -0.018349
     26          7           0       -3.293219    1.636712   -0.145018
     27          8           0       -2.067305    1.635932   -0.233180
     28          8           0       -4.000555    2.641596   -0.122244
 ---------------------------------------------------------------------

 SCF Done:  E(RHF) =  -868.338393848     A.U. after   16 cycles
 E2 =    -0.2599193110D+01 EUMP2 =    -0.87093758695763D+03

 The electronic state is 1-A.
 Alpha  occ. eigenvalues --  -20.61789 -20.61734 -20.60456 -20.60451 -15.86805
 Alpha  occ. eigenvalues --  -15.85508 -11.32090 -11.30800 -11.28739 -11.28573
 Alpha  occ. eigenvalues --  -11.28299 -11.27639 -11.27565 -11.27374 -11.27371
 Alpha  occ. eigenvalues --  -11.27054 -11.26353 -11.26342  -1.60823  -1.59534
 Alpha  occ. eigenvalues --   -1.40388  -1.39089  -1.20235  -1.18965  -1.09630
 Alpha  occ. eigenvalues --   -1.08362  -1.05630  -1.04365  -0.96491  -0.95211
 Alpha  occ. eigenvalues --   -0.87029  -0.85760  -0.83332  -0.82052  -0.78412
 Alpha  occ. eigenvalues --   -0.77119  -0.73032  -0.72137  -0.71728  -0.71342
 Alpha  occ. eigenvalues --   -0.70856  -0.70045  -0.65887  -0.65623  -0.64616
 Alpha  occ. eigenvalues --   -0.64367  -0.62998  -0.61721  -0.56102  -0.54837
 Alpha  occ. eigenvalues --   -0.53948  -0.53706  -0.52687  -0.52457  -0.49795
 Alpha  occ. eigenvalues --   -0.49751  -0.48487  -0.48480  -0.45807  -0.44512
 Alpha  occ. eigenvalues --   -0.38180  -0.37225  -0.36914  -0.35973
 Alpha virt. eigenvalues --    0.04129   0.05423   0.10423   0.11689   0.15666
 Alpha virt. eigenvalues --    0.16929   0.18905   0.21842   0.25049   0.26972
 Alpha virt. eigenvalues --    0.27725   0.28933   0.30592   0.30939   0.32821

 Mulliken charges:
               1
     1  C   -0.174078
     2  C   -0.220090
     3  C   -0.170887
     4  C    0.157844
     5  C   -0.171181
     6  C   -0.219887
     7  H    0.236713
     8  H    0.223593
     9  H    0.274420
    10  H    0.274385
    11  H    0.222306
    12  N    0.488135
    13  O   -0.461463
    14  O   -0.461385
    15  C   -0.169929
    16  C   -0.218076
    17  C   -0.169655
    18  C    0.158146
    19  C   -0.172677
    20  C   -0.219780
    21  H    0.228793
    22  H    0.226693
    23  H    0.277935
    24  H    0.270167
    25  H    0.225351
    26  N    0.489916
    27  O   -0.471235
    28  O   -0.454074
 Sum of Mulliken charges =  -0.00000

 Dipole moment (field-independent basis, Debye):
    X=             -8.0154    Y=             -4.5891    Z=              0.8845  Tot=              9.2784
 Quadrupole moment (field-independent basis, Debye-Ang):
   XX=           -126.1933   YY=           -107.6825   ZZ=           -100.8950
   XY=             16.3531   XZ=              1.6236   YZ=              1.2093

 Normal termination of Gaussian 16 at Fri May  7 09:29:16 2021.
