 Gaussian 16, Revision A.03,
 Gaussian 16:  EM64L-G16RevA.03 25-Dec-2016

 -------------
 #p 6-31g* mp2
 -------------

 ------------------------------------------------------
 Input file generated by CHIRIPA (05-May-2021 14:51:10)
 ------------------------------------------------------
 Symbolic Z-matrix:
 Charge =  0 Multiplicity = 1

                         Standard orientation:
 ---------------------------------------------------------------------
 Center     Atomic      Atomic             Coordinates (Angstroms)
 Number     Number       Type             X           Y           Z
 ---------------------------------------------------------------------
      1          6           0        3.314605   -0.282282   -0.383361
      2          6           0        4.738457    0.198668   -0.101728
      3          6           0        5.486207    0.607686   -1.371125
      4          1           0        3.352233   -1.132232   -1.078425
      5          1           0        2.759956    0.516072   -0.895603
      6          1           0        5.289840   -0.599853    0.411066
      7          1           0        4.697447    1.047450    0.592896
      8          1           0        4.960948    1.420793   -1.882555
      9          1           0        5.556706   -0.235870   -2.065419
     10          1           0        6.501870    0.948160   -1.146698
     11          6           0        2.554278   -0.694696    0.875823
     12          6           0        1.130426   -1.175646    0.594190
     13          6           0        0.382676   -1.584664    1.863587
     14          1           0        3.108926   -1.493050    1.388065
     15          1           0        2.516650    0.155255    1.570887
     16          1           0        1.171436   -2.024428   -0.100434
     17          1           0        0.579043   -0.377125    0.081396
     18          1           0        0.312176   -0.741107    2.557881
     19          1           0        0.907935   -2.397770    2.375017
     20          1           0       -0.632987   -1.925137    1.639160
     21          6           0       -3.137216   -0.216206   -0.032409
     22          6           0       -3.496378   -1.126576   -1.207234
     23          6           0       -3.899925   -2.532983   -0.763432
     24          1           0       -2.316577   -0.671657    0.538609
     25          1           0       -3.996078   -0.154011    0.650147
     26          1           0       -2.637574   -1.185929   -1.888079
     27          1           0       -4.316129   -0.668812   -1.775633
     28          1           0       -4.771217   -2.492986   -0.101728
     29          1           0       -3.083125   -3.013042   -0.214813
     30          1           0       -4.152554   -3.166954   -1.619072
     31          6           0       -2.731667    1.193184   -0.460053
     32          6           0       -2.372505    2.103553    0.714772
     33          6           0       -1.968958    3.509961    0.270970
     34          1           0       -1.872805    1.130989   -1.142608
     35          1           0       -3.552306    1.648635   -1.031071
     36          1           0       -1.552754    1.645789    1.283171
     37          1           0       -3.231309    2.162908    1.395617
     38          1           0       -2.785758    3.990020   -0.277649
     39          1           0       -1.097666    3.469963   -0.390734
     40          1           0       -1.716329    4.143931    1.126610
 ---------------------------------------------------------------------

 SCF Done:  E(RHF) =  -470.733172003     A.U. after   11 cycles
 E2 =    -0.1583658146D+01 EUMP2 =    -0.47231683014805D+03

 The electronic state is 1-A.
 Alpha  occ. eigenvalues --  -11.21701 -11.21641 -11.21612 -11.21579 -11.21470
 Alpha  occ. eigenvalues --  -11.21409 -11.21387 -11.21303 -11.21159 -11.21102
 Alpha  occ. eigenvalues --  -11.21095 -11.21074  -1.08506  -1.08413  -1.03601
 Alpha  occ. eigenvalues --   -1.03530  -0.96060  -0.95968  -0.87073  -0.86989
 Alpha  occ. eigenvalues --   -0.79662  -0.79589  -0.78309  -0.78236  -0.65248
 Alpha  occ. eigenvalues --   -0.64970  -0.61022  -0.60908  -0.59456  -0.59319
 Alpha  occ. eigenvalues --   -0.57711  -0.57549  -0.55377  -0.55214  -0.52784
 Alpha  occ. eigenvalues --   -0.52670  -0.52511  -0.52356  -0.49995  -0.49910
 Alpha  occ. eigenvalues --   -0.48033  -0.47864  -0.46701  -0.46607  -0.45873
 Alpha  occ. eigenvalues --   -0.45806  -0.45698  -0.45663  -0.43826  -0.43775
 Alpha virt. eigenvalues --    0.19404   0.22874   0.23473   0.24349   0.26098
 Alpha virt. eigenvalues --    0.26588   0.26859   0.27536   0.28243   0.29264
 Alpha virt. eigenvalues --    0.30160   0.31456   0.31730   0.31906   0.32182

 Mulliken charges:
               1
     1  C   -0.298291
     2  C   -0.299743
     3  C   -0.475762
     4  H    0.149788
     5  H    0.149280
     6  H    0.152063
     7  H    0.152118
     8  H    0.155247
     9  H    0.155234
    10  H    0.160441
    11  C   -0.298214
    12  C   -0.303292
    13  C   -0.480272
    14  H    0.149998
    15  H    0.149880
    16  H    0.152306
    17  H    0.153945
    18  H    0.155848
    19  H    0.156200
    20  H    0.163278
    21  C   -0.307888
    22  C   -0.299250
    23  C   -0.476427
    24  H    0.160328
    25  H    0.149215
    26  H    0.152155
    27  H    0.151816
    28  H    0.155296
    29  H    0.154912
    30  H    0.160394
    31  C   -0.298248
    32  C   -0.301631
    33  C   -0.475578
    34  H    0.149495
    35  H    0.149725
    36  H    0.153211
    37  H    0.152226
    38  H    0.155439
    39  H    0.154580
    40  H    0.160175
 Sum of Mulliken charges =  -0.00000

 Dipole moment (field-independent basis, Debye):
    X=              0.0248    Y=             -0.0130    Z=              0.0153  Tot=              0.0319
 Quadrupole moment (field-independent basis, Debye-Ang):
   XX=            -84.2228   YY=            -85.0076   ZZ=            -85.4712
   XY=             -1.2055   XZ=              0.4884   YZ=              0.5606

 Normal termination of Gaussian 16 at Wed May  5 21:24:41 2021.
