 Gaussian 16, Revision A.03,
 Gaussian 16:  EM64L-G16RevA.03 25-Dec-2016

 -------------
 #p 6-31g* mp2
 -------------

 ------------------------------------------------------
 Input file generated by CHIRIPA (05-May-2021 14:51:11)
 ------------------------------------------------------
 Symbolic Z-matrix:
 Charge =  0 Multiplicity = 1

                         Standard orientation:
 ---------------------------------------------------------------------
 Center     Atomic      Atomic             Coordinates (Angstroms)
 Number     Number       Type             X           Y           Z
 ---------------------------------------------------------------------
      1          6           0        3.952538   -0.635390   -0.205868
      2          6           0        3.410044   -1.838299    0.566592
      3          6           0        3.843985   -3.173834   -0.038253
      4          1           0        3.613510   -0.694448   -1.249188
      5          1           0        5.049791   -0.688654   -0.230274
      6          1           0        2.314203   -1.782046    0.590720
      7          1           0        3.750245   -1.776270    1.608240
      8          1           0        4.935672   -3.255872   -0.047723
      9          1           0        3.491470   -3.261682   -1.071025
     10          1           0        3.445077   -4.020207    0.529536
     11          6           0        3.527308    0.706934    0.386647
     12          6           0        4.069802    1.909844   -0.385813
     13          6           0        3.635861    3.245378    0.219032
     14          1           0        2.430056    0.760198    0.411052
     15          1           0        3.866336    0.765992    1.429967
     16          1           0        3.729601    1.847814   -1.427461
     17          1           0        5.165644    1.853591   -0.409941
     18          1           0        3.988376    3.333226    1.251804
     19          1           0        2.544174    3.327417    0.228502
     20          1           0        4.034769    4.091752   -0.348757
     21          6           0       -4.372210    0.375516    0.029975
     22          6           0       -5.646951   -0.468181    0.064526
     23          6           0       -6.903464    0.368824    0.306168
     24          1           0       -4.274770    0.920192    0.979069
     25          1           0       -4.464979    1.135330   -0.758360
     26          1           0       -5.551241   -1.227066    0.851640
     27          1           0       -5.741267   -1.011060   -0.884687
     28          1           0       -7.026535    1.116048   -0.484472
     29          1           0       -6.835430    0.898815    1.261720
     30          1           0       -7.803016   -0.254257    0.327102
     31          6           0       -3.107636   -0.447061   -0.210754
     32          6           0       -1.832895    0.396637   -0.245305
     33          6           0       -0.576382   -0.440369   -0.486946
     34          1           0       -3.014867   -1.206874    0.577581
     35          1           0       -3.205076   -0.991736   -1.159847
     36          1           0       -1.738579    0.939516    0.703908
     37          1           0       -1.928606    1.155521   -1.032420
     38          1           0       -0.644417   -0.970359   -1.442499
     39          1           0       -0.453311   -1.187593    0.303693
     40          1           0        0.323169    0.182712   -0.507881
 ---------------------------------------------------------------------

 SCF Done:  E(RHF) =  -470.733147683     A.U. after   11 cycles
 E2 =    -0.1583036788D+01 EUMP2 =    -0.47231618447069D+03

 The electronic state is 1-A.
 Alpha  occ. eigenvalues --  -11.21675 -11.21628 -11.21579 -11.21502 -11.21449
 Alpha  occ. eigenvalues --  -11.21388 -11.21349 -11.21289 -11.21166 -11.21091
 Alpha  occ. eigenvalues --  -11.21061 -11.21005  -1.08480  -1.08380  -1.03586
 Alpha  occ. eigenvalues --   -1.03480  -0.96044  -0.95931  -0.87060  -0.86950
 Alpha  occ. eigenvalues --   -0.79657  -0.79541  -0.78293  -0.78188  -0.65117
 Alpha  occ. eigenvalues --   -0.65031  -0.60992  -0.60870  -0.59419  -0.59303
 Alpha  occ. eigenvalues --   -0.57691  -0.57511  -0.55323  -0.55231  -0.52776
 Alpha  occ. eigenvalues --   -0.52609  -0.52493  -0.52323  -0.49991  -0.49870
 Alpha  occ. eigenvalues --   -0.48014  -0.47822  -0.46718  -0.46535  -0.45831
 Alpha  occ. eigenvalues --   -0.45776  -0.45722  -0.45634  -0.43788  -0.43714
 Alpha virt. eigenvalues --    0.20902   0.22990   0.23951   0.24409   0.25991
 Alpha virt. eigenvalues --    0.26588   0.27189   0.27379   0.27896   0.29069
 Alpha virt. eigenvalues --    0.29876   0.31476   0.31733   0.31965   0.32263

 Mulliken charges:
               1
     1  C   -0.297563
     2  C   -0.304423
     3  C   -0.475470
     4  H    0.149679
     5  H    0.149272
     6  H    0.157940
     7  H    0.151172
     8  H    0.154759
     9  H    0.155259
    10  H    0.159813
    11  C   -0.305386
    12  C   -0.299505
    13  C   -0.475592
    14  H    0.155439
    15  H    0.149716
    16  H    0.151681
    17  H    0.152033
    18  H    0.155225
    19  H    0.154735
    20  H    0.160227
    21  C   -0.298320
    22  C   -0.299688
    23  C   -0.475737
    24  H    0.149808
    25  H    0.149598
    26  H    0.152018
    27  H    0.151983
    28  H    0.155221
    29  H    0.155255
    30  H    0.160356
    31  C   -0.298698
    32  C   -0.299750
    33  C   -0.483380
    34  H    0.149766
    35  H    0.149777
    36  H    0.152387
    37  H    0.152032
    38  H    0.155630
    39  H    0.156454
    40  H    0.166279
 Sum of Mulliken charges =  -0.00000

 Dipole moment (field-independent basis, Debye):
    X=             -0.0474    Y=             -0.0011    Z=             -0.0022  Tot=              0.0474
 Quadrupole moment (field-independent basis, Debye-Ang):
   XX=            -85.2281   YY=            -86.1464   ZZ=            -83.5244
   XY=              0.7223   XZ=              0.8410   YZ=             -0.5293

 Normal termination of Gaussian 16 at Thu May  6 03:52:42 2021.
