 Gaussian 16, Revision A.03,
 Gaussian 16:  EM64L-G16RevA.03 25-Dec-2016

 -------------
 #p 6-31g* mp2
 -------------

 ------------------------------------------------------
 Input file generated by CHIRIPA (05-May-2021 14:55:21)
 ------------------------------------------------------
 Symbolic Z-matrix:
 Charge =  0 Multiplicity = 1

                         Standard orientation:
 ---------------------------------------------------------------------
 Center     Atomic      Atomic             Coordinates (Angstroms)
 Number     Number       Type             X           Y           Z
 ---------------------------------------------------------------------
      1          6           0        0.890241    1.214581    2.251217
      2          6           0        0.605078   -0.139832    2.049302
      3          6           0        1.164194   -0.829840    0.969567
      4          6           0        2.008012   -0.131236    0.107469
      5          6           0        2.311325    1.218146    0.281994
      6          6           0        1.740954    1.888060    1.368475
      7          1           0        0.451534    1.742791    3.092601
      8          1           0       -0.055249   -0.665417    2.733241
      9          1           0        0.960371   -1.878427    0.789737
     10          1           0        2.973244    1.715178   -0.416748
     11          1           0        1.964191    2.939910    1.522820
     12          7           0        2.605880   -0.851080   -1.039168
     13          8           0        3.346185   -0.212899   -1.784361
     14          8           0        2.322865   -2.039844   -1.170998
     15          6           0       -2.281620    0.556787   -0.893951
     16          6           0       -2.486822    1.977179   -0.366349
     17          6           0       -2.157609    3.047728   -1.407185
     18          1           0       -1.239921    0.441786   -1.223471
     19          1           0       -2.909048    0.409476   -1.783910
     20          1           0       -1.860236    2.121314    0.523162
     21          1           0       -3.528104    2.088753   -0.037870
     22          1           0       -2.791506    2.932305   -2.292314
     23          1           0       -1.114161    2.965051   -1.728094
     24          1           0       -2.311239    4.055533   -1.008953
     25          6           0       -2.606639   -0.524539    0.135041
     26          6           0       -2.401437   -1.944932   -0.392561
     27          6           0       -2.730650   -3.015480    0.648274
     28          1           0       -1.979210   -0.377229    1.025000
     29          1           0       -3.648338   -0.409539    0.464561
     30          1           0       -1.360154   -2.056505   -0.721040
     31          1           0       -3.028022   -2.089066   -1.282072
     32          1           0       -3.774097   -2.932804    0.969184
     33          1           0       -2.096753   -2.900058    1.533404
     34          1           0       -2.577019   -4.023285    0.250043
 ---------------------------------------------------------------------

 SCF Done:  E(RHF) =  -669.534797725     A.U. after   15 cycles
 E2 =    -0.2095665507D+01 EUMP2 =    -0.67163046323193D+03

 The electronic state is 1-A.
 Alpha  occ. eigenvalues --  -20.60911 -20.60906 -15.85962 -11.31372 -11.27918
 Alpha  occ. eigenvalues --  -11.27915 -11.27670 -11.26955 -11.26943 -11.21791
 Alpha  occ. eigenvalues --  -11.21773 -11.21545 -11.21465 -11.21461 -11.21257
 Alpha  occ. eigenvalues --   -1.59983  -1.39535  -1.19547  -1.08937  -1.08612
 Alpha  occ. eigenvalues --   -1.04953  -1.03755  -0.96211  -0.95755  -0.87230
 Alpha  occ. eigenvalues --   -0.86346  -0.82588  -0.79808  -0.78436  -0.77627
 Alpha  occ. eigenvalues --   -0.72176  -0.71309  -0.70636  -0.65351  -0.65166
 Alpha  occ. eigenvalues --   -0.64940  -0.62322  -0.61117  -0.59572  -0.57817
 Alpha  occ. eigenvalues --   -0.55569  -0.55431  -0.53231  -0.53051  -0.52904
 Alpha  occ. eigenvalues --   -0.52618  -0.50173  -0.48941  -0.48931  -0.48134
 Alpha  occ. eigenvalues --   -0.46844  -0.45962  -0.45919  -0.44921  -0.43982
 Alpha  occ. eigenvalues --   -0.37464  -0.36453
 Alpha virt. eigenvalues --    0.04863   0.10969   0.16263   0.19656   0.22996
 Alpha virt. eigenvalues --    0.23497   0.25791   0.26439   0.27328   0.28580
 Alpha virt. eigenvalues --    0.28838   0.29663   0.31336   0.31558   0.32081

 Mulliken charges:
               1
     1  C   -0.171238
     2  C   -0.219386
     3  C   -0.169656
     4  C    0.158796
     5  C   -0.171712
     6  C   -0.217852
     7  H    0.227137
     8  H    0.225762
     9  H    0.278106
    10  H    0.276392
    11  H    0.224777
    12  N    0.488064
    13  O   -0.459476
    14  O   -0.460391
    15  C   -0.297898
    16  C   -0.300579
    17  C   -0.475895
    18  H    0.152350
    19  H    0.151166
    20  H    0.148407
    21  H    0.150453
    22  H    0.157198
    23  H    0.155993
    24  H    0.157635
    25  C   -0.301108
    26  C   -0.305621
    27  C   -0.474718
    28  H    0.146629
    29  H    0.148063
    30  H    0.157556
    31  H    0.155963
    32  H    0.156622
    33  H    0.143186
    34  H    0.165279
 Sum of Mulliken charges =  -0.00000

 Dipole moment (field-independent basis, Debye):
    X=             -1.9882    Y=              2.5160    Z=              3.9765  Tot=              5.1084
 Quadrupole moment (field-independent basis, Debye-Ang):
   XX=           -101.9303   YY=            -92.9405   ZZ=            -94.3150
   XY=              7.7426   XZ=              7.9098   YZ=             -0.7713

 Normal termination of Gaussian 16 at Thu May  6 19:09:44 2021.
