 Gaussian 16, Revision A.03,
 Gaussian 16:  EM64L-G16RevA.03 25-Dec-2016

 -------------
 #p 6-31g* mp2
 -------------

 ------------------------------------------------------
 Input file generated by CHIRIPA (05-May-2021 14:51:09)
 ------------------------------------------------------
 Symbolic Z-matrix:
 Charge =  0 Multiplicity = 1

                         Standard orientation:
 ---------------------------------------------------------------------
 Center     Atomic      Atomic             Coordinates (Angstroms)
 Number     Number       Type             X           Y           Z
 ---------------------------------------------------------------------
      1          6           0       -4.105281   -0.103483    0.476279
      2          6           0       -4.888416   -1.057727   -0.425996
      3          6           0       -5.718347   -2.070433    0.363583
      4          1           0       -3.445958   -0.687810    1.132633
      5          1           0       -4.807665    0.428826    1.132556
      6          1           0       -4.184890   -1.587067   -1.081333
      7          1           0       -5.545811   -0.471050   -1.080411
      8          1           0       -6.442407   -1.558237    1.005450
      9          1           0       -5.073754   -2.680595    1.004523
     10          1           0       -6.270021   -2.742621   -0.301006
     11          6           0       -3.270714    0.914864   -0.298445
     12          6           0       -2.487579    1.869109    0.603831
     13          6           0       -1.657648    2.881815   -0.185749
     14          1           0       -2.568330    0.382555   -0.954721
     15          1           0       -3.930037    1.499191   -0.954798
     16          1           0       -1.830184    1.282432    1.258246
     17          1           0       -3.191105    2.398449    1.259167
     18          1           0       -2.302241    3.491977   -0.826688
     19          1           0       -0.933588    2.369618   -0.827615
     20          1           0       -1.105973    3.554002    0.478840
     21          6           0        3.047452   -0.818821   -0.039350
     22          6           0        1.813394   -0.090568   -0.572955
     23          6           0        0.539795   -0.929920   -0.467002
     24          1           0        3.178796   -1.758538   -0.593088
     25          1           0        2.875966   -1.095755    1.010076
     26          1           0        1.987701    0.186131   -1.620653
     27          1           0        1.685083    0.847616   -0.018012
     28          1           0        0.338474   -1.194528    0.576096
     29          1           0        0.642811   -1.859772   -1.035652
     30          1           0       -0.330098   -0.390155   -0.854045
     31          6           0        4.328543    0.007439   -0.138484
     32          6           0        5.562601   -0.720814    0.395120
     33          6           0        6.836201    0.118539    0.289168
     34          1           0        4.500029    0.284374   -1.187910
     35          1           0        4.197199    0.947156    0.415254
     36          1           0        5.690912   -1.658998   -0.159823
     37          1           0        5.388294   -0.997513    1.442819
     38          1           0        6.733182    1.048391    0.857816
     39          1           0        7.037521    0.383147   -0.753931
     40          1           0        7.706093   -0.421227    0.676211
 ---------------------------------------------------------------------

 SCF Done:  E(RHF) =  -470.733164254     A.U. after   11 cycles
 E2 =    -0.1583290618D+01 EUMP2 =    -0.47231645487162D+03

 The electronic state is 1-A.
 Alpha  occ. eigenvalues --  -11.21650 -11.21618 -11.21575 -11.21568 -11.21435
 Alpha  occ. eigenvalues --  -11.21374 -11.21373 -11.21315 -11.21135 -11.21082
 Alpha  occ. eigenvalues --  -11.21060 -11.21043  -1.08468  -1.08401  -1.03584
 Alpha  occ. eigenvalues --   -1.03491  -0.96021  -0.95956  -0.87052  -0.86961
 Alpha  occ. eigenvalues --   -0.79631  -0.79566  -0.78272  -0.78224  -0.65137
 Alpha  occ. eigenvalues --   -0.65033  -0.61060  -0.60870  -0.59404  -0.59266
 Alpha  occ. eigenvalues --   -0.57615  -0.57567  -0.55316  -0.55235  -0.52740
 Alpha  occ. eigenvalues --   -0.52650  -0.52448  -0.52374  -0.49987  -0.49874
 Alpha  occ. eigenvalues --   -0.47968  -0.47867  -0.46686  -0.46566  -0.45817
 Alpha  occ. eigenvalues --   -0.45756  -0.45741  -0.45672  -0.43779  -0.43753
 Alpha virt. eigenvalues --    0.20146   0.23076   0.23661   0.25381   0.26056
 Alpha virt. eigenvalues --    0.26369   0.26730   0.27317   0.28187   0.29056
 Alpha virt. eigenvalues --    0.30711   0.31148   0.31769   0.31871   0.32015

 Mulliken charges:
               1
     1  C   -0.298181
     2  C   -0.299771
     3  C   -0.475717
     4  H    0.150260
     5  H    0.149349
     6  H    0.152330
     7  H    0.151731
     8  H    0.155019
     9  H    0.155309
    10  H    0.160150
    11  C   -0.303016
    12  C   -0.300552
    13  C   -0.478410
    14  H    0.153234
    15  H    0.149737
    16  H    0.153403
    17  H    0.152043
    18  H    0.155154
    19  H    0.157622
    20  H    0.159973
    21  C   -0.298642
    22  C   -0.300390
    23  C   -0.483896
    24  H    0.149744
    25  H    0.149547
    26  H    0.151961
    27  H    0.153712
    28  H    0.154975
    29  H    0.155374
    30  H    0.167490
    31  C   -0.298311
    32  C   -0.299671
    33  C   -0.475727
    34  H    0.149636
    35  H    0.149854
    36  H    0.151952
    37  H    0.151939
    38  H    0.155251
    39  H    0.155237
    40  H    0.160302
 Sum of Mulliken charges =  -0.00000

 Dipole moment (field-independent basis, Debye):
    X=              0.0180    Y=             -0.0044    Z=             -0.0006  Tot=              0.0186
 Quadrupole moment (field-independent basis, Debye-Ang):
   XX=            -85.5836   YY=            -85.1152   ZZ=            -84.0873
   XY=             -1.5597   XZ=              0.1180   YZ=              0.7160

 Normal termination of Gaussian 16 at Thu May  6 06:54:24 2021.
