 Gaussian 16, Revision A.03,
 Gaussian 16:  EM64L-G16RevA.03 25-Dec-2016

 -------------
 #p 6-31g* mp2
 -------------

 ------------------------------------------------------
 Input file generated by CHIRIPA (05-May-2021 14:51:12)
 ------------------------------------------------------
 Symbolic Z-matrix:
 Charge =  0 Multiplicity = 1

                         Standard orientation:
 ---------------------------------------------------------------------
 Center     Atomic      Atomic             Coordinates (Angstroms)
 Number     Number       Type             X           Y           Z
 ---------------------------------------------------------------------
      1          6           0       -3.252206    0.239757   -0.163559
      2          6           0       -2.058233    0.043074    0.771175
      3          6           0       -0.800318    0.761966    0.282669
      4          1           0       -2.987819   -0.121689   -1.166754
      5          1           0       -3.458160    1.314529   -0.262775
      6          1           0       -1.855461   -1.031074    0.869692
      7          1           0       -2.325558    0.404855    1.772309
      8          1           0       -0.979038    1.839052    0.201755
      9          1           0       -0.506269    0.394964   -0.705990
     10          1           0        0.040892    0.608016    0.965695
     11          6           0       -4.517229   -0.472916    0.311353
     12          6           0       -5.711203   -0.276233   -0.623381
     13          6           0       -6.969117   -0.995125   -0.134874
     14          1           0       -4.311275   -1.547688    0.410569
     15          1           0       -4.781616   -0.111470    1.314549
     16          1           0       -5.443877   -0.638014   -1.624514
     17          1           0       -5.913975    0.797915   -0.721897
     18          1           0       -7.263166   -0.628124    0.853785
     19          1           0       -6.790397   -2.072211   -0.053961
     20          1           0       -7.810327   -0.841176   -0.817901
     21          6           0        3.515031    0.677249    0.289989
     22          6           0        3.108403    1.830768   -0.627635
     23          6           0        2.369760    2.944689    0.114916
     24          1           0        2.617200    0.266162    0.771499
     25          1           0        4.151817    1.066452    1.096475
     26          1           0        2.473707    1.439279   -1.432936
     27          1           0        4.007285    2.239034   -1.107163
     28          1           0        2.999149    3.362646    0.907244
     29          1           0        1.456857    2.558346    0.579619
     30          1           0        2.088423    3.759080   -0.559974
     31          6           0        4.254404   -0.444090   -0.437784
     32          6           0        4.661032   -1.597609    0.479840
     33          6           0        5.399675   -2.711529   -0.262711
     34          1           0        3.617618   -0.833293   -1.244269
     35          1           0        5.152235   -0.033002   -0.919293
     36          1           0        3.762150   -2.005875    0.959369
     37          1           0        5.295729   -1.206119    1.285142
     38          1           0        6.312579   -2.325187   -0.727414
     39          1           0        4.770286   -3.129486   -1.055038
     40          1           0        5.681012   -3.525920    0.412179
 ---------------------------------------------------------------------

 SCF Done:  E(RHF) =  -470.732548758     A.U. after   11 cycles
 E2 =    -0.1583343354D+01 EUMP2 =    -0.47231589211230D+03

 The electronic state is 1-A.
 Alpha  occ. eigenvalues --  -11.21670 -11.21632 -11.21571 -11.21485 -11.21454
 Alpha  occ. eigenvalues --  -11.21392 -11.21344 -11.21278 -11.21174 -11.21095
 Alpha  occ. eigenvalues --  -11.21050 -11.20850  -1.08485  -1.08358  -1.03607
 Alpha  occ. eigenvalues --   -1.03434  -0.96072  -0.95876  -0.87100  -0.86892
 Alpha  occ. eigenvalues --   -0.79699  -0.79483  -0.78296  -0.78175  -0.65113
 Alpha  occ. eigenvalues --   -0.65004  -0.61003  -0.60888  -0.59455  -0.59207
 Alpha  occ. eigenvalues --   -0.57656  -0.57510  -0.55439  -0.55116  -0.52786
 Alpha  occ. eigenvalues --   -0.52591  -0.52477  -0.52280  -0.50126  -0.49689
 Alpha  occ. eigenvalues --   -0.47970  -0.47823  -0.46739  -0.46474  -0.45838
 Alpha  occ. eigenvalues --   -0.45758  -0.45716  -0.45641  -0.43768  -0.43696
 Alpha virt. eigenvalues --    0.21328   0.22991   0.23777   0.24781   0.26184
 Alpha virt. eigenvalues --    0.26400   0.26835   0.27603   0.27937   0.29010
 Alpha virt. eigenvalues --    0.30493   0.31053   0.31132   0.31879   0.32206

 Mulliken charges:
               1
     1  C   -0.298878
     2  C   -0.299795
     3  C   -0.481451
     4  H    0.149644
     5  H    0.149893
     6  H    0.151901
     7  H    0.152391
     8  H    0.157446
     9  H    0.155928
    10  H    0.163992
    11  C   -0.298323
    12  C   -0.299662
    13  C   -0.475734
    14  H    0.149575
    15  H    0.149795
    16  H    0.151968
    17  H    0.152040
    18  H    0.155250
    19  H    0.155210
    20  H    0.160372
    21  C   -0.302250
    22  C   -0.298718
    23  C   -0.482858
    24  H    0.152606
    25  H    0.149140
    26  H    0.152245
    27  H    0.151245
    28  H    0.153496
    29  H    0.165284
    30  H    0.158792
    31  C   -0.297936
    32  C   -0.299608
    33  C   -0.475643
    34  H    0.149265
    35  H    0.149571
    36  H    0.151653
    37  H    0.151860
    38  H    0.155174
    39  H    0.155030
    40  H    0.160090
 Sum of Mulliken charges =  -0.00000

 Dipole moment (field-independent basis, Debye):
    X=             -0.0748    Y=             -0.0100    Z=              0.0067  Tot=              0.0758
 Quadrupole moment (field-independent basis, Debye-Ang):
   XX=            -85.3642   YY=            -85.0026   ZZ=            -84.6932
   XY=              0.0883   XZ=              0.4547   YZ=              0.3110

 Normal termination of Gaussian 16 at Wed May  5 19:53:46 2021.
