 Gaussian 16, Revision A.03,
 Gaussian 16:  EM64L-G16RevA.03 25-Dec-2016

 -------------
 #p 6-31g* mp2
 -------------

 ------------------------------------------------------
 Input file generated by CHIRIPA (05-May-2021 14:55:22)
 ------------------------------------------------------
 Symbolic Z-matrix:
 Charge =  0 Multiplicity = 1

                         Standard orientation:
 ---------------------------------------------------------------------
 Center     Atomic      Atomic             Coordinates (Angstroms)
 Number     Number       Type             X           Y           Z
 ---------------------------------------------------------------------
      1          6           0       -5.524854   -1.417060   -0.489809
      2          6           0       -4.285199   -1.870981   -0.027497
      3          6           0       -3.250216   -0.967733    0.232312
      4          6           0       -3.490577    0.388561    0.017871
      5          6           0       -4.714625    0.871735   -0.442061
      6          6           0       -5.735240   -0.049561   -0.695254
      7          1           0       -6.323273   -2.125735   -0.689065
      8          1           0       -4.118967   -2.932426    0.132956
      9          1           0       -2.280766   -1.291858    0.590819
     10          1           0       -4.850367    1.935859   -0.592505
     11          1           0       -6.696950    0.305819   -1.054228
     12          7           0       -2.402492    1.354343    0.289417
     13          8           0       -2.639550    2.544155    0.092471
     14          8           0       -1.333196    0.903223    0.694059
     15          6           0        4.099477   -0.254024    0.507967
     16          6           0        2.870684   -1.007179   -0.002729
     17          6           0        1.682574   -0.918701    0.955582
     18          1           0        4.386974   -0.656674    1.488867
     19          1           0        3.834295    0.800181    0.668356
     20          1           0        3.138475   -2.059357   -0.163421
     21          1           0        2.586194   -0.602817   -0.982614
     22          1           0        1.387435    0.124497    1.108001
     23          1           0        1.942855   -1.340320    1.931847
     24          1           0        0.815063   -1.463978    0.570927
     25          6           0        5.295483   -0.333210   -0.439148
     26          6           0        6.524277    0.419944    0.071549
     27          6           0        7.712387    0.331468   -0.886763
     28          1           0        5.560667   -1.387415   -0.599536
     29          1           0        5.007985    0.069440   -1.420047
     30          1           0        6.808767    0.015582    1.051433
     31          1           0        6.256486    1.472123    0.232242
     32          1           0        7.452105    0.753086   -1.863027
     33          1           0        8.007525   -0.711730   -1.039181
     34          1           0        8.579896    0.876744   -0.502107
 ---------------------------------------------------------------------

 SCF Done:  E(RHF) =  -669.535690418     A.U. after   15 cycles
 E2 =    -0.2091007489D+01 EUMP2 =    -0.67162669790710D+03

 The electronic state is 1-A.
 Alpha  occ. eigenvalues --  -20.60843 -20.60836 -15.85884 -11.31233 -11.27802
 Alpha  occ. eigenvalues --  -11.27795 -11.27544 -11.26815 -11.26805 -11.21124
 Alpha  occ. eigenvalues --  -11.20834 -11.20808 -11.20678 -11.20671 -11.19960
 Alpha  occ. eigenvalues --   -1.59914  -1.39468  -1.19405  -1.08806  -1.07794
 Alpha  occ. eigenvalues --   -1.04806  -1.02853  -0.95651  -0.95279  -0.86301
 Alpha  occ. eigenvalues --   -0.86204  -0.82476  -0.78935  -0.77619  -0.77497
 Alpha  occ. eigenvalues --   -0.72115  -0.71231  -0.70514  -0.65063  -0.64810
 Alpha  occ. eigenvalues --   -0.64420  -0.62154  -0.60234  -0.58695  -0.56913
 Alpha  occ. eigenvalues --   -0.55310  -0.54545  -0.53137  -0.52902  -0.51991
 Alpha  occ. eigenvalues --   -0.51709  -0.49241  -0.48861  -0.48818  -0.47237
 Alpha  occ. eigenvalues --   -0.45955  -0.45141  -0.45053  -0.44863  -0.43122
 Alpha  occ. eigenvalues --   -0.37387  -0.36409
 Alpha virt. eigenvalues --    0.05005   0.11243   0.16498   0.21016   0.23466
 Alpha virt. eigenvalues --    0.24469   0.26385   0.27283   0.27665   0.28138
 Alpha virt. eigenvalues --    0.29229   0.30260   0.31546   0.32136   0.32420

 Mulliken charges:
               1
     1  C   -0.170533
     2  C   -0.219195
     3  C   -0.172382
     4  C    0.157231
     5  C   -0.170481
     6  C   -0.218719
     7  H    0.225761
     8  H    0.223826
     9  H    0.278728
    10  H    0.275662
    11  H    0.223568
    12  N    0.493029
    13  O   -0.460241
    14  O   -0.464336
    15  C   -0.298575
    16  C   -0.299818
    17  C   -0.475914
    18  H    0.147590
    19  H    0.153329
    20  H    0.145498
    21  H    0.152103
    22  H    0.179807
    23  H    0.147375
    24  H    0.150720
    25  C   -0.297749
    26  C   -0.299381
    27  C   -0.475375
    28  H    0.147201
    29  H    0.149441
    30  H    0.150978
    31  H    0.152918
    32  H    0.154887
    33  H    0.153896
    34  H    0.159152
 Sum of Mulliken charges =  -0.00000

 Dipole moment (field-independent basis, Debye):
    X=             -4.0256    Y=             -3.2558    Z=             -0.9298  Tot=              5.2603
 Quadrupole moment (field-independent basis, Debye-Ang):
   XX=            -68.1721   YY=            -94.3694   ZZ=            -95.4570
   XY=              8.0927   XZ=              5.1210   YZ=             -1.9251

 Normal termination of Gaussian 16 at Thu May  6 10:57:11 2021.
