 Gaussian 16, Revision A.03,
 Gaussian 16:  EM64L-G16RevA.03 25-Dec-2016

 -------------
 #p 6-31g* mp2
 -------------

 ------------------------------------------------------
 Input file generated by CHIRIPA (05-May-2021 14:57:27)
 ------------------------------------------------------
 Symbolic Z-matrix:
 Charge =  0 Multiplicity = 1

                         Standard orientation:
 ---------------------------------------------------------------------
 Center     Atomic      Atomic             Coordinates (Angstroms)
 Number     Number       Type             X           Y           Z
 ---------------------------------------------------------------------
      1          6           0        2.731880    2.370294    0.884397
      2          6           0        1.763461    1.464888    0.438387
      3          6           0        2.140262    0.237405   -0.114655
      4          6           0        3.500472   -0.053477   -0.206882
      5          6           0        4.489025    0.827671    0.228586
      6          6           0        4.089178    2.049362    0.778260
      7          1           0        2.430221    3.321583    1.312705
      8          1           0        0.708635    1.711458    0.519563
      9          1           0        1.411450   -0.481999   -0.467797
     10          1           0        5.532828    0.553740    0.134489
     11          1           0        4.843456    2.750576    1.123814
     12          7           0        3.911573   -1.349892   -0.790580
     13          8           0        5.116420   -1.582405   -0.860707
     14          8           0        3.021162   -2.108962   -1.166902
     15          6           0       -2.109066   -1.818906    1.475423
     16          6           0       -3.401928   -2.138002    1.047398
     17          6           0       -4.144516   -1.226653    0.290726
     18          6           0       -3.560683    0.000171   -0.021257
     19          6           0       -2.274911    0.347368    0.390489
     20          6           0       -1.550668   -0.579425    1.146183
     21          1           0       -1.539330   -2.532863    2.062845
     22          1           0       -3.838129   -3.099850    1.301607
     23          1           0       -5.147471   -1.447854   -0.053612
     24          1           0       -1.866873    1.314082    0.121442
     25          1           0       -0.546830   -0.328904    1.477233
     26          7           0       -4.337118    0.973150   -0.821794
     27          8           0       -3.800144    2.047316   -1.083448
     28          8           0       -5.467960    0.643182   -1.172444
 ---------------------------------------------------------------------

 SCF Done:  E(RHF) =  -868.336910743     A.U. after   16 cycles
 E2 =    -0.2601043028D+01 EUMP2 =    -0.87093795377121D+03

 The electronic state is 1-A.
 Alpha  occ. eigenvalues --  -20.61299 -20.61288 -20.61207 -20.61191 -15.86357
 Alpha  occ. eigenvalues --  -15.86259 -11.31814 -11.31697 -11.28452 -11.28404
 Alpha  occ. eigenvalues --  -11.28385 -11.28218 -11.28156 -11.27958 -11.27542
 Alpha  occ. eigenvalues --  -11.27374 -11.27331 -11.27195  -1.60372  -1.60274
 Alpha  occ. eigenvalues --   -1.39922  -1.39827  -1.20018  -1.19866  -1.09379
 Alpha  occ. eigenvalues --   -1.09224  -1.05496  -1.05273  -0.96194  -0.96059
 Alpha  occ. eigenvalues --   -0.86833  -0.86682  -0.83119  -0.82852  -0.78196
 Alpha  occ. eigenvalues --   -0.77856  -0.72571  -0.72476  -0.71699  -0.71596
 Alpha  occ. eigenvalues --   -0.71092  -0.70953  -0.65706  -0.65600  -0.65406
 Alpha  occ. eigenvalues --   -0.65298  -0.63108  -0.62320  -0.55911  -0.55712
 Alpha  occ. eigenvalues --   -0.53814  -0.53618  -0.53515  -0.53323  -0.49339
 Alpha  occ. eigenvalues --   -0.49319  -0.49240  -0.49224  -0.45308  -0.45219
 Alpha  occ. eigenvalues --   -0.37971  -0.37793  -0.37059  -0.36905
 Alpha virt. eigenvalues --    0.04438   0.04596   0.10535   0.10765   0.15744
 Alpha virt. eigenvalues --    0.16009   0.18637   0.22123   0.24556   0.27075
 Alpha virt. eigenvalues --    0.28095   0.28852   0.30579   0.31026   0.31795

 Mulliken charges:
               1
     1  C   -0.170744
     2  C   -0.225008
     3  C   -0.176427
     4  C    0.158905
     5  C   -0.169242
     6  C   -0.218487
     7  H    0.229793
     8  H    0.221259
     9  H    0.277377
    10  H    0.277967
    11  H    0.226536
    12  N    0.488051
    13  O   -0.458304
    14  O   -0.460322
    15  C   -0.168976
    16  C   -0.217805
    17  C   -0.169083
    18  C    0.161058
    19  C   -0.177873
    20  C   -0.225868
    21  H    0.230892
    22  H    0.226954
    23  H    0.277934
    24  H    0.269776
    25  H    0.222834
    26  N    0.488747
    27  O   -0.462304
    28  O   -0.457639
 Sum of Mulliken charges =  -0.00000

 Dipole moment (field-independent basis, Debye):
    X=              1.3343    Y=              1.0187    Z=              4.8843  Tot=              5.1647
 Quadrupole moment (field-independent basis, Debye-Ang):
   XX=           -125.3020   YY=           -103.3659   ZZ=           -107.2159
   XY=             33.4713   XZ=             -1.6885   YZ=             -0.7527

 Normal termination of Gaussian 16 at Thu May  6 00:29:47 2021.
