 Gaussian 16, Revision A.03,
 Gaussian 16:  EM64L-G16RevA.03 25-Dec-2016

 -------------
 #p 6-31g* mp2
 -------------

 ------------------------------------------------------
 Input file generated by CHIRIPA (05-May-2021 14:57:27)
 ------------------------------------------------------
 Symbolic Z-matrix:
 Charge =  0 Multiplicity = 1

                         Standard orientation:
 ---------------------------------------------------------------------
 Center     Atomic      Atomic             Coordinates (Angstroms)
 Number     Number       Type             X           Y           Z
 ---------------------------------------------------------------------
      1          6           0       -0.949317    0.352489   -1.369443
      2          6           0       -1.735963    1.409802   -0.900615
      3          6           0       -2.990964    1.164748   -0.335399
      4          6           0       -3.430166   -0.155794   -0.254397
      5          6           0       -2.669738   -1.230552   -0.712583
      6          6           0       -1.417889   -0.961996   -1.274098
      7          1           0        0.024374    0.551981   -1.807079
      8          1           0       -1.374621    2.431655   -0.973367
      9          1           0       -3.620542    1.964462    0.035421
     10          1           0       -3.056886   -2.238575   -0.626423
     11          1           0       -0.809126   -1.785092   -1.637371
     12          7           0       -4.757110   -0.427662    0.342013
     13          8           0       -5.121299   -1.600019    0.401863
     14          8           0       -5.407855    0.536753    0.738337
     15          6           0        1.166756    1.277623    1.260455
     16          6           0        1.562189    0.044815    1.789924
     17          6           0        2.693431   -0.610610    1.294689
     18          6           0        3.409144   -0.001800    0.264934
     19          6           0        3.040537    1.225683   -0.283431
     20          6           0        1.905889    1.863091    0.227289
     21          1           0        0.286657    1.779774    1.651180
     22          1           0        0.990084   -0.412225    2.592329
     23          1           0        3.021950   -1.565709    1.686196
     24          1           0        3.631016    1.656437   -1.082932
     25          1           0        1.601137    2.820432   -0.185831
     26          7           0        4.608542   -0.686131   -0.267546
     27          8           0        5.222052   -0.128792   -1.175079
     28          8           0        4.912410   -1.766892    0.232712
 ---------------------------------------------------------------------

 SCF Done:  E(RHF) =  -868.336290904     A.U. after   16 cycles
 E2 =    -0.2602895182D+01 EUMP2 =    -0.87093918608556D+03

 The electronic state is 1-A.
 Alpha  occ. eigenvalues --  -20.61478 -20.61470 -20.61267 -20.61258 -15.86539
 Alpha  occ. eigenvalues --  -15.86327 -11.32001 -11.31731 -11.28660 -11.28570
 Alpha  occ. eigenvalues --  -11.28406 -11.28323 -11.28294 -11.28010 -11.27654
 Alpha  occ. eigenvalues --  -11.27495 -11.27400 -11.27233  -1.60555  -1.60345
 Alpha  occ. eigenvalues --   -1.40105  -1.39896  -1.20215  -1.19936  -1.09593
 Alpha  occ. eigenvalues --   -1.09271  -1.05627  -1.05362  -0.96383  -0.96114
 Alpha  occ. eigenvalues --   -0.87023  -0.86726  -0.83203  -0.82964  -0.78249
 Alpha  occ. eigenvalues --   -0.78016  -0.72746  -0.72538  -0.71893  -0.71678
 Alpha  occ. eigenvalues --   -0.71259  -0.71007  -0.65853  -0.65675  -0.65557
 Alpha  occ. eigenvalues --   -0.65306  -0.62961  -0.62693  -0.56085  -0.55874
 Alpha  occ. eigenvalues --   -0.54241  -0.53696  -0.53436  -0.53312  -0.49515
 Alpha  occ. eigenvalues --   -0.49499  -0.49302  -0.49292  -0.45489  -0.45294
 Alpha  occ. eigenvalues --   -0.38852  -0.37326  -0.37215  -0.36824
 Alpha virt. eigenvalues --    0.04172   0.04627   0.10037   0.10935   0.15688
 Alpha virt. eigenvalues --    0.15998   0.19508   0.21685   0.25283   0.27027
 Alpha virt. eigenvalues --    0.27934   0.28341   0.29843   0.30719   0.31634

 Mulliken charges:
               1
     1  C   -0.161903
     2  C   -0.227541
     3  C   -0.173448
     4  C    0.156775
     5  C   -0.170725
     6  C   -0.221318
     7  H    0.230189
     8  H    0.216721
     9  H    0.275341
    10  H    0.277502
    11  H    0.227463
    12  N    0.488058
    13  O   -0.458902
    14  O   -0.460702
    15  C   -0.161545
    16  C   -0.218800
    17  C   -0.171318
    18  C    0.156875
    19  C   -0.175404
    20  C   -0.230127
    21  H    0.229104
    22  H    0.228566
    23  H    0.278316
    24  H    0.276719
    25  H    0.220169
    26  N    0.487923
    27  O   -0.459802
    28  O   -0.458186
 Sum of Mulliken charges =  -0.00000

 Dipole moment (field-independent basis, Debye):
    X=              0.5238    Y=              3.1646    Z=             -0.1249  Tot=              3.2101
 Quadrupole moment (field-independent basis, Debye-Ang):
   XX=           -167.0813   YY=            -97.9930   ZZ=           -101.4723
   XY=              4.1401   XZ=             10.9119   YZ=             -1.0700

 Normal termination of Gaussian 16 at Wed May  5 18:03:39 2021.
