 Gaussian 16, Revision A.03,
 Gaussian 16:  EM64L-G16RevA.03 25-Dec-2016

 -------------
 #p 6-31g* mp2
 -------------

 ------------------------------------------------------
 Input file generated by CHIRIPA (05-May-2021 14:57:21)
 ------------------------------------------------------
 Symbolic Z-matrix:
 Charge =  0 Multiplicity = 1

                         Standard orientation:
 ---------------------------------------------------------------------
 Center     Atomic      Atomic             Coordinates (Angstroms)
 Number     Number       Type             X           Y           Z
 ---------------------------------------------------------------------
      1          6           0        2.493706    1.006497    2.258053
      2          6           0        2.686476   -0.378329    2.217827
      3          6           0        2.875160   -1.033767    0.997439
      4          6           0        2.865222   -0.269956   -0.168659
      5          6           0        2.675635    1.111092   -0.161305
      6          6           0        2.488909    1.745484    1.070452
      7          1           0        2.347892    1.507483    3.210496
      8          1           0        2.690679   -0.954783    3.138548
      9          1           0        3.026581   -2.104695    0.937421
     10          1           0        2.676473    1.658891   -1.095828
     11          1           0        2.339429    2.821080    1.098666
     12          7           0        3.063937   -0.952699   -1.466648
     13          8           0        3.050936   -0.257122   -2.479880
     14          8           0        3.228927   -2.170483   -1.446201
     15          6           0       -4.215747   -1.868597    0.544380
     16          6           0       -4.712336   -0.919656   -0.355304
     17          6           0       -3.954607    0.206769   -0.689312
     18          6           0       -2.698741    0.353301   -0.102269
     19          6           0       -2.176432   -0.574580    0.797464
     20          6           0       -2.951608   -1.693339    1.116884
     21          1           0       -4.811146   -2.740653    0.798179
     22          1           0       -5.693747   -1.053166   -0.801457
     23          1           0       -4.314746    0.956913   -1.382856
     24          1           0       -1.194580   -0.414123    1.225993
     25          1           0       -2.563403   -2.428673    1.815901
     26          7           0       -1.887333    1.541738   -0.448147
     27          8           0       -0.783897    1.647727    0.082732
     28          8           0       -2.370150    2.344745   -1.243575
 ---------------------------------------------------------------------

 SCF Done:  E(RHF) =  -868.338631668     A.U. after   16 cycles
 E2 =    -0.2600323649D+01 EUMP2 =    -0.87093895531646D+03

 The electronic state is 1-A.
 Alpha  occ. eigenvalues --  -20.61053 -20.61022 -20.60235 -20.60206 -15.86075
 Alpha  occ. eigenvalues --  -15.85269 -11.31329 -11.30475 -11.27890 -11.27881
 Alpha  occ. eigenvalues --  -11.27619 -11.27137 -11.26907 -11.26893 -11.26870
 Alpha  occ. eigenvalues --  -11.26781 -11.26182 -11.25883  -1.60113  -1.59302
 Alpha  occ. eigenvalues --   -1.39671  -1.38859  -1.19495  -1.18642  -1.08915
 Alpha  occ. eigenvalues --   -1.08081  -1.04884  -1.04011  -0.95770  -0.94937
 Alpha  occ. eigenvalues --   -0.86288  -0.85436  -0.82611  -0.81765  -0.77666
 Alpha  occ. eigenvalues --   -0.76827  -0.72326  -0.71496  -0.71420  -0.70622
 Alpha  occ. eigenvalues --   -0.70605  -0.69783  -0.65156  -0.64892  -0.64304
 Alpha  occ. eigenvalues --   -0.64036  -0.62235  -0.61371  -0.55393  -0.54568
 Alpha  occ. eigenvalues --   -0.53215  -0.52984  -0.52339  -0.52119  -0.49080
 Alpha  occ. eigenvalues --   -0.49053  -0.48258  -0.48236  -0.45106  -0.44297
 Alpha  occ. eigenvalues --   -0.37470  -0.36640  -0.36481  -0.35522
 Alpha virt. eigenvalues --    0.04827   0.05729   0.11175   0.12059   0.16381
 Alpha virt. eigenvalues --    0.17226   0.21282   0.22092   0.27165   0.28040
 Alpha virt. eigenvalues --    0.28135   0.28963   0.30790   0.31602   0.32266

 Mulliken charges:
               1
     1  C   -0.173329
     2  C   -0.224079
     3  C   -0.176759
     4  C    0.155260
     5  C   -0.158488
     6  C   -0.202187
     7  H    0.222790
     8  H    0.217405
     9  H    0.270553
    10  H    0.278313
    11  H    0.227990
    12  N    0.487862
    13  O   -0.458817
    14  O   -0.465694
    15  C   -0.169980
    16  C   -0.218412
    17  C   -0.170065
    18  C    0.158164
    19  C   -0.171569
    20  C   -0.218055
    21  H    0.226296
    22  H    0.224292
    23  H    0.276107
    24  H    0.275285
    25  H    0.222630
    26  N    0.492207
    27  O   -0.468630
    28  O   -0.459090
 Sum of Mulliken charges =  -0.00000

 Dipole moment (field-independent basis, Debye):
    X=             -3.7369    Y=             -1.4683    Z=              5.6453  Tot=              6.9275
 Quadrupole moment (field-independent basis, Debye-Ang):
   XX=            -91.9801   YY=           -105.3146   ZZ=           -105.0786
   XY=             16.8403   XZ=             12.8664   YZ=             -4.2433

 Normal termination of Gaussian 16 at Thu May  6 19:26:51 2021.
