 Gaussian 16, Revision A.03,
 Gaussian 16:  EM64L-G16RevA.03 25-Dec-2016

 -------------
 #p 6-31g* mp2
 -------------

 ------------------------------------------------------
 Input file generated by CHIRIPA (05-May-2021 14:51:13)
 ------------------------------------------------------
 Symbolic Z-matrix:
 Charge =  0 Multiplicity = 1

                         Standard orientation:
 ---------------------------------------------------------------------
 Center     Atomic      Atomic             Coordinates (Angstroms)
 Number     Number       Type             X           Y           Z
 ---------------------------------------------------------------------
      1          6           0        4.085349   -0.189700   -0.497234
      2          6           0        4.047037   -1.614400    0.056614
      3          6           0        5.234044   -2.460296   -0.405196
      4          1           0        4.103553   -0.230201   -1.594946
      5          1           0        5.022888    0.291904   -0.186631
      6          1           0        3.109223   -2.092704   -0.253783
      7          1           0        4.028728   -1.570498    1.153132
      8          1           0        6.177684   -2.008651   -0.082458
      9          1           0        5.252954   -2.533824   -1.497367
     10          1           0        5.186671   -3.474941    0.002372
     11          6           0        2.905259    0.668248   -0.044418
     12          6           0        2.943572    2.092949   -0.598266
     13          6           0        1.756565    2.938845   -0.136456
     14          1           0        1.967720    0.186645   -0.355021
     15          1           0        2.887055    0.708750    1.053294
     16          1           0        2.961880    2.049046   -1.694784
     17          1           0        3.881386    2.571253   -0.287869
     18          1           0        1.737654    3.012373    0.955715
     19          1           0        0.812924    2.487200   -0.459194
     20          1           0        1.803937    3.953490   -0.544024
     21          6           0       -2.886782    0.184626    0.453697
     22          6           0       -1.834056   -0.580340    1.256555
     23          6           0       -0.622722    0.281102    1.614861
     24          1           0       -2.426875    0.573425   -0.465142
     25          1           0       -3.215661    1.058711    1.032667
     26          1           0       -1.508269   -1.453492    0.676829
     27          1           0       -2.296571   -0.967525    2.173498
     28          1           0       -0.928029    1.144844    2.214310
     29          1           0       -0.135248    0.656115    0.709137
     30          1           0        0.117274   -0.285537    2.188608
     31          6           0       -4.103827   -0.663174    0.087955
     32          6           0       -5.156552    0.101790   -0.714903
     33          6           0       -6.367886   -0.759650   -1.073209
     34          1           0       -3.774947   -1.537261   -0.491015
     35          1           0       -4.563733   -1.051973    1.006795
     36          1           0       -4.694038    0.488977   -1.631846
     37          1           0       -5.482339    0.974944   -0.135177
     38          1           0       -6.855360   -1.134665   -0.167485
     39          1           0       -6.062579   -1.623393   -1.672658
     40          1           0       -7.107883   -0.193013   -1.646955
 ---------------------------------------------------------------------

 SCF Done:  E(RHF) =  -470.732017459     A.U. after   11 cycles
 E2 =    -0.1583680204D+01 EUMP2 =    -0.47231569766264D+03

 The electronic state is 1-A.
 Alpha  occ. eigenvalues --  -11.21593 -11.21593 -11.21580 -11.21540 -11.21389
 Alpha  occ. eigenvalues --  -11.21369 -11.21330 -11.21300 -11.21066 -11.21065
 Alpha  occ. eigenvalues --  -11.21027 -11.20891  -1.08432  -1.08386  -1.03550
 Alpha  occ. eigenvalues --   -1.03459  -0.95968  -0.95932  -0.86984  -0.86956
 Alpha  occ. eigenvalues --   -0.79703  -0.79458  -0.78297  -0.78130  -0.65119
 Alpha  occ. eigenvalues --   -0.64978  -0.61033  -0.60802  -0.59347  -0.59309
 Alpha  occ. eigenvalues --   -0.57701  -0.57425  -0.55268  -0.55226  -0.52691
 Alpha  occ. eigenvalues --   -0.52624  -0.52504  -0.52234  -0.49971  -0.49896
 Alpha  occ. eigenvalues --   -0.48111  -0.47663  -0.46780  -0.46500  -0.45888
 Alpha  occ. eigenvalues --   -0.45721  -0.45698  -0.45296  -0.43768  -0.43727
 Alpha virt. eigenvalues --    0.21666   0.23152   0.23575   0.24704   0.25864
 Alpha virt. eigenvalues --    0.26627   0.27023   0.27282   0.28121   0.29624
 Alpha virt. eigenvalues --    0.30295   0.31476   0.31712   0.31740   0.32035

 Mulliken charges:
               1
     1  C   -0.297973
     2  C   -0.299489
     3  C   -0.475664
     4  H    0.149221
     5  H    0.149362
     6  H    0.151709
     7  H    0.151818
     8  H    0.155208
     9  H    0.155094
    10  H    0.160180
    11  C   -0.300504
    12  C   -0.300192
    13  C   -0.477349
    14  H    0.151722
    15  H    0.151233
    16  H    0.151307
    17  H    0.151804
    18  H    0.156895
    19  H    0.156082
    20  H    0.160035
    21  C   -0.298053
    22  C   -0.300228
    23  C   -0.481459
    24  H    0.148356
    25  H    0.149786
    26  H    0.150980
    27  H    0.151506
    28  H    0.154103
    29  H    0.164726
    30  H    0.159895
    31  C   -0.298166
    32  C   -0.299619
    33  C   -0.475688
    34  H    0.149294
    35  H    0.149766
    36  H    0.151779
    37  H    0.152002
    38  H    0.155197
    39  H    0.155098
    40  H    0.160223
 Sum of Mulliken charges =  -0.00000

 Dipole moment (field-independent basis, Debye):
    X=              0.0222    Y=              0.0203    Z=              0.0109  Tot=              0.0320
 Quadrupole moment (field-independent basis, Debye-Ang):
   XX=            -85.9401   YY=            -85.4504   ZZ=            -83.5528
   XY=              0.1581   XZ=             -0.0135   YZ=              0.2046

 Normal termination of Gaussian 16 at Wed May  5 15:21:52 2021.
