 Gaussian 16, Revision A.03,
 Gaussian 16:  EM64L-G16RevA.03 25-Dec-2016

 -------------
 #p 6-31g* mp2
 -------------

 ------------------------------------------------------
 Input file generated by CHIRIPA (05-May-2021 14:51:12)
 ------------------------------------------------------
 Symbolic Z-matrix:
 Charge =  0 Multiplicity = 1

                         Standard orientation:
 ---------------------------------------------------------------------
 Center     Atomic      Atomic             Coordinates (Angstroms)
 Number     Number       Type             X           Y           Z
 ---------------------------------------------------------------------
      1          6           0        3.651916   -0.179594   -0.311683
      2          6           0        2.489545   -0.210619    0.681250
      3          6           0        1.127531   -0.066155    0.001661
      4          1           0        3.619687    0.763149   -0.874837
      5          1           0        3.519803   -0.986713   -1.045509
      6          1           0        2.624539    0.595453    1.413807
      7          1           0        2.524658   -1.153314    1.242239
      8          1           0        0.967086   -0.877273   -0.715935
      9          1           0        1.067535    0.881430   -0.543393
     10          1           0        0.310867   -0.090955    0.729882
     11          6           0        5.020102   -0.322908    0.352589
     12          6           0        6.182473   -0.291883   -0.640344
     13          6           0        7.544488   -0.436347    0.039244
     14          1           0        5.152216    0.484211    1.086414
     15          1           0        5.052332   -1.265651    0.915742
     16          1           0        6.147361    0.650812   -1.201333
     17          1           0        6.047479   -1.097955   -1.372901
     18          1           0        7.604484   -1.383932    0.584298
     19          1           0        7.704932    0.374771    0.756841
     20          1           0        8.361151   -0.411547   -0.688977
     21          6           0       -5.061894    0.059951   -0.161619
     22          6           0       -5.371095   -1.407609    0.136120
     23          6           0       -6.827184   -1.775048   -0.151261
     24          1           0       -5.727313    0.697017    0.436970
     25          1           0       -5.292860    0.269652   -1.215220
     26          1           0       -5.138307   -1.614826    1.188492
     27          1           0       -4.704732   -2.041253   -0.463105
     28          1           0       -7.069025   -1.596378   -1.203967
     29          1           0       -7.505064   -1.167528    0.457014
     30          1           0       -7.026262   -2.828583    0.068491
     31          6           0       -3.610125    0.442552    0.120713
     32          6           0       -3.300924    1.910110   -0.177026
     33          6           0       -1.844835    2.277550    0.110355
     34          1           0       -3.379159    0.232850    1.174314
     35          1           0       -2.944705   -0.194515   -0.477876
     36          1           0       -3.967286    2.543755    0.422199
     37          1           0       -3.533712    2.117328   -1.229398
     38          1           0       -1.166955    1.670029   -0.497919
     39          1           0       -1.602994    2.098880    1.163061
     40          1           0       -1.645757    3.331086   -0.109396
 ---------------------------------------------------------------------

 SCF Done:  E(RHF) =  -470.732407545     A.U. after   11 cycles
 E2 =    -0.1582813164D+01 EUMP2 =    -0.47231522070949D+03

 The electronic state is 1-A.
 Alpha  occ. eigenvalues --  -11.21590 -11.21575 -11.21562 -11.21522 -11.21386
 Alpha  occ. eigenvalues --  -11.21363 -11.21326 -11.21302 -11.21062 -11.21051
 Alpha  occ. eigenvalues --  -11.20996 -11.20898  -1.08412  -1.08378  -1.03533
 Alpha  occ. eigenvalues --   -1.03448  -0.96024  -0.95863  -0.87089  -0.86840
 Alpha  occ. eigenvalues --   -0.79686  -0.79438  -0.78241  -0.78174  -0.65052
 Alpha  occ. eigenvalues --   -0.65003  -0.60982  -0.60814  -0.59422  -0.59217
 Alpha  occ. eigenvalues --   -0.57596  -0.57514  -0.55411  -0.55081  -0.52832
 Alpha  occ. eigenvalues --   -0.52617  -0.52392  -0.52174  -0.50070  -0.49685
 Alpha  occ. eigenvalues --   -0.47904  -0.47820  -0.46685  -0.46458  -0.45807
 Alpha  occ. eigenvalues --   -0.45719  -0.45680  -0.45607  -0.43745  -0.43698
 Alpha virt. eigenvalues --    0.22469   0.22954   0.23635   0.24756   0.26205
 Alpha virt. eigenvalues --    0.26635   0.26902   0.27494   0.27807   0.29115
 Alpha virt. eigenvalues --    0.29795   0.31437   0.31585   0.31899   0.32337

 Mulliken charges:
               1
     1  C   -0.298560
     2  C   -0.299926
     3  C   -0.478809
     4  H    0.149734
     5  H    0.149292
     6  H    0.152126
     7  H    0.151589
     8  H    0.153812
     9  H    0.156654
    10  H    0.164256
    11  C   -0.298250
    12  C   -0.299618
    13  C   -0.475692
    14  H    0.149545
    15  H    0.149595
    16  H    0.151919
    17  H    0.151847
    18  H    0.155149
    19  H    0.155185
    20  H    0.160200
    21  C   -0.298165
    22  C   -0.299609
    23  C   -0.475677
    24  H    0.149567
    25  H    0.149474
    26  H    0.151784
    27  H    0.151941
    28  H    0.155148
    29  H    0.155130
    30  H    0.160132
    31  C   -0.298884
    32  C   -0.299374
    33  C   -0.481068
    34  H    0.148788
    35  H    0.150581
    36  H    0.151190
    37  H    0.151410
    38  H    0.165263
    39  H    0.153808
    40  H    0.158513
 Sum of Mulliken charges =  -0.00000

 Dipole moment (field-independent basis, Debye):
    X=              0.0218    Y=             -0.0058    Z=             -0.0082  Tot=              0.0240
 Quadrupole moment (field-independent basis, Debye-Ang):
   XX=            -87.1337   YY=            -83.9714   ZZ=            -83.9996
   XY=             -0.2356   XZ=             -0.7309   YZ=              0.2897

 Normal termination of Gaussian 16 at Thu May  6 02:19:55 2021.
