 Gaussian 16, Revision A.03,
 Gaussian 16:  EM64L-G16RevA.03 25-Dec-2016

 -------------
 #p 6-31g* mp2
 -------------

 ------------------------------------------------------
 Input file generated by CHIRIPA (05-May-2021 14:51:10)
 ------------------------------------------------------
 Symbolic Z-matrix:
 Charge =  0 Multiplicity = 1

                         Standard orientation:
 ---------------------------------------------------------------------
 Center     Atomic      Atomic             Coordinates (Angstroms)
 Number     Number       Type             X           Y           Z
 ---------------------------------------------------------------------
      1          6           0        2.857805    0.696763   -0.329024
      2          6           0        2.432141    2.149776   -0.115609
      3          6           0        3.059503    3.104860   -1.131497
      4          1           0        3.952771    0.629668   -0.269907
      5          1           0        2.580060    0.386188   -1.345782
      6          1           0        2.709365    2.457083    0.900917
      7          1           0        1.338050    2.213388   -0.175050
      8          1           0        2.772864    2.825866   -2.150615
      9          1           0        4.151971    3.070947   -1.068534
     10          1           0        2.741740    4.138135   -0.960535
     11          6           0        2.238841   -0.270109    0.678831
     12          6           0        2.664505   -1.723123    0.465416
     13          6           0        2.037143   -2.678206    1.481303
     14          1           0        2.516586    0.040465    1.695588
     15          1           0        1.143876   -0.203015    0.619714
     16          1           0        3.758597   -1.786734    0.524857
     17          1           0        2.387281   -2.030430   -0.551110
     18          1           0        0.944675   -2.644293    1.418341
     19          1           0        2.323783   -2.399213    2.500421
     20          1           0        2.354907   -3.711482    1.310342
     21          6           0       -2.494821    0.397553    0.280504
     22          6           0       -3.698453    1.335297    0.181046
     23          6           0       -3.576709    2.552724    1.098021
     24          1           0       -2.382489    0.064597    1.321401
     25          1           0       -1.582081    0.956054    0.030753
     26          1           0       -4.608810    0.774846    0.429565
     27          1           0       -3.808048    1.665907   -0.859772
     28          1           0       -2.685109    3.136398    0.847078
     29          1           0       -3.490419    2.240274    2.143741
     30          1           0       -4.447801    3.209598    1.010982
     31          6           0       -2.601825   -0.824207   -0.630311
     32          6           0       -1.398193   -1.761950   -0.530853
     33          6           0       -1.519937   -2.979377   -1.447828
     34          1           0       -3.514566   -1.382708   -0.380559
     35          1           0       -2.714158   -0.491251   -1.671208
     36          1           0       -1.288598   -2.092561    0.509965
     37          1           0       -0.487837   -1.201500   -0.779372
     38          1           0       -1.606227   -2.666928   -2.493548
     39          1           0       -2.411539   -3.563052   -1.196885
     40          1           0       -0.648845   -3.636251   -1.360789
 ---------------------------------------------------------------------

 SCF Done:  E(RHF) =  -470.732599537     A.U. after   11 cycles
 E2 =    -0.1584759303D+01 EUMP2 =    -0.47231735883978D+03

 The electronic state is 1-A.
 Alpha  occ. eigenvalues --  -11.21687 -11.21659 -11.21618 -11.21549 -11.21489
 Alpha  occ. eigenvalues --  -11.21429 -11.21373 -11.21263 -11.21143 -11.21105
 Alpha  occ. eigenvalues --  -11.21086 -11.20976  -1.08534  -1.08384  -1.03629
 Alpha  occ. eigenvalues --   -1.03479  -0.96052  -0.95942  -0.87064  -0.86966
 Alpha  occ. eigenvalues --   -0.79734  -0.79533  -0.78446  -0.78104  -0.65271
 Alpha  occ. eigenvalues --   -0.64938  -0.61036  -0.60936  -0.59406  -0.59286
 Alpha  occ. eigenvalues --   -0.57679  -0.57535  -0.55355  -0.55214  -0.52740
 Alpha  occ. eigenvalues --   -0.52645  -0.52472  -0.52378  -0.50087  -0.49821
 Alpha  occ. eigenvalues --   -0.48167  -0.47781  -0.46707  -0.46593  -0.46319
 Alpha  occ. eigenvalues --   -0.45756  -0.45715  -0.45130  -0.43852  -0.43749
 Alpha virt. eigenvalues --    0.19937   0.22029   0.23467   0.24743   0.25311
 Alpha virt. eigenvalues --    0.25847   0.26738   0.27390   0.28684   0.30169
 Alpha virt. eigenvalues --    0.30768   0.31114   0.31330   0.31894   0.32142

 Mulliken charges:
               1
     1  C   -0.298554
     2  C   -0.300795
     3  C   -0.475663
     4  H    0.149890
     5  H    0.148612
     6  H    0.152419
     7  H    0.151858
     8  H    0.154934
     9  H    0.155450
    10  H    0.160212
    11  C   -0.305779
    12  C   -0.299374
    13  C   -0.481601
    14  H    0.149453
    15  H    0.157419
    16  H    0.151815
    17  H    0.151558
    18  H    0.162020
    19  H    0.154628
    20  H    0.159387
    21  C   -0.301466
    22  C   -0.299693
    23  C   -0.475767
    24  H    0.150229
    25  H    0.151120
    26  H    0.152317
    27  H    0.152047
    28  H    0.155316
    29  H    0.155472
    30  H    0.160452
    31  C   -0.297680
    32  C   -0.307623
    33  C   -0.476569
    34  H    0.149992
    35  H    0.149665
    36  H    0.154121
    37  H    0.157675
    38  H    0.155299
    39  H    0.155597
    40  H    0.161605
 Sum of Mulliken charges =  -0.00000

 Dipole moment (field-independent basis, Debye):
    X=             -0.0608    Y=             -0.0047    Z=              0.0023  Tot=              0.0611
 Quadrupole moment (field-independent basis, Debye-Ang):
   XX=            -84.0979   YY=            -86.0489   ZZ=            -84.6451
   XY=              0.1838   XZ=              0.4007   YZ=             -0.2863

 Normal termination of Gaussian 16 at Wed May  5 23:01:59 2021.
