 Gaussian 16, Revision A.03,
 Gaussian 16:  EM64L-G16RevA.03 25-Dec-2016

 -------------
 #p 6-31g* mp2
 -------------

 ------------------------------------------------------
 Input file generated by CHIRIPA (05-May-2021 14:55:22)
 ------------------------------------------------------
 Symbolic Z-matrix:
 Charge =  0 Multiplicity = 1

                         Standard orientation:
 ---------------------------------------------------------------------
 Center     Atomic      Atomic             Coordinates (Angstroms)
 Number     Number       Type             X           Y           Z
 ---------------------------------------------------------------------
      1          6           0        1.488808    1.683406    1.667217
      2          6           0        0.815490    0.457885    1.631694
      3          6           0        1.312688   -0.603571    0.869688
      4          6           0        2.491070   -0.403808    0.152192
      5          6           0        3.184802    0.805241    0.167296
      6          6           0        2.669235    1.852873    0.936194
      7          1           0        1.095438    2.502601    2.261839
      8          1           0       -0.101457    0.323414    2.198414
      9          1           0        0.811623   -1.562889    0.824284
     10          1           0        4.096625    0.909155   -0.408204
     11          1           0        3.194260    2.803522    0.961905
     12          7           0        3.027155   -1.520206   -0.658158
     13          8           0        4.067199   -1.318775   -1.281353
     14          8           0        2.397144   -2.575532   -0.654771
     15          6           0       -3.367865   -0.124404    0.211563
     16          6           0       -4.095043   -1.389984   -0.243963
     17          6           0       -4.674470   -2.191074    0.922361
     18          1           0       -2.561491   -0.401709    0.904246
     19          1           0       -4.065261    0.506257    0.780159
     20          1           0       -3.396861   -2.017427   -0.812712
     21          1           0       -4.899657   -1.109650   -0.935791
     22          1           0       -5.391770   -1.586216    1.486478
     23          1           0       -3.880437   -2.499150    1.610256
     24          1           0       -5.189900   -3.091572    0.574086
     25          6           0       -2.783091    0.687121   -0.943077
     26          6           0       -2.055913    1.952702   -0.487550
     27          6           0       -1.476485    2.753791   -1.653873
     28          1           0       -2.085695    0.056460   -1.511672
     29          1           0       -3.589463    0.964427   -1.635759
     30          1           0       -1.251299    1.672368    0.204278
     31          1           0       -2.754094    2.580145    0.081199
     32          1           0       -2.270519    3.061868   -2.341769
     33          1           0       -0.759186    2.148933   -2.217991
     34          1           0       -0.961054    3.654290   -1.305599
 ---------------------------------------------------------------------

 SCF Done:  E(RHF) =  -669.534914658     A.U. after   15 cycles
 E2 =    -0.2093343695D+01 EUMP2 =    -0.67162825835350D+03

 The electronic state is 1-A.
 Alpha  occ. eigenvalues --  -20.60844 -20.60839 -15.85899 -11.31291 -11.27857
 Alpha  occ. eigenvalues --  -11.27849 -11.27594 -11.26872 -11.26862 -11.21958
 Alpha  occ. eigenvalues --  -11.21902 -11.21895 -11.21715 -11.21401 -11.21379
 Alpha  occ. eigenvalues --   -1.59919  -1.39472  -1.19470  -1.08885  -1.08801
 Alpha  occ. eigenvalues --   -1.04878  -1.03875  -0.96336  -0.95684  -0.87349
 Alpha  occ. eigenvalues --   -0.86274  -0.82516  -0.79953  -0.78672  -0.77555
 Alpha  occ. eigenvalues --   -0.72116  -0.71243  -0.70560  -0.65513  -0.65119
 Alpha  occ. eigenvalues --   -0.64843  -0.62215  -0.61284  -0.59711  -0.57957
 Alpha  occ. eigenvalues --   -0.55630  -0.55359  -0.53247  -0.53017  -0.52935
 Alpha  occ. eigenvalues --   -0.52756  -0.50271  -0.48879  -0.48869  -0.48268
 Alpha  occ. eigenvalues --   -0.46987  -0.46206  -0.46110  -0.44871  -0.44153
 Alpha  occ. eigenvalues --   -0.37390  -0.36416
 Alpha virt. eigenvalues --    0.04953   0.11073   0.16361   0.19974   0.22884
 Alpha virt. eigenvalues --    0.23891   0.25014   0.26677   0.27389   0.28290
 Alpha virt. eigenvalues --    0.29438   0.30866   0.31151   0.31585   0.31685

 Mulliken charges:
               1
     1  C   -0.169351
     2  C   -0.220925
     3  C   -0.172140
     4  C    0.158527
     5  C   -0.170696
     6  C   -0.217905
     7  H    0.227124
     8  H    0.227542
     9  H    0.275712
    10  H    0.276091
    11  H    0.224118
    12  N    0.488043
    13  O   -0.459987
    14  O   -0.460292
    15  C   -0.297675
    16  C   -0.300806
    17  C   -0.475524
    18  H    0.138862
    19  H    0.149656
    20  H    0.155633
    21  H    0.154198
    22  H    0.154863
    23  H    0.152634
    24  H    0.163225
    25  C   -0.298601
    26  C   -0.307806
    27  C   -0.474362
    28  H    0.153213
    29  H    0.151672
    30  H    0.155257
    31  H    0.148450
    32  H    0.156284
    33  H    0.158610
    34  H    0.156357
 Sum of Mulliken charges =  -0.00000

 Dipole moment (field-independent basis, Debye):
    X=             -1.8463    Y=              3.8978    Z=              2.7939  Tot=              5.1388
 Quadrupole moment (field-independent basis, Debye-Ang):
   XX=           -100.7488   YY=            -96.9995   ZZ=            -94.6237
   XY=             12.7508   XZ=              6.2828   YZ=             -0.8960

 Normal termination of Gaussian 16 at Wed May  5 23:54:28 2021.
