 Gaussian 16, Revision A.03,
 Gaussian 16:  EM64L-G16RevA.03 25-Dec-2016

 -------------
 #p 6-31g* mp2
 -------------

 ------------------------------------------------------
 Input file generated by CHIRIPA (05-May-2021 14:53:13)
 ------------------------------------------------------
 Symbolic Z-matrix:
 Charge =  0 Multiplicity = 1

                         Standard orientation:
 ---------------------------------------------------------------------
 Center     Atomic      Atomic             Coordinates (Angstroms)
 Number     Number       Type             X           Y           Z
 ---------------------------------------------------------------------
      1          6           0       -3.602363   -0.306838   -0.146263
      2          6           0       -3.590288   -1.460561    0.857113
      3          6           0       -4.326386   -2.698379    0.343535
      4          1           0       -4.642997   -0.044972   -0.381742
      5          1           0       -3.144213   -0.643162   -1.086678
      6          1           0       -4.047073   -1.121745    1.795818
      7          1           0       -2.549562   -1.719585    1.090376
      8          1           0       -3.867549   -3.063498   -0.580995
      9          1           0       -5.373568   -2.462262    0.128455
     10          1           0       -4.305446   -3.510860    1.076540
     11          6           0       -2.870417    0.937726    0.352780
     12          6           0       -2.882492    2.091449   -0.650595
     13          6           0       -2.146394    3.329266   -0.137018
     14          1           0       -3.328567    1.274049    1.293195
     15          1           0       -1.829783    0.675859    0.588259
     16          1           0       -3.923218    2.350472   -0.883858
     17          1           0       -2.425707    1.752632   -1.589300
     18          1           0       -1.099211    3.093149    0.078063
     19          1           0       -2.605231    3.694386    0.787513
     20          1           0       -2.167334    4.141747   -0.870022
     21          6           0        2.901069    2.205397    0.383607
     22          6           0        3.805392    1.255533    0.869897
     23          6           0        3.608904   -0.105666    0.618743
     24          6           0        2.492404   -0.483475   -0.125556
     25          6           0        1.573517    0.438937   -0.623645
     26          6           0        1.789976    1.794792   -0.360300
     27          1           0        3.061463    3.260734    0.583446
     28          1           0        4.669159    1.571520    1.447914
     29          1           0        4.293216   -0.862163    0.983222
     30          1           0        0.721721    0.093454   -1.196795
     31          1           0        1.086013    2.530254   -0.739215
     32          7           0        2.273820   -1.921687   -0.397894
     33          8           0        1.282373   -2.228794   -1.056193
     34          8           0        3.098078   -2.714616    0.052101
 ---------------------------------------------------------------------

 SCF Done:  E(RHF) =  -669.535672122     A.U. after   15 cycles
 E2 =    -0.2091827465D+01 EUMP2 =    -0.67162749958669D+03

 The electronic state is 1-A.
 Alpha  occ. eigenvalues --  -20.60829 -20.60822 -15.85882 -11.31248 -11.27825
 Alpha  occ. eigenvalues --  -11.27817 -11.27549 -11.26827 -11.26804 -11.22117
 Alpha  occ. eigenvalues --  -11.21815 -11.21651 -11.21425 -11.21364 -11.20761
 Alpha  occ. eigenvalues --   -1.59903  -1.39457  -1.19421  -1.08813  -1.08608
 Alpha  occ. eigenvalues --   -1.04825  -1.03707  -0.96172  -0.95647  -0.87197
 Alpha  occ. eigenvalues --   -0.86217  -0.82482  -0.79805  -0.78349  -0.77530
 Alpha  occ. eigenvalues --   -0.72100  -0.71226  -0.70523  -0.65282  -0.65066
 Alpha  occ. eigenvalues --   -0.64835  -0.62212  -0.61065  -0.59580  -0.57748
 Alpha  occ. eigenvalues --   -0.55519  -0.55291  -0.53150  -0.52976  -0.52856
 Alpha  occ. eigenvalues --   -0.52529  -0.50107  -0.48856  -0.48855  -0.48098
 Alpha  occ. eigenvalues --   -0.46841  -0.45901  -0.45782  -0.44862  -0.43945
 Alpha  occ. eigenvalues --   -0.37393  -0.36412
 Alpha virt. eigenvalues --    0.04976   0.11139   0.16358   0.19473   0.22951
 Alpha virt. eigenvalues --    0.24033   0.25866   0.26384   0.27457   0.28534
 Alpha virt. eigenvalues --    0.29225   0.30790   0.31347   0.31912   0.32582

 Mulliken charges:
               1
     1  C   -0.298942
     2  C   -0.300445
     3  C   -0.476317
     4  H    0.149268
     5  H    0.152244
     6  H    0.149887
     7  H    0.157477
     8  H    0.159966
     9  H    0.152814
    10  H    0.161540
    11  C   -0.300436
    12  C   -0.300231
    13  C   -0.480308
    14  H    0.150736
    15  H    0.148838
    16  H    0.155883
    17  H    0.148488
    18  H    0.147610
    19  H    0.159745
    20  H    0.160268
    21  C   -0.171472
    22  C   -0.218369
    23  C   -0.170604
    24  C    0.158469
    25  C   -0.173054
    26  C   -0.221903
    27  H    0.226369
    28  H    0.223779
    29  H    0.275859
    30  H    0.275987
    31  H    0.229694
    32  N    0.488141
    33  O   -0.460956
    34  O   -0.460025
 Sum of Mulliken charges =  -0.00000

 Dipole moment (field-independent basis, Debye):
    X=              0.7377    Y=              4.9750    Z=              0.9905  Tot=              5.1260
 Quadrupole moment (field-independent basis, Debye-Ang):
   XX=            -86.7386   YY=           -100.7869   ZZ=            -94.2826
   XY=             10.7010   XZ=              4.3737   YZ=             -1.7310

 Normal termination of Gaussian 16 at Thu May  6 17:02:16 2021.
