 Gaussian 16, Revision A.03,
 Gaussian 16:  EM64L-G16RevA.03 25-Dec-2016

 -------------
 #p 6-31g* mp2
 -------------

 ------------------------------------------------------
 Input file generated by CHIRIPA (05-May-2021 14:57:25)
 ------------------------------------------------------
 Symbolic Z-matrix:
 Charge =  0 Multiplicity = 1

                         Standard orientation:
 ---------------------------------------------------------------------
 Center     Atomic      Atomic             Coordinates (Angstroms)
 Number     Number       Type             X           Y           Z
 ---------------------------------------------------------------------
      1          6           0       -5.165057    1.318690   -0.349330
      2          6           0       -4.561757    0.604947   -1.390061
      3          6           0       -3.505331   -0.272999   -1.129824
      4          6           0       -3.075584   -0.413585    0.188828
      5          6           0       -3.656214    0.283480    1.247250
      6          6           0       -4.711160    1.155966    0.963689
      7          1           0       -5.985139    1.998578   -0.560548
      8          1           0       -4.912180    0.729328   -2.410736
      9          1           0       -3.020231   -0.837956   -1.916538
     10          1           0       -3.284986    0.138499    2.254518
     11          1           0       -5.177799    1.708968    1.773925
     12          7           0       -1.957976   -1.340137    0.476675
     13          8           0       -1.597866   -1.446271    1.647014
     14          8           0       -1.463268   -1.942689   -0.473499
     15          6           0        3.364403   -2.254234   -0.312220
     16          6           0        2.315587   -1.554505   -0.917929
     17          6           0        2.247511   -0.160900   -0.829745
     18          6           0        3.249665    0.504031   -0.124872
     19          6           0        4.307301   -0.164816    0.489409
     20          6           0        4.355166   -1.558383    0.388281
     21          1           0        3.409436   -3.336807   -0.385750
     22          1           0        1.544758   -2.092289   -1.462591
     23          1           0        1.446736    0.405788   -1.289140
     24          1           0        5.061052    0.398916    1.025583
     25          1           0        5.170862   -2.099184    0.859683
     26          7           0        3.188293    1.979358   -0.024664
     27          8           0        4.083560    2.541825    0.602047
     28          8           0        2.246086    2.545318   -0.574730
 ---------------------------------------------------------------------

 SCF Done:  E(RHF) =  -868.339894140     A.U. after   16 cycles
 E2 =    -0.2598607402D+01 EUMP2 =    -0.87093850154238D+03

 The electronic state is 1-A.
 Alpha  occ. eigenvalues --  -20.61345 -20.61278 -20.60121 -20.60112 -15.86346
 Alpha  occ. eigenvalues --  -15.85159 -11.31454 -11.30271 -11.28022 -11.27969
 Alpha  occ. eigenvalues --  -11.27682 -11.26961 -11.26930 -11.26818 -11.26733
 Alpha  occ. eigenvalues --  -11.26435 -11.25820 -11.25587  -1.60374  -1.59197
 Alpha  occ. eigenvalues --   -1.39939  -1.38759  -1.19600  -1.18389  -1.09042
 Alpha  occ. eigenvalues --   -1.07832  -1.04968  -1.03738  -0.95923  -0.94721
 Alpha  occ. eigenvalues --   -0.86380  -0.85154  -0.82770  -0.81552  -0.77845
 Alpha  occ. eigenvalues --   -0.76638  -0.72585  -0.71679  -0.71390  -0.70712
 Alpha  occ. eigenvalues --   -0.70511  -0.69515  -0.65262  -0.64972  -0.64038
 Alpha  occ. eigenvalues --   -0.63719  -0.62325  -0.61093  -0.55477  -0.54261
 Alpha  occ. eigenvalues --   -0.53302  -0.53062  -0.52090  -0.51820  -0.49343
 Alpha  occ. eigenvalues --   -0.49297  -0.48157  -0.48117  -0.45400  -0.44222
 Alpha  occ. eigenvalues --   -0.37559  -0.36553  -0.36350  -0.35308
 Alpha virt. eigenvalues --    0.04661   0.05863   0.11102   0.12333   0.16200
 Alpha virt. eigenvalues --    0.17446   0.21235   0.22478   0.27163   0.27940
 Alpha virt. eigenvalues --    0.28547   0.29218   0.30856   0.32002   0.32373

 Mulliken charges:
               1
     1  C   -0.169381
     2  C   -0.217728
     3  C   -0.170902
     4  C    0.158365
     5  C   -0.169165
     6  C   -0.217835
     7  H    0.227401
     8  H    0.224362
     9  H    0.272356
    10  H    0.276725
    11  H    0.225420
    12  N    0.489937
    13  O   -0.455490
    14  O   -0.472205
    15  C   -0.170879
    16  C   -0.211310
    17  C   -0.172636
    18  C    0.158640
    19  C   -0.172970
    20  C   -0.218006
    21  H    0.224900
    22  H    0.236912
    23  H    0.270817
    24  H    0.271881
    25  H    0.220068
    26  N    0.488356
    27  O   -0.463054
    28  O   -0.464577
 Sum of Mulliken charges =  -0.00000

 Dipole moment (field-independent basis, Debye):
    X=             -4.0919    Y=             -2.0313    Z=             -1.3147  Tot=              4.7537
 Quadrupole moment (field-independent basis, Debye-Ang):
   XX=            -76.6804   YY=           -113.9481   ZZ=            -99.4328
   XY=            -26.4506   XZ=              3.2936   YZ=              2.8450

 Normal termination of Gaussian 16 at Thu May  6 14:41:31 2021.
