 Gaussian 16, Revision A.03,
 Gaussian 16:  EM64L-G16RevA.03 25-Dec-2016

 -------------
 #p 6-31g* mp2
 -------------

 ------------------------------------------------------
 Input file generated by CHIRIPA (05-May-2021 14:53:17)
 ------------------------------------------------------
 Symbolic Z-matrix:
 Charge =  0 Multiplicity = 1

                         Standard orientation:
 ---------------------------------------------------------------------
 Center     Atomic      Atomic             Coordinates (Angstroms)
 Number     Number       Type             X           Y           Z
 ---------------------------------------------------------------------
      1          6           0        3.361017   -0.241244   -0.066257
      2          6           0        3.706594   -1.069663    1.171597
      3          6           0        4.231824   -2.462636    0.822950
      4          1           0        2.610734   -0.779104   -0.661846
      5          1           0        4.254886   -0.149398   -0.698679
      6          1           0        2.812699   -1.158752    1.802176
      7          1           0        4.456001   -0.529680    1.764407
      8          1           0        5.138265   -2.391083    0.213159
      9          1           0        3.485626   -3.023728    0.251142
     10          1           0        4.472624   -3.037659    1.722519
     11          6           0        2.834608    1.153826    0.266013
     12          6           0        2.489031    1.982245   -0.971841
     13          6           0        1.963801    3.375218   -0.623194
     14          1           0        1.940740    1.061980    0.898435
     15          1           0        3.584892    1.691685    0.861602
     16          1           0        1.739624    1.442262   -1.564652
     17          1           0        3.382927    2.071334   -1.602421
     18          1           0        2.710000    3.936310   -0.051386
     19          1           0        1.057360    3.303664   -0.013403
     20          1           0        1.723002    3.950240   -1.522764
     21          6           0       -3.945443    0.623036    1.676965
     22          6           0       -2.595677    0.399868    1.968253
     23          6           0       -1.741362   -0.142384    1.003548
     24          6           0       -2.272708   -0.451173   -0.247696
     25          6           0       -3.612915   -0.240521   -0.568258
     26          6           0       -4.448867    0.302695    0.411870
     27          1           0       -4.601963    1.044645    2.432361
     28          1           0       -2.201958    0.647691    2.949891
     29          1           0       -0.692362   -0.325474    1.202278
     30          1           0       -3.976379   -0.497675   -1.555772
     31          1           0       -5.496688    0.474928    0.182844
     32          7           0       -1.378003   -1.025741   -1.277150
     33          8           0       -1.870616   -1.289247   -2.371925
     34          8           0       -0.201062   -1.201702   -0.969766
 ---------------------------------------------------------------------

 SCF Done:  E(RHF) =  -669.536441069     A.U. after   15 cycles
 E2 =    -0.2092015542D+01 EUMP2 =    -0.67162845661167D+03

 The electronic state is 1-A.
 Alpha  occ. eigenvalues --  -20.61036 -20.61024 -15.86064 -11.31340 -11.27899
 Alpha  occ. eigenvalues --  -11.27893 -11.27625 -11.26896 -11.26886 -11.20976
 Alpha  occ. eigenvalues --  -11.20933 -11.20813 -11.20691 -11.20402 -11.20378
 Alpha  occ. eigenvalues --   -1.60089  -1.39647  -1.19503  -1.08915  -1.07722
 Alpha  occ. eigenvalues --   -1.04894  -1.02910  -0.95767  -0.95360  -0.86383
 Alpha  occ. eigenvalues --   -0.86295  -0.82604  -0.78972  -0.77673  -0.77515
 Alpha  occ. eigenvalues --   -0.72298  -0.71398  -0.70612  -0.65171  -0.64901
 Alpha  occ. eigenvalues --   -0.64311  -0.62239  -0.60305  -0.58739  -0.56976
 Alpha  occ. eigenvalues --   -0.55399  -0.54642  -0.53226  -0.52986  -0.52093
 Alpha  occ. eigenvalues --   -0.51794  -0.49305  -0.49049  -0.49027  -0.47301
 Alpha  occ. eigenvalues --   -0.45997  -0.45212  -0.45100  -0.44749  -0.43133
 Alpha  occ. eigenvalues --   -0.37478  -0.36492
 Alpha virt. eigenvalues --    0.04841   0.11137   0.16338   0.20103   0.22889
 Alpha virt. eigenvalues --    0.24850   0.25709   0.27476   0.28116   0.28522
 Alpha virt. eigenvalues --    0.29357   0.31290   0.31876   0.32316   0.32513

 Mulliken charges:
               1
     1  C   -0.309880
     2  C   -0.296507
     3  C   -0.476659
     4  H    0.179946
     5  H    0.145974
     6  H    0.144607
     7  H    0.147300
     8  H    0.154094
     9  H    0.162205
    10  H    0.155818
    11  C   -0.293478
    12  C   -0.303249
    13  C   -0.474909
    14  H    0.139071
    15  H    0.145060
    16  H    0.163713
    17  H    0.151154
    18  H    0.152772
    19  H    0.149692
    20  H    0.159604
    21  C   -0.170342
    22  C   -0.219004
    23  C   -0.173252
    24  C    0.157393
    25  C   -0.170346
    26  C   -0.218570
    27  H    0.226298
    28  H    0.224427
    29  H    0.278622
    30  H    0.275914
    31  H    0.224035
    32  N    0.494252
    33  O   -0.458033
    34  O   -0.467723
 Sum of Mulliken charges =  -0.00000

 Dipole moment (field-independent basis, Debye):
    X=             -3.3674    Y=              1.8714    Z=              3.4213  Tot=              5.1524
 Quadrupole moment (field-independent basis, Debye-Ang):
   XX=            -77.3581   YY=            -98.8038   ZZ=            -94.9311
   XY=             -2.6221   XZ=             -5.3783   YZ=             -1.9079

 Normal termination of Gaussian 16 at Thu May  6 10:41:27 2021.
