 Gaussian 16, Revision A.03,
 Gaussian 16:  EM64L-G16RevA.03 25-Dec-2016

 -------------
 #p 6-31g* mp2
 -------------

 ------------------------------------------------------
 Input file generated by CHIRIPA (05-May-2021 14:57:25)
 ------------------------------------------------------
 Symbolic Z-matrix:
 Charge =  0 Multiplicity = 1

                         Standard orientation:
 ---------------------------------------------------------------------
 Center     Atomic      Atomic             Coordinates (Angstroms)
 Number     Number       Type             X           Y           Z
 ---------------------------------------------------------------------
      1          6           0       -2.482203    2.676275    0.117481
      2          6           0       -2.207230    1.855318    1.216089
      3          6           0       -2.554626    0.501277    1.195196
      4          6           0       -3.178636   -0.000901    0.054267
      5          6           0       -3.465882    0.791486   -1.056095
      6          6           0       -3.109545    2.142680   -1.013112
      7          1           0       -2.208864    3.727021    0.142291
      8          1           0       -1.720123    2.266990    2.095462
      9          1           0       -2.353473   -0.156828    2.031768
     10          1           0       -3.952455    0.352403   -1.918574
     11          1           0       -3.324320    2.777883   -1.867766
     12          7           0       -3.551142   -1.432857    0.020455
     13          8           0       -4.100051   -1.851040   -0.996628
     14          8           0       -3.287149   -2.109926    1.011677
     15          6           0        0.764629   -1.146545   -0.039786
     16          6           0        0.980358    0.235091   -0.007146
     17          6           0        2.279576    0.751292   -0.017879
     18          6           0        3.344685   -0.146987   -0.061778
     19          6           0        3.162192   -1.528610   -0.095043
     20          6           0        1.854313   -2.022441   -0.083553
     21          1           0       -0.247999   -1.538855   -0.031154
     22          1           0        0.135997    0.917691    0.026872
     23          1           0        2.475214    1.816440    0.006733
     24          1           0        4.023939   -2.184107   -0.128668
     25          1           0        1.689775   -3.095906   -0.108969
     26          7           0        4.724693    0.387651   -0.073541
     27          8           0        5.646130   -0.424800   -0.112457
     28          8           0        4.858777    1.609029   -0.043622
 ---------------------------------------------------------------------

 SCF Done:  E(RHF) =  -868.337842277     A.U. after   16 cycles
 E2 =    -0.2602823486D+01 EUMP2 =    -0.87094066576251D+03

 The electronic state is 1-A.
 Alpha  occ. eigenvalues --  -20.62081 -20.62067 -20.60753 -20.60740 -15.87106
 Alpha  occ. eigenvalues --  -15.85797 -11.32510 -11.31088 -11.29052 -11.29011
 Alpha  occ. eigenvalues --  -11.28748 -11.28021 -11.27997 -11.27655 -11.27607
 Alpha  occ. eigenvalues --  -11.27265 -11.26572 -11.26490  -1.61150  -1.59826
 Alpha  occ. eigenvalues --   -1.40695  -1.39382  -1.20699  -1.19229  -1.10066
 Alpha  occ. eigenvalues --   -1.08626  -1.06062  -1.04617  -0.96880  -0.95483
 Alpha  occ. eigenvalues --   -0.87435  -0.86014  -0.83681  -0.82320  -0.78740
 Alpha  occ. eigenvalues --   -0.77400  -0.73301  -0.72529  -0.72016  -0.71708
 Alpha  occ. eigenvalues --   -0.71149  -0.70294  -0.66293  -0.65987  -0.64870
 Alpha  occ. eigenvalues --   -0.64659  -0.63352  -0.62019  -0.56497  -0.55089
 Alpha  occ. eigenvalues --   -0.54504  -0.54081  -0.52961  -0.52530  -0.50081
 Alpha  occ. eigenvalues --   -0.50064  -0.48781  -0.48761  -0.46067  -0.44805
 Alpha  occ. eigenvalues --   -0.38678  -0.37748  -0.37108  -0.36206
 Alpha virt. eigenvalues --    0.03738   0.05125   0.09880   0.11398   0.15237
 Alpha virt. eigenvalues --    0.16665   0.20323   0.21703   0.26289   0.27081
 Alpha virt. eigenvalues --    0.27748   0.27875   0.30109   0.31035   0.31885

 Mulliken charges:
               1
     1  C   -0.173174
     2  C   -0.230155
     3  C   -0.176903
     4  C    0.153433
     5  C   -0.169716
     6  C   -0.217470
     7  H    0.232074
     8  H    0.230689
     9  H    0.279915
    10  H    0.279986
    11  H    0.229717
    12  N    0.486748
    13  O   -0.454033
    14  O   -0.459909
    15  C   -0.177606
    16  C   -0.227463
    17  C   -0.175349
    18  C    0.158848
    19  C   -0.171975
    20  C   -0.218805
    21  H    0.229769
    22  H    0.232254
    23  H    0.271033
    24  H    0.275425
    25  H    0.227431
    26  N    0.488115
    27  O   -0.460011
    28  O   -0.462867
 Sum of Mulliken charges =  -0.00000

 Dipole moment (field-independent basis, Debye):
    X=             -3.9922    Y=              3.1970    Z=              0.1111  Tot=              5.1158
 Quadrupole moment (field-independent basis, Debye-Ang):
   XX=           -144.9869   YY=            -99.8518   ZZ=           -101.2509
   XY=            -24.5554   XZ=              2.2741   YZ=             -0.0515

 Normal termination of Gaussian 16 at Fri May  7 01:55:54 2021.
