 Gaussian 16, Revision A.03,
 Gaussian 16:  EM64L-G16RevA.03 25-Dec-2016

 -------------
 #p 6-31g* mp2
 -------------

 ------------------------------------------------------
 Input file generated by CHIRIPA (05-May-2021 14:51:14)
 ------------------------------------------------------
 Symbolic Z-matrix:
 Charge =  0 Multiplicity = 1

                         Standard orientation:
 ---------------------------------------------------------------------
 Center     Atomic      Atomic             Coordinates (Angstroms)
 Number     Number       Type             X           Y           Z
 ---------------------------------------------------------------------
      1          6           0       -3.278535    0.586713   -0.167262
      2          6           0       -3.652794    2.042330    0.113975
      3          6           0       -2.507647    3.013491   -0.174604
      4          1           0       -2.404144    0.315672    0.440128
      5          1           0       -2.971185    0.490850   -1.217853
      6          1           0       -3.960669    2.135148    1.163362
      7          1           0       -4.526513    2.309879   -0.494012
      8          1           0       -2.204283    2.950275   -1.224640
      9          1           0       -1.635224    2.774551    0.442151
     10          1           0       -2.796891    4.048380    0.033252
     11          6           0       -4.413064   -0.396179    0.116455
     12          6           0       -4.038805   -1.851797   -0.164782
     13          6           0       -5.183952   -2.822958    0.123797
     14          1           0       -4.720414   -0.300316    1.167046
     15          1           0       -5.287455   -0.125139   -0.490935
     16          1           0       -3.165086   -2.119346    0.443205
     17          1           0       -3.730930   -1.944614   -1.214169
     18          1           0       -6.056375   -2.584017   -0.492958
     19          1           0       -5.487316   -2.759741    1.173833
     20          1           0       -4.894708   -3.857846   -0.084059
     21          6           0        3.153483   -0.134502   -0.294894
     22          6           0        2.052446    0.490636    0.562374
     23          6           0        0.673174    0.404386   -0.091813
     24          1           0        3.177609    0.366804   -1.272164
     25          1           0        2.904082   -1.186801   -0.489467
     26          1           0        2.304539    1.541069    0.756428
     27          1           0        2.031066   -0.012087    1.537785
     28          1           0        0.396173   -0.639612   -0.270532
     29          1           0        0.671199    0.922368   -1.056330
     30          1           0       -0.098917    0.857192    0.538030
     31          6           0        4.538116   -0.056032    0.345701
     32          6           0        5.639153   -0.681170   -0.511566
     33          6           0        7.018426   -0.594919    0.142621
     34          1           0        4.787517    0.996268    0.540273
     35          1           0        4.513990   -0.557338    1.322971
     36          1           0        5.660533   -0.178446   -1.486979
     37          1           0        5.387060   -1.731602   -0.705620
     38          1           0        7.020400   -1.112902    1.107136
     39          1           0        7.295426    0.449078    0.321339
     40          1           0        7.790517   -1.047725   -0.487223
 ---------------------------------------------------------------------

 SCF Done:  E(RHF) =  -470.732383684     A.U. after   11 cycles
 E2 =    -0.1583276058D+01 EUMP2 =    -0.47231565974160D+03

 The electronic state is 1-A.
 Alpha  occ. eigenvalues --  -11.21595 -11.21579 -11.21562 -11.21547 -11.21394
 Alpha  occ. eigenvalues --  -11.21334 -11.21328 -11.21242 -11.21066 -11.21044
 Alpha  occ. eigenvalues --  -11.21013 -11.21005  -1.08424  -1.08367  -1.03538
 Alpha  occ. eigenvalues --   -1.03466  -0.95970  -0.95929  -0.86993  -0.86948
 Alpha  occ. eigenvalues --   -0.79667  -0.79480  -0.78261  -0.78137  -0.65053
 Alpha  occ. eigenvalues --   -0.65019  -0.60930  -0.60909  -0.59497  -0.59149
 Alpha  occ. eigenvalues --   -0.57617  -0.57506  -0.55301  -0.55173  -0.52761
 Alpha  occ. eigenvalues --   -0.52593  -0.52425  -0.52328  -0.49950  -0.49829
 Alpha  occ. eigenvalues --   -0.47952  -0.47809  -0.46613  -0.46567  -0.45815
 Alpha  occ. eigenvalues --   -0.45723  -0.45680  -0.45634  -0.43738  -0.43615
 Alpha virt. eigenvalues --    0.21705   0.23091   0.23597   0.24858   0.26226
 Alpha virt. eigenvalues --    0.26681   0.26716   0.27490   0.27932   0.29456
 Alpha virt. eigenvalues --    0.30037   0.31257   0.31707   0.32028   0.32149

 Mulliken charges:
               1
     1  C   -0.302735
     2  C   -0.300106
     3  C   -0.477677
     4  H    0.155864
     5  H    0.149759
     6  H    0.151165
     7  H    0.151622
     8  H    0.155290
     9  H    0.157614
    10  H    0.159673
    11  C   -0.297814
    12  C   -0.299549
    13  C   -0.475632
    14  H    0.148963
    15  H    0.149276
    16  H    0.151715
    17  H    0.151935
    18  H    0.155151
    19  H    0.155049
    20  H    0.160008
    21  C   -0.298702
    22  C   -0.299923
    23  C   -0.479641
    24  H    0.149675
    25  H    0.149482
    26  H    0.151823
    27  H    0.151319
    28  H    0.155104
    29  H    0.155784
    30  H    0.165563
    31  C   -0.298201
    32  C   -0.299605
    33  C   -0.475687
    34  H    0.149532
    35  H    0.149523
    36  H    0.151944
    37  H    0.151891
    38  H    0.155135
    39  H    0.155184
    40  H    0.160228
 Sum of Mulliken charges =  -0.00000

 Dipole moment (field-independent basis, Debye):
    X=              0.0164    Y=              0.0014    Z=             -0.0109  Tot=              0.0197
 Quadrupole moment (field-independent basis, Debye-Ang):
   XX=            -86.5826   YY=            -84.7214   ZZ=            -83.7810
   XY=             -0.4455   XZ=              0.0066   YZ=             -0.3933

 Normal termination of Gaussian 16 at Thu May  6 07:11:06 2021.
