 Gaussian 16, Revision A.03,
 Gaussian 16:  EM64L-G16RevA.03 25-Dec-2016

 -------------
 #p 6-31g* mp2
 -------------

 ------------------------------------------------------
 Input file generated by CHIRIPA (05-May-2021 14:53:16)
 ------------------------------------------------------
 Symbolic Z-matrix:
 Charge =  0 Multiplicity = 1

                         Standard orientation:
 ---------------------------------------------------------------------
 Center     Atomic      Atomic             Coordinates (Angstroms)
 Number     Number       Type             X           Y           Z
 ---------------------------------------------------------------------
      1          6           0       -3.074274   -0.275524    0.018955
      2          6           0       -4.275682   -1.182270    0.288057
      3          6           0       -3.939225   -2.667017    0.146224
      4          1           0       -2.694208   -0.471789   -0.992962
      5          1           0       -2.263761   -0.536734    0.713385
      6          1           0       -5.084180   -0.918499   -0.405752
      7          1           0       -4.653049   -0.983687    1.299380
      8          1           0       -3.149788   -2.951991    0.849203
      9          1           0       -3.583368   -2.886433   -0.865618
     10          1           0       -4.812276   -3.297071    0.342881
     11          6           0       -3.394846    1.211736    0.156868
     12          6           0       -2.193438    2.118482   -0.112234
     13          6           0       -2.529895    3.603229    0.029599
     14          1           0       -4.205359    1.472946   -0.537562
     15          1           0       -3.774911    1.408001    1.168785
     16          1           0       -1.816070    1.919899   -1.123557
     17          1           0       -1.384939    1.854711    0.581575
     18          1           0       -2.885752    3.822644    1.041441
     19          1           0       -3.319332    3.888203   -0.673380
     20          1           0       -1.656844    4.233283   -0.167059
     21          6           0        4.324902    1.378508    0.233281
     22          6           0        4.614108    0.028732    0.459081
     23          6           0        3.625725   -0.946292    0.294835
     24          6           0        2.353185   -0.534332   -0.097873
     25          6           0        2.034082    0.802594   -0.330450
     26          6           0        3.038080    1.760457   -0.160071
     27          1           0        5.098767    2.129265    0.363254
     28          1           0        5.612587   -0.270800    0.764637
     29          1           0        3.822300   -1.998205    0.462929
     30          1           0        1.029438    1.070567   -0.634261
     31          1           0        2.810616    2.807981   -0.336133
     32          7           0        1.298562   -1.557463   -0.275000
     33          8           0        0.185312   -1.168679   -0.621638
     34          8           0        1.605169   -2.728805   -0.063839
 ---------------------------------------------------------------------

 SCF Done:  E(RHF) =  -669.535583769     A.U. after   15 cycles
 E2 =    -0.2092423217D+01 EUMP2 =    -0.67162800698623D+03

 The electronic state is 1-A.
 Alpha  occ. eigenvalues --  -20.60862 -20.60856 -15.85890 -11.31224 -11.27798
 Alpha  occ. eigenvalues --  -11.27760 -11.27537 -11.26808 -11.26792 -11.21372
 Alpha  occ. eigenvalues --  -11.21009 -11.20735 -11.20551 -11.20063 -11.19864
 Alpha  occ. eigenvalues --   -1.59931  -1.39486  -1.19398  -1.08804  -1.07645
 Alpha  occ. eigenvalues --   -1.04793  -1.02835  -0.95646  -0.95248  -0.86278
 Alpha  occ. eigenvalues --   -0.86184  -0.82481  -0.78989  -0.77653  -0.77175
 Alpha  occ. eigenvalues --   -0.72102  -0.71248  -0.70505  -0.65052  -0.64798
 Alpha  occ. eigenvalues --   -0.64293  -0.62142  -0.60242  -0.58712  -0.56836
 Alpha  occ. eigenvalues --   -0.55301  -0.54529  -0.53130  -0.52891  -0.52036
 Alpha  occ. eigenvalues --   -0.51636  -0.49186  -0.48886  -0.48880  -0.47253
 Alpha  occ. eigenvalues --   -0.46036  -0.45237  -0.44777  -0.44415  -0.43028
 Alpha  occ. eigenvalues --   -0.37382  -0.36396
 Alpha virt. eigenvalues --    0.04967   0.11230   0.16456   0.20895   0.23414
 Alpha virt. eigenvalues --    0.24714   0.26225   0.27406   0.27657   0.28695
 Alpha virt. eigenvalues --    0.29449   0.31168   0.31768   0.32018   0.32219

 Mulliken charges:
               1
     1  C   -0.296330
     2  C   -0.300605
     3  C   -0.473421
     4  H    0.159668
     5  H    0.159229
     6  H    0.146529
     7  H    0.146286
     8  H    0.160239
     9  H    0.159432
    10  H    0.153585
    11  C   -0.298485
    12  C   -0.302132
    13  C   -0.473994
    14  H    0.146780
    15  H    0.146335
    16  H    0.151741
    17  H    0.148791
    18  H    0.155638
    19  H    0.156427
    20  H    0.152151
    21  C   -0.170467
    22  C   -0.218836
    23  C   -0.170396
    24  C    0.156467
    25  C   -0.175828
    26  C   -0.220017
    27  H    0.225727
    28  H    0.223517
    29  H    0.275553
    30  H    0.283425
    31  H    0.223953
    32  N    0.491521
    33  O   -0.462556
    34  O   -0.459927
 Sum of Mulliken charges =  -0.00000

 Dipole moment (field-independent basis, Debye):
    X=              3.8720    Y=              3.4175    Z=              0.5685  Tot=              5.1957
 Quadrupole moment (field-independent basis, Debye-Ang):
   XX=            -76.3630   YY=            -98.1136   ZZ=            -94.4416
   XY=              4.2235   XZ=              2.6030   YZ=             -1.8066

 Normal termination of Gaussian 16 at Thu May  6 15:32:55 2021.
