 Gaussian 16, Revision A.03,
 Gaussian 16:  EM64L-G16RevA.03 25-Dec-2016

 -------------
 #p 6-31g* mp2
 -------------

 ------------------------------------------------------
 Input file generated by CHIRIPA (05-May-2021 14:53:13)
 ------------------------------------------------------
 Symbolic Z-matrix:
 Charge =  0 Multiplicity = 1

                         Standard orientation:
 ---------------------------------------------------------------------
 Center     Atomic      Atomic             Coordinates (Angstroms)
 Number     Number       Type             X           Y           Z
 ---------------------------------------------------------------------
      1          6           0       -3.102776    0.808732   -0.797263
      2          6           0       -2.009234    1.806037   -0.413162
      3          6           0       -1.916242    2.984086   -1.383393
      4          1           0       -2.909541    0.435304   -1.812229
      5          1           0       -4.068804    1.330997   -0.835006
      6          1           0       -1.045765    1.281755   -0.374804
      7          1           0       -2.204989    2.176990    0.601081
      8          1           0       -2.863229    3.532536   -1.415325
      9          1           0       -1.697418    2.632214   -2.396755
     10          1           0       -1.128205    3.684620   -1.089947
     11          6           0       -3.208050   -0.374560    0.163187
     12          6           0       -4.301593   -1.371865   -0.220913
     13          6           0       -4.394585   -2.549914    0.749317
     14          1           0       -2.242022   -0.896824    0.200930
     15          1           0       -3.401286   -0.001132    1.178153
     16          1           0       -4.105838   -1.742818   -1.235157
     17          1           0       -5.265062   -0.847582   -0.259271
     18          1           0       -4.613409   -2.198041    1.762679
     19          1           0       -3.447598   -3.098364    0.781249
     20          1           0       -5.182622   -3.250448    0.455871
     21          6           0        3.528389   -2.013041   -1.107749
     22          6           0        2.378118   -2.271784   -0.355118
     23          6           0        1.780528   -1.257992    0.399639
     24          6           0        2.362379    0.008619    0.378724
     25          6           0        3.508061    0.297644   -0.360983
     26          6           0        4.088701   -0.731413   -1.108277
     27          1           0        3.986028   -2.806507   -1.691163
     28          1           0        1.940791   -3.266161   -0.352822
     29          1           0        0.889709   -1.430744    0.991260
     30          1           0        3.921013    1.298932   -0.343404
     31          1           0        4.981983   -0.527580   -1.691840
     32          7           0        1.738708    1.089954    1.173801
     33          8           0        2.270735    2.197359    1.138602
     34          8           0        0.729657    0.809626    1.817128
 ---------------------------------------------------------------------

 SCF Done:  E(RHF) =  -669.535731281     A.U. after   15 cycles
 E2 =    -0.2092028398D+01 EUMP2 =    -0.67162775967978D+03

 The electronic state is 1-A.
 Alpha  occ. eigenvalues --  -20.60896 -20.60874 -15.85907 -11.31275 -11.27840
 Alpha  occ. eigenvalues --  -11.27833 -11.27578 -11.26854 -11.26843 -11.21344
 Alpha  occ. eigenvalues --  -11.20950 -11.20942 -11.20808 -11.20651 -11.20306
 Alpha  occ. eigenvalues --   -1.59946  -1.39501  -1.19444  -1.08841  -1.07915
 Alpha  occ. eigenvalues --   -1.04844  -1.03006  -0.95677  -0.95494  -0.86515
 Alpha  occ. eigenvalues --   -0.86242  -0.82509  -0.79074  -0.77708  -0.77520
 Alpha  occ. eigenvalues --   -0.72134  -0.71268  -0.70549  -0.65097  -0.64848
 Alpha  occ. eigenvalues --   -0.64560  -0.62190  -0.60417  -0.58865  -0.57064
 Alpha  occ. eigenvalues --   -0.55345  -0.54811  -0.53173  -0.52935  -0.52183
 Alpha  occ. eigenvalues --   -0.51910  -0.49470  -0.48904  -0.48897  -0.47407
 Alpha  occ. eigenvalues --   -0.46149  -0.45494  -0.45147  -0.44526  -0.43258
 Alpha  occ. eigenvalues --   -0.37422  -0.36445
 Alpha virt. eigenvalues --    0.04955   0.11161   0.16433   0.20970   0.23099
 Alpha virt. eigenvalues --    0.24750   0.25633   0.27499   0.27649   0.28314
 Alpha virt. eigenvalues --    0.29020   0.31149   0.31723   0.32162   0.32291

 Mulliken charges:
               1
     1  C   -0.299374
     2  C   -0.295861
     3  C   -0.477798
     4  H    0.144637
     5  H    0.147909
     6  H    0.150819
     7  H    0.161436
     8  H    0.152349
     9  H    0.149195
    10  H    0.165818
    11  C   -0.295228
    12  C   -0.299516
    13  C   -0.474277
    14  H    0.143739
    15  H    0.154849
    16  H    0.149008
    17  H    0.152377
    18  H    0.157190
    19  H    0.149900
    20  H    0.158901
    21  C   -0.170653
    22  C   -0.218581
    23  C   -0.173260
    24  C    0.157543
    25  C   -0.170790
    26  C   -0.218485
    27  H    0.225952
    28  H    0.223824
    29  H    0.277439
    30  H    0.275868
    31  H    0.223816
    32  N    0.487467
    33  O   -0.459372
    34  O   -0.456840
 Sum of Mulliken charges =  -0.00000

 Dipole moment (field-independent basis, Debye):
    X=              2.3267    Y=             -3.7088    Z=             -2.6475  Tot=              5.1165
 Quadrupole moment (field-independent basis, Debye-Ang):
   XX=            -81.9788   YY=            -93.8258   ZZ=            -97.3515
   XY=             -7.3019   XZ=             -7.9429   YZ=             -1.4120

 Normal termination of Gaussian 16 at Wed May  5 18:33:19 2021.
