 Gaussian 16, Revision A.03,
 Gaussian 16:  EM64L-G16RevA.03 25-Dec-2016

 -------------
 #p 6-31g* mp2
 -------------

 ------------------------------------------------------
 Input file generated by CHIRIPA (05-May-2021 14:57:27)
 ------------------------------------------------------
 Symbolic Z-matrix:
 Charge =  0 Multiplicity = 1

                         Standard orientation:
 ---------------------------------------------------------------------
 Center     Atomic      Atomic             Coordinates (Angstroms)
 Number     Number       Type             X           Y           Z
 ---------------------------------------------------------------------
      1          6           0        5.837496    0.624495   -0.941644
      2          6           0        4.757507    1.511595   -0.885103
      3          6           0        3.556798    1.130682   -0.278677
      4          6           0        3.470423   -0.150674    0.263498
      5          6           0        4.528661   -1.057193    0.222920
      6          6           0        5.719834   -0.654813   -0.388427
      7          1           0        6.766532    0.928735   -1.414641
      8          1           0        4.846032    2.505747   -1.313905
      9          1           0        2.705016    1.797435   -0.221004
     10          1           0        4.410345   -2.041634    0.659150
     11          1           0        6.556923   -1.345845   -0.430881
     12          7           0        2.204334   -0.565293    0.908099
     13          8           0        2.153625   -1.699725    1.378345
     14          8           0        1.286657    0.252011    0.930886
     15          6           0       -3.422136    2.543004    0.337745
     16          6           0       -2.291320    1.755351    0.098207
     17          6           0       -2.421782    0.390893   -0.177081
     18          6           0       -3.703931   -0.155547   -0.205116
     19          6           0       -4.849816    0.602912    0.029353
     20          6           0       -4.695530    1.965289    0.302616
     21          1           0       -3.311536    3.602139    0.550809
     22          1           0       -1.301143    2.201315    0.124845
     23          1           0       -1.563306   -0.242086   -0.366219
     24          1           0       -5.823781    0.129944   -0.003990
     25          1           0       -5.575515    2.574559    0.488256
     26          7           0       -3.854657   -1.598936   -0.495478
     27          8           0       -4.995286   -2.056367   -0.514446
     28          8           0       -2.829313   -2.245502   -0.698599
 ---------------------------------------------------------------------

 SCF Done:  E(RHF) =  -868.339235576     A.U. after   16 cycles
 E2 =    -0.2598938259D+01 EUMP2 =    -0.87093817383477D+03

 The electronic state is 1-A.
 Alpha  occ. eigenvalues --  -20.61415 -20.61319 -20.59838 -20.59808 -15.86404
 Alpha  occ. eigenvalues --  -15.84874 -11.31619 -11.30142 -11.28220 -11.28127
 Alpha  occ. eigenvalues --  -11.27872 -11.27170 -11.27117 -11.26801 -11.26564
 Alpha  occ. eigenvalues --  -11.26534 -11.25830 -11.25640  -1.60417  -1.58904
 Alpha  occ. eigenvalues --   -1.39983  -1.38457  -1.19773  -1.18332  -1.09191
 Alpha  occ. eigenvalues --   -1.07769  -1.05158  -1.03698  -0.96054  -0.94604
 Alpha  occ. eigenvalues --   -0.86563  -0.85124  -0.82901  -0.81419  -0.77968
 Alpha  occ. eigenvalues --   -0.76459  -0.72632  -0.71722  -0.71098  -0.70884
 Alpha  occ. eigenvalues --   -0.70224  -0.69465  -0.65433  -0.65159  -0.63984
 Alpha  occ. eigenvalues --   -0.63714  -0.62514  -0.61020  -0.55656  -0.54283
 Alpha  occ. eigenvalues --   -0.53487  -0.53251  -0.52072  -0.51791  -0.49393
 Alpha  occ. eigenvalues --   -0.49341  -0.47862  -0.47842  -0.45415  -0.43881
 Alpha  occ. eigenvalues --   -0.37736  -0.36751  -0.36368  -0.35294
 Alpha virt. eigenvalues --    0.04548   0.06045   0.10906   0.12338   0.16058
 Alpha virt. eigenvalues --    0.17528   0.20890   0.22394   0.26625   0.27367
 Alpha virt. eigenvalues --    0.28721   0.29297   0.30677   0.31573   0.32737

 Mulliken charges:
               1
     1  C   -0.170117
     2  C   -0.218085
     3  C   -0.170146
     4  C    0.158878
     5  C   -0.169771
     6  C   -0.218263
     7  H    0.227200
     8  H    0.223592
     9  H    0.269556
    10  H    0.278134
    11  H    0.225649
    12  N    0.491235
    13  O   -0.450329
    14  O   -0.474399
    15  C   -0.171829
    16  C   -0.219311
    17  C   -0.168430
    18  C    0.157035
    19  C   -0.172103
    20  C   -0.219513
    21  H    0.220771
    22  H    0.227274
    23  H    0.286561
    24  H    0.272281
    25  H    0.219061
    26  N    0.487969
    27  O   -0.465113
    28  O   -0.457787
 Sum of Mulliken charges =  -0.00000

 Dipole moment (field-independent basis, Debye):
    X=              5.5487    Y=              6.3353    Z=             -1.2115  Tot=              8.5083
 Quadrupole moment (field-independent basis, Debye-Ang):
   XX=            -73.0856   YY=           -103.7806   ZZ=           -107.8475
   XY=            -17.1872   XZ=            -10.9278   YZ=             -1.7002

 Normal termination of Gaussian 16 at Wed May  5 21:15:17 2021.
