 Gaussian 16, Revision A.03,
 Gaussian 16:  EM64L-G16RevA.03 25-Dec-2016

 -------------
 #p 6-31g* mp2
 -------------

 ------------------------------------------------------
 Input file generated by CHIRIPA (05-May-2021 14:51:07)
 ------------------------------------------------------
 Symbolic Z-matrix:
 Charge =  0 Multiplicity = 1

                         Standard orientation:
 ---------------------------------------------------------------------
 Center     Atomic      Atomic             Coordinates (Angstroms)
 Number     Number       Type             X           Y           Z
 ---------------------------------------------------------------------
      1          6           0        2.725004   -0.599822   -0.259151
      2          6           0        2.134199   -1.563934   -1.288434
      3          6           0        2.345406   -3.031126   -0.913555
      4          1           0        3.799644   -0.801328   -0.151959
      5          1           0        2.270532   -0.797754    0.721498
      6          1           0        2.588639   -1.363320   -2.267134
      7          1           0        1.060878   -1.359983   -1.393329
      8          1           0        1.876799   -3.253713    0.050532
      9          1           0        3.413241   -3.257069   -0.828238
     10          1           0        1.915314   -3.702892   -1.662963
     11          6           0        2.521858    0.870648   -0.619949
     12          6           0        3.112663    1.834760    0.409334
     13          6           0        2.901456    3.301952    0.034455
     14          1           0        2.976329    1.068580   -1.600598
     15          1           0        1.447218    1.072154   -0.727141
     16          1           0        4.185983    1.630809    0.514229
     17          1           0        2.658222    1.634146    1.388034
     18          1           0        1.833621    3.527895   -0.050862
     19          1           0        3.370062    3.524539   -0.929632
     20          1           0        3.331548    3.973718    0.783863
     21          6           0       -2.973451   -0.074502   -0.236622
     22          6           0       -4.296052    0.689706   -0.168108
     23          6           0       -4.984376    0.803209   -1.528667
     24          1           0       -2.303282    0.428115   -0.947393
     25          1           0       -3.159284   -1.079739   -0.639562
     26          1           0       -4.107988    1.692723    0.235879
     27          1           0       -4.963080    0.185320    0.542726
     28          1           0       -5.200676   -0.190111   -1.935029
     29          1           0       -4.340726    1.325857   -2.243620
     30          1           0       -5.927918    1.353113   -1.456606
     31          6           0       -2.273411   -0.196324    1.115722
     32          6           0       -0.950809   -0.960532    1.047208
     33          6           0       -0.262486   -1.074035    2.407768
     34          1           0       -2.087577    0.808913    1.518661
     35          1           0       -2.943579   -0.698941    1.826493
     36          1           0       -0.283782   -0.456146    0.336373
     37          1           0       -1.138873   -1.963549    0.643221
     38          1           0       -0.906135   -1.596683    3.122720
     39          1           0       -0.046185   -0.080715    2.814129
     40          1           0        0.681057   -1.623939    2.335706
 ---------------------------------------------------------------------

 SCF Done:  E(RHF) =  -470.731866316     A.U. after   11 cycles
 E2 =    -0.1585467671D+01 EUMP2 =    -0.47231733398651D+03

 The electronic state is 1-A.
 Alpha  occ. eigenvalues --  -11.21649 -11.21646 -11.21617 -11.21512 -11.21470
 Alpha  occ. eigenvalues --  -11.21411 -11.21404 -11.21290 -11.21179 -11.21102
 Alpha  occ. eigenvalues --  -11.21096 -11.21044  -1.08549  -1.08381  -1.03638
 Alpha  occ. eigenvalues --   -1.03483  -0.96068  -0.95962  -0.87073  -0.86989
 Alpha  occ. eigenvalues --   -0.79712  -0.79556  -0.78357  -0.78199  -0.65478
 Alpha  occ. eigenvalues --   -0.64837  -0.61075  -0.60904  -0.59390  -0.59302
 Alpha  occ. eigenvalues --   -0.57654  -0.57563  -0.55453  -0.55141  -0.52768
 Alpha  occ. eigenvalues --   -0.52671  -0.52518  -0.52363  -0.50009  -0.49908
 Alpha  occ. eigenvalues --   -0.48088  -0.47882  -0.46765  -0.46603  -0.46097
 Alpha  occ. eigenvalues --   -0.45791  -0.45679  -0.45283  -0.43832  -0.43766
 Alpha virt. eigenvalues --    0.19868   0.22691   0.23622   0.24390   0.25160
 Alpha virt. eigenvalues --    0.26438   0.26789   0.27735   0.29337   0.29851
 Alpha virt. eigenvalues --    0.30154   0.31413   0.31518   0.31799   0.32051

 Mulliken charges:
               1
     1  C   -0.307326
     2  C   -0.301972
     3  C   -0.477105
     4  H    0.150333
     5  H    0.158307
     6  H    0.151492
     7  H    0.155586
     8  H    0.155811
     9  H    0.155013
    10  H    0.160133
    11  C   -0.300454
    12  C   -0.300026
    13  C   -0.475678
    14  H    0.150018
    15  H    0.149554
    16  H    0.152315
    17  H    0.152327
    18  H    0.154613
    19  H    0.155339
    20  H    0.160372
    21  C   -0.298616
    22  C   -0.299643
    23  C   -0.475793
    24  H    0.148950
    25  H    0.149823
    26  H    0.151997
    27  H    0.152178
    28  H    0.155294
    29  H    0.155329
    30  H    0.160435
    31  C   -0.297380
    32  C   -0.309924
    33  C   -0.479721
    34  H    0.149252
    35  H    0.149915
    36  H    0.162625
    37  H    0.152712
    38  H    0.156507
    39  H    0.155245
    40  H    0.162163
 Sum of Mulliken charges =  -0.00000

 Dipole moment (field-independent basis, Debye):
    X=             -0.0254    Y=             -0.0060    Z=              0.0168  Tot=              0.0311
 Quadrupole moment (field-independent basis, Debye-Ang):
   XX=            -84.1357   YY=            -85.2990   ZZ=            -85.3648
   XY=              0.6662   XZ=             -1.0582   YZ=              0.1152

 Normal termination of Gaussian 16 at Thu May  6 11:32:02 2021.
