 Gaussian 16, Revision A.03,
 Gaussian 16:  EM64L-G16RevA.03 25-Dec-2016

 -------------
 #p 6-31g* mp2
 -------------

 ------------------------------------------------------
 Input file generated by CHIRIPA (05-May-2021 14:51:10)
 ------------------------------------------------------
 Symbolic Z-matrix:
 Charge =  0 Multiplicity = 1

                         Standard orientation:
 ---------------------------------------------------------------------
 Center     Atomic      Atomic             Coordinates (Angstroms)
 Number     Number       Type             X           Y           Z
 ---------------------------------------------------------------------
      1          6           0       -3.770444   -0.716065    0.103166
      2          6           0       -2.264127   -0.735501    0.365112
      3          6           0       -1.691677   -2.152261    0.418833
      4          1           0       -4.280328   -1.289522    0.889366
      5          1           0       -3.977467   -1.232354   -0.844453
      6          1           0       -2.059873   -0.218120    1.311269
      7          1           0       -1.757785   -0.161770   -0.421696
      8          1           0       -1.866374   -2.674480   -0.527407
      9          1           0       -2.170178   -2.731149    1.215405
     10          1           0       -0.613561   -2.142771    0.607077
     11          6           0       -4.357391    0.693201    0.046675
     12          6           0       -5.863708    0.712637   -0.215272
     13          6           0       -6.436158    2.129397   -0.268992
     14          1           0       -4.150368    1.209489    0.994294
     15          1           0       -3.847506    1.266658   -0.739525
     16          1           0       -6.370049    0.138906    0.571537
     17          1           0       -6.067962    0.195255   -1.161428
     18          1           0       -5.957657    2.708285   -1.065564
     19          1           0       -6.261460    2.651615    0.677248
     20          1           0       -7.514274    2.119906   -0.457236
     21          6           0        3.408364   -0.365227    0.033756
     22          6           0        3.457556   -1.817656   -0.441654
     23          6           0        2.138686   -2.558023   -0.217520
     24          1           0        3.151280   -0.344142    1.101655
     25          1           0        2.598686    0.158488   -0.493063
     26          1           0        4.267794   -2.338114    0.084893
     27          1           0        3.714740   -1.835294   -1.508500
     28          1           0        1.323423   -2.064427   -0.756323
     29          1           0        1.879618   -2.570104    0.846124
     30          1           0        2.196103   -3.594442   -0.564507
     31          6           0        4.719470    0.388091   -0.183597
     32          6           0        4.670279    1.840521    0.291813
     33          6           0        5.989148    2.580887    0.067679
     34          1           0        5.529148   -0.135624    0.343222
     35          1           0        4.976554    0.367007   -1.251496
     36          1           0        4.413094    1.858159    1.358660
     37          1           0        3.860040    2.360979   -0.234735
     38          1           0        6.248216    2.592969   -0.995965
     39          1           0        6.804412    2.087292    0.606482
     40          1           0        5.931731    3.617306    0.414665
 ---------------------------------------------------------------------

 SCF Done:  E(RHF) =  -470.732590142     A.U. after   11 cycles
 E2 =    -0.1582684252D+01 EUMP2 =    -0.47231527439398D+03

 The electronic state is 1-A.
 Alpha  occ. eigenvalues --  -11.21612 -11.21609 -11.21572 -11.21526 -11.21419
 Alpha  occ. eigenvalues --  -11.21360 -11.21357 -11.21295 -11.21079 -11.21077
 Alpha  occ. eigenvalues --  -11.21050 -11.20857  -1.08446  -1.08375  -1.03560
 Alpha  occ. eigenvalues --   -1.03454  -0.96044  -0.95871  -0.87102  -0.86852
 Alpha  occ. eigenvalues --   -0.79670  -0.79479  -0.78259  -0.78191  -0.65077
 Alpha  occ. eigenvalues --   -0.65006  -0.60966  -0.60846  -0.59430  -0.59286
 Alpha  occ. eigenvalues --   -0.57781  -0.57360  -0.55327  -0.55158  -0.52981
 Alpha  occ. eigenvalues --   -0.52665  -0.52395  -0.52007  -0.49977  -0.49813
 Alpha  occ. eigenvalues --   -0.48046  -0.47686  -0.46649  -0.46560  -0.45796
 Alpha  occ. eigenvalues --   -0.45731  -0.45720  -0.45662  -0.43808  -0.43653
 Alpha virt. eigenvalues --    0.22260   0.23029   0.23605   0.24914   0.26402
 Alpha virt. eigenvalues --    0.26700   0.26961   0.27500   0.27719   0.29018
 Alpha virt. eigenvalues --    0.30463   0.31420   0.31612   0.31870   0.32051

 Mulliken charges:
               1
     1  C   -0.298147
     2  C   -0.299265
     3  C   -0.484256
     4  H    0.149604
     5  H    0.149281
     6  H    0.151522
     7  H    0.150671
     8  H    0.153806
     9  H    0.153828
    10  H    0.172044
    11  C   -0.298135
    12  C   -0.299585
    13  C   -0.475657
    14  H    0.149406
    15  H    0.149338
    16  H    0.151904
    17  H    0.151835
    18  H    0.155064
    19  H    0.155132
    20  H    0.160147
    21  C   -0.298390
    22  C   -0.299818
    23  C   -0.479356
    24  H    0.149527
    25  H    0.149480
    26  H    0.151902
    27  H    0.151942
    28  H    0.159475
    29  H    0.155435
    30  H    0.161014
    31  C   -0.298244
    32  C   -0.299653
    33  C   -0.475722
    34  H    0.149584
    35  H    0.149662
    36  H    0.151977
    37  H    0.151985
    38  H    0.155173
    39  H    0.155192
    40  H    0.160298
 Sum of Mulliken charges =  -0.00000

 Dipole moment (field-independent basis, Debye):
    X=              0.0582    Y=             -0.0193    Z=             -0.0020  Tot=              0.0614
 Quadrupole moment (field-independent basis, Debye-Ang):
   XX=            -85.9454   YY=            -86.0578   ZZ=            -82.8891
   XY=             -0.2090   XZ=              0.1650   YZ=             -0.1708

 Normal termination of Gaussian 16 at Wed May  5 18:12:46 2021.
