 Gaussian 16, Revision A.03,
 Gaussian 16:  EM64L-G16RevA.03 25-Dec-2016

 -------------
 #p 6-31g* mp2
 -------------

 ------------------------------------------------------
 Input file generated by CHIRIPA (05-May-2021 14:55:21)
 ------------------------------------------------------
 Symbolic Z-matrix:
 Charge =  0 Multiplicity = 1

                         Standard orientation:
 ---------------------------------------------------------------------
 Center     Atomic      Atomic             Coordinates (Angstroms)
 Number     Number       Type             X           Y           Z
 ---------------------------------------------------------------------
      1          6           0        1.504098   -2.303764    1.029015
      2          6           0        2.885259   -2.392368    0.826375
      3          6           0        3.586587   -1.333256    0.242451
      4          6           0        2.871904   -0.195309   -0.128487
      5          6           0        1.495809   -0.076919    0.060292
      6          6           0        0.814996   -1.148359    0.646002
      7          1           0        0.967257   -3.131296    1.483315
      8          1           0        3.423025   -3.288449    1.122841
      9          1           0        4.655828   -1.375281    0.074000
     10          1           0        0.987137    0.829215   -0.245636
     11          1           0       -0.257633   -1.076762    0.802163
     12          7           0        3.603510    0.932452   -0.747607
     13          8           0        2.950741    1.924113   -1.065628
     14          8           0        4.815859    0.803374   -0.903129
     15          6           0       -3.306977    0.935051    0.614706
     16          6           0       -2.216337    1.937921    0.236896
     17          6           0       -1.797368    2.825317    1.409408
     18          1           0       -4.181812    1.480222    0.994703
     19          1           0       -2.947135    0.306590    1.441112
     20          1           0       -2.577611    2.563392   -0.589474
     21          1           0       -1.344069    1.390309   -0.142425
     22          1           0       -1.411796    2.217283    2.234169
     23          1           0       -2.652347    3.397031    1.784581
     24          1           0       -1.016839    3.534695    1.117144
     25          6           0       -3.736418    0.040763   -0.546998
     26          6           0       -4.827059   -0.962107   -0.169186
     27          6           0       -5.246029   -1.849502   -1.341699
     28          1           0       -4.096261    0.669224   -1.373402
     29          1           0       -2.861584   -0.504409   -0.926994
     30          1           0       -5.699327   -0.414496    0.210134
     31          1           0       -4.465785   -1.587578    0.657182
     32          1           0       -4.391049   -2.421216   -1.716872
     33          1           0       -5.631600   -1.241469   -2.166460
     34          1           0       -6.026557   -2.558881   -1.049436
 ---------------------------------------------------------------------

 SCF Done:  E(RHF) =  -669.535352692     A.U. after   15 cycles
 E2 =    -0.2092029199D+01 EUMP2 =    -0.67162738189163D+03

 The electronic state is 1-A.
 Alpha  occ. eigenvalues --  -20.60755 -20.60749 -15.85806 -11.31170 -11.27748
 Alpha  occ. eigenvalues --  -11.27725 -11.27499 -11.26766 -11.26754 -11.22350
 Alpha  occ. eigenvalues --  -11.22226 -11.22146 -11.22061 -11.21587 -11.21548
 Alpha  occ. eigenvalues --   -1.59829  -1.39382  -1.19349  -1.09134  -1.08745
 Alpha  occ. eigenvalues --   -1.04759  -1.04153  -0.96577  -0.95580  -0.87586
 Alpha  occ. eigenvalues --   -0.86153  -0.82417  -0.80224  -0.78947  -0.77458
 Alpha  occ. eigenvalues --   -0.72027  -0.71151  -0.70473  -0.65827  -0.65000
 Alpha  occ. eigenvalues --   -0.64757  -0.62223  -0.61440  -0.59929  -0.58182
 Alpha  occ. eigenvalues --   -0.55879  -0.55259  -0.53235  -0.53082  -0.52988
 Alpha  occ. eigenvalues --   -0.52842  -0.50526  -0.48785  -0.48784  -0.48512
 Alpha  occ. eigenvalues --   -0.47278  -0.46467  -0.46423  -0.44788  -0.44415
 Alpha  occ. eigenvalues --   -0.37334  -0.36356
 Alpha virt. eigenvalues --    0.05073   0.11289   0.16544   0.18163   0.22636
 Alpha virt. eigenvalues --    0.23613   0.25311   0.25610   0.26982   0.28388
 Alpha virt. eigenvalues --    0.29182   0.30680   0.31315   0.31420   0.32334

 Mulliken charges:
               1
     1  C   -0.170935
     2  C   -0.218742
     3  C   -0.170495
     4  C    0.161074
     5  C   -0.179866
     6  C   -0.223947
     7  H    0.225606
     8  H    0.223451
     9  H    0.275591
    10  H    0.283405
    11  H    0.226882
    12  N    0.488216
    13  O   -0.460407
    14  O   -0.460504
    15  C   -0.299590
    16  C   -0.304725
    17  C   -0.477913
    18  H    0.154629
    19  H    0.143742
    20  H    0.159328
    21  H    0.143613
    22  H    0.153196
    23  H    0.158295
    24  H    0.168510
    25  C   -0.299704
    26  C   -0.299486
    27  C   -0.475996
    28  H    0.154315
    29  H    0.145439
    30  H    0.154576
    31  H    0.148558
    32  H    0.154521
    33  H    0.157679
    34  H    0.161685
 Sum of Mulliken charges =  -0.00000

 Dipole moment (field-independent basis, Debye):
    X=             -2.7375    Y=             -3.8407    Z=              2.1560  Tot=              5.1858
 Quadrupole moment (field-independent basis, Debye-Ang):
   XX=           -104.9370   YY=            -91.8803   ZZ=            -96.6158
   XY=            -14.6653   XZ=              7.0601   YZ=             -0.8420

 Normal termination of Gaussian 16 at Wed May  5 17:27:09 2021.
