 Gaussian 16, Revision A.03,
 Gaussian 16:  EM64L-G16RevA.03 25-Dec-2016

 -------------
 #p 6-31g* mp2
 -------------

 ------------------------------------------------------
 Input file generated by CHIRIPA (05-May-2021 14:57:26)
 ------------------------------------------------------
 Symbolic Z-matrix:
 Charge =  0 Multiplicity = 1

                         Standard orientation:
 ---------------------------------------------------------------------
 Center     Atomic      Atomic             Coordinates (Angstroms)
 Number     Number       Type             X           Y           Z
 ---------------------------------------------------------------------
      1          6           0       -1.180447   -1.468939    0.403660
      2          6           0       -2.415319   -2.089414    0.619583
      3          6           0       -3.607762   -1.404777    0.366799
      4          6           0       -3.528026   -0.094880   -0.103417
      5          6           0       -2.313103    0.550582   -0.328432
      6          6           0       -1.133364   -0.153240   -0.068826
      7          1           0       -0.259063   -2.008233    0.602679
      8          1           0       -2.454921   -3.111113    0.986473
      9          1           0       -4.577357   -1.861068    0.525237
     10          1           0       -2.305617    1.570004   -0.694686
     11          1           0       -0.175771    0.331151   -0.237429
     12          7           0       -4.783688    0.640070   -0.374640
     13          8           0       -4.686431    1.793296   -0.788461
     14          8           0       -5.841356    0.048982   -0.168267
     15          6           0        4.001415   -2.113291   -0.632245
     16          6           0        4.576462   -1.001765   -1.257025
     17          6           0        4.207065    0.293477   -0.882265
     18          6           0        3.255305    0.441197    0.125516
     19          6           0        2.664331   -0.646322    0.766876
     20          6           0        3.048865   -1.932342    0.375934
     21          1           0        4.294251   -3.115883   -0.929654
     22          1           0        5.316476   -1.139280   -2.040296
     23          1           0        4.636328    1.171564   -1.349293
     24          1           0        1.929289   -0.477502    1.544457
     25          1           0        2.600607   -2.793725    0.862893
     26          7           0        2.856229    1.807529    0.530823
     27          8           0        2.015497    1.910877    1.421399
     28          8           0        3.391722    2.749241   -0.049748
 ---------------------------------------------------------------------

 SCF Done:  E(RHF) =  -868.337328315     A.U. after   16 cycles
 E2 =    -0.2601640227D+01 EUMP2 =    -0.87093896854252D+03

 The electronic state is 1-A.
 Alpha  occ. eigenvalues --  -20.61833 -20.61814 -20.60594 -20.60580 -15.86861
 Alpha  occ. eigenvalues --  -15.85641 -11.32320 -11.31050 -11.28943 -11.28822
 Alpha  occ. eigenvalues --  -11.28582 -11.27970 -11.27816 -11.27638 -11.27539
 Alpha  occ. eigenvalues --  -11.27461 -11.26737 -11.26581  -1.60895  -1.59663
 Alpha  occ. eigenvalues --   -1.40444  -1.39215  -1.20493  -1.19226  -1.09853
 Alpha  occ. eigenvalues --   -1.08647  -1.05908  -1.04616  -0.96674  -0.95471
 Alpha  occ. eigenvalues --   -0.87290  -0.86034  -0.83508  -0.82281  -0.78561
 Alpha  occ. eigenvalues --   -0.77299  -0.73061  -0.72240  -0.71863  -0.71566
 Alpha  occ. eigenvalues --   -0.70984  -0.70411  -0.66129  -0.65894  -0.64888
 Alpha  occ. eigenvalues --   -0.64646  -0.63223  -0.61947  -0.56344  -0.55247
 Alpha  occ. eigenvalues --   -0.54201  -0.53978  -0.52959  -0.52709  -0.49837
 Alpha  occ. eigenvalues --   -0.49821  -0.48627  -0.48611  -0.45805  -0.44610
 Alpha  occ. eigenvalues --   -0.38439  -0.37506  -0.37259  -0.36196
 Alpha virt. eigenvalues --    0.03934   0.05201   0.10027   0.11405   0.15292
 Alpha virt. eigenvalues --    0.16658   0.19312   0.21947   0.25139   0.26919
 Alpha virt. eigenvalues --    0.27370   0.29273   0.29648   0.31388   0.32552

 Mulliken charges:
               1
     1  C   -0.174586
     2  C   -0.218199
     3  C   -0.171435
     4  C    0.158959
     5  C   -0.170426
     6  C   -0.216374
     7  H    0.214362
     8  H    0.220443
     9  H    0.274951
    10  H    0.279784
    11  H    0.227620
    12  N    0.487916
    13  O   -0.458327
    14  O   -0.461471
    15  C   -0.169628
    16  C   -0.217440
    17  C   -0.169461
    18  C    0.156744
    19  C   -0.181301
    20  C   -0.220841
    21  H    0.229637
    22  H    0.228265
    23  H    0.279564
    24  H    0.276678
    25  H    0.221917
    26  N    0.486768
    27  O   -0.460014
    28  O   -0.454106
 Sum of Mulliken charges =  -0.00000

 Dipole moment (field-independent basis, Debye):
    X=              6.1661    Y=             -7.1902    Z=             -0.6188  Tot=              9.4922
 Quadrupole moment (field-independent basis, Debye-Ang):
   XX=           -122.7921   YY=           -105.2953   ZZ=           -103.8483
   XY=             -2.9125   XZ=            -12.1050   YZ=             -3.7126

 Normal termination of Gaussian 16 at Wed May  5 16:28:21 2021.
