 Gaussian 16, Revision A.03,
 Gaussian 16:  EM64L-G16RevA.03 25-Dec-2016

 -------------
 #p 6-31g* mp2
 -------------

 ------------------------------------------------------
 Input file generated by CHIRIPA (05-May-2021 14:55:23)
 ------------------------------------------------------
 Symbolic Z-matrix:
 Charge =  0 Multiplicity = 1

                         Standard orientation:
 ---------------------------------------------------------------------
 Center     Atomic      Atomic             Coordinates (Angstroms)
 Number     Number       Type             X           Y           Z
 ---------------------------------------------------------------------
      1          6           0       -2.738031    1.871505    1.603946
      2          6           0       -1.533617    1.160694    1.629550
      3          6           0       -1.303323    0.121095    0.723600
      4          6           0       -2.303687   -0.182377   -0.198608
      5          6           0       -3.514080    0.507319   -0.249180
      6          6           0       -3.722682    1.543128    0.666316
      7          1           0       -2.908503    2.677619    2.311418
      8          1           0       -0.767136    1.413524    2.356619
      9          1           0       -0.380089   -0.445519    0.721309
     10          1           0       -4.259307    0.232190   -0.985630
     11          1           0       -4.659008    2.093443    0.644113
     12          7           0       -2.071367   -1.280948   -1.162750
     13          8           0       -2.968594   -1.528808   -1.965362
     14          8           0       -0.996447   -1.873346   -1.097576
     15          6           0        3.469902    0.513018   -0.263862
     16          6           0        2.764036    1.791065   -0.718106
     17          6           0        3.721856    2.804300   -1.345586
     18          1           0        4.255906    0.772746    0.458414
     19          1           0        3.975854    0.055845   -1.125488
     20          1           0        2.258414    2.244953    0.143836
     21          1           0        1.979494    1.528246   -1.439241
     22          1           0        4.217264    2.374457   -2.222174
     23          1           0        4.497768    3.095236   -0.630101
     24          1           0        3.196290    3.710276   -1.663150
     25          6           0        2.525557   -0.509642    0.365509
     26          6           0        3.231422   -1.787688    0.819754
     27          6           0        2.273601   -2.800923    1.447233
     28          1           0        2.019604   -0.052468    1.227135
     29          1           0        1.739552   -0.769369   -0.356767
     30          1           0        4.015965   -1.524869    1.540888
     31          1           0        3.737045   -2.241576   -0.042189
     32          1           0        1.497690   -3.091859    0.731749
     33          1           0        1.778193   -2.371080    2.323822
     34          1           0        2.799168   -3.706899    1.764797
 ---------------------------------------------------------------------

 SCF Done:  E(RHF) =  -669.535840171     A.U. after   15 cycles
 E2 =    -0.2093220783D+01 EUMP2 =    -0.67162906095361D+03

 The electronic state is 1-A.
 Alpha  occ. eigenvalues --  -20.60870 -20.60857 -15.85897 -11.31131 -11.27729
 Alpha  occ. eigenvalues --  -11.27605 -11.27465 -11.26722 -11.26694 -11.21733
 Alpha  occ. eigenvalues --  -11.21538 -11.21487 -11.21435 -11.21166 -11.20822
 Alpha  occ. eigenvalues --   -1.59925  -1.39483  -1.19314  -1.08739  -1.08499
 Alpha  occ. eigenvalues --   -1.04701  -1.03529  -0.95981  -0.95587  -0.87000
 Alpha  occ. eigenvalues --   -0.86111  -0.82426  -0.79609  -0.78468  -0.77403
 Alpha  occ. eigenvalues --   -0.72121  -0.71235  -0.70430  -0.65149  -0.64939
 Alpha  occ. eigenvalues --   -0.64711  -0.62072  -0.60906  -0.59354  -0.57603
 Alpha  occ. eigenvalues --   -0.55249  -0.55229  -0.53044  -0.52881  -0.52642
 Alpha  occ. eigenvalues --   -0.52341  -0.49909  -0.48904  -0.48865  -0.47900
 Alpha  occ. eigenvalues --   -0.46616  -0.45872  -0.45728  -0.44880  -0.43808
 Alpha  occ. eigenvalues --   -0.37307  -0.36291
 Alpha virt. eigenvalues --    0.05009   0.11318   0.16499   0.20504   0.23015
 Alpha virt. eigenvalues --    0.23990   0.25241   0.26624   0.27704   0.28250
 Alpha virt. eigenvalues --    0.29977   0.30932   0.31465   0.31742   0.32008

 Mulliken charges:
               1
     1  C   -0.170053
     2  C   -0.223666
     3  C   -0.175328
     4  C    0.154894
     5  C   -0.169911
     6  C   -0.219457
     7  H    0.225365
     8  H    0.223236
     9  H    0.291497
    10  H    0.275153
    11  H    0.223160
    12  N    0.489816
    13  O   -0.459192
    14  O   -0.465316
    15  C   -0.296393
    16  C   -0.300170
    17  C   -0.475717
    18  H    0.148477
    19  H    0.153784
    20  H    0.145103
    21  H    0.156025
    22  H    0.157549
    23  H    0.154397
    24  H    0.159825
    25  C   -0.315015
    26  C   -0.297086
    27  C   -0.484594
    28  H    0.134575
    29  H    0.171605
    30  H    0.149375
    31  H    0.156171
    32  H    0.174372
    33  H    0.146440
    34  H    0.161080
 Sum of Mulliken charges =  -0.00000

 Dipole moment (field-independent basis, Debye):
    X=             -0.7919    Y=              3.7354    Z=              3.2023  Tot=              4.9835
 Quadrupole moment (field-independent basis, Debye-Ang):
   XX=            -87.2315   YY=            -97.0427   ZZ=            -95.5302
   XY=            -10.3886   XZ=             -5.7177   YZ=             -0.7758

 Normal termination of Gaussian 16 at Thu May  6 09:26:49 2021.
