 Gaussian 16, Revision A.03,
 Gaussian 16:  EM64L-G16RevA.03 25-Dec-2016

 -------------
 #p 6-31g* mp2
 -------------

 ------------------------------------------------------
 Input file generated by CHIRIPA (05-May-2021 14:51:07)
 ------------------------------------------------------
 Symbolic Z-matrix:
 Charge =  0 Multiplicity = 1

                         Standard orientation:
 ---------------------------------------------------------------------
 Center     Atomic      Atomic             Coordinates (Angstroms)
 Number     Number       Type             X           Y           Z
 ---------------------------------------------------------------------
      1          6           0        3.351243    0.299518    0.915528
      2          6           0        1.841782    0.500409    0.777131
      3          6           0        1.243177    1.299695    1.934978
      4          1           0        3.561010   -0.213404    1.864135
      5          1           0        3.840748    1.281403    0.976204
      6          1           0        1.355401   -0.481544    0.715344
      7          1           0        1.635570    1.012741   -0.171346
      8          1           0        1.701513    2.292094    1.995584
      9          1           0        1.419752    0.789319    2.887311
     10          1           0        0.163225    1.431475    1.815825
     11          6           0        3.964240   -0.497761   -0.234389
     12          6           0        5.473701   -0.698652   -0.095993
     13          6           0        6.072306   -1.497938   -1.253839
     14          1           0        3.474735   -1.479646   -0.295065
     15          1           0        3.754473    0.015160   -1.182996
     16          1           0        5.679913   -1.210984    0.852484
     17          1           0        5.960082    0.283301   -0.034205
     18          1           0        5.895731   -0.987562   -2.206172
     19          1           0        5.613970   -2.490337   -1.314445
     20          1           0        7.152258   -1.629718   -1.134686
     21          6           0       -3.015932    0.487885   -0.197830
     22          6           0       -2.678025    1.517480   -1.276596
     23          6           0       -1.391344    2.287160   -0.976867
     24          1           0       -3.109335    0.998113    0.770616
     25          1           0       -2.179643   -0.218094   -0.099804
     26          1           0       -3.515286    2.220485   -1.373525
     27          1           0       -2.585603    1.004770   -2.242620
     28          1           0       -0.541201    1.601561   -0.900630
     29          1           0       -1.476166    2.824184   -0.026598
     30          1           0       -1.168727    3.017790   -1.760756
     31          6           0       -4.299552   -0.289641   -0.483309
     32          6           0       -4.637458   -1.319238    0.595458
     33          6           0       -5.924139   -2.088918    0.295728
     34          1           0       -5.135841    0.416337   -0.581334
     35          1           0       -4.206147   -0.799870   -1.451755
     36          1           0       -4.729879   -0.806526    1.561481
     37          1           0       -3.800196   -2.022242    0.692386
     38          1           0       -5.839317   -2.625941   -0.654541
     39          1           0       -6.774281   -1.403318    0.219492
     40          1           0       -6.146756   -2.819548    1.079617
 ---------------------------------------------------------------------

 SCF Done:  E(RHF) =  -470.732941516     A.U. after   11 cycles
 E2 =    -0.1583243586D+01 EUMP2 =    -0.47231618510199D+03

 The electronic state is 1-A.
 Alpha  occ. eigenvalues --  -11.21605 -11.21598 -11.21592 -11.21578 -11.21413
 Alpha  occ. eigenvalues --  -11.21396 -11.21353 -11.21335 -11.21074 -11.21070
 Alpha  occ. eigenvalues --  -11.21011 -11.20980  -1.08443  -1.08408  -1.03565
 Alpha  occ. eigenvalues --   -1.03473  -0.96020  -0.95910  -0.87009  -0.86955
 Alpha  occ. eigenvalues --   -0.79637  -0.79543  -0.78287  -0.78199  -0.65088
 Alpha  occ. eigenvalues --   -0.65029  -0.61013  -0.60840  -0.59485  -0.59227
 Alpha  occ. eigenvalues --   -0.57772  -0.57375  -0.55313  -0.55192  -0.52704
 Alpha  occ. eigenvalues --   -0.52664  -0.52450  -0.52252  -0.50016  -0.49827
 Alpha  occ. eigenvalues --   -0.47924  -0.47874  -0.46751  -0.46479  -0.45854
 Alpha  occ. eigenvalues --   -0.45763  -0.45705  -0.45565  -0.43787  -0.43751
 Alpha virt. eigenvalues --    0.21459   0.23049   0.23411   0.25073   0.26013
 Alpha virt. eigenvalues --    0.26314   0.26749   0.27701   0.27767   0.29250
 Alpha virt. eigenvalues --    0.29996   0.31299   0.31461   0.31854   0.32205

 Mulliken charges:
               1
     1  C   -0.297592
     2  C   -0.303665
     3  C   -0.478336
     4  H    0.149635
     5  H    0.149723
     6  H    0.150945
     7  H    0.154910
     8  H    0.154857
     9  H    0.154496
    10  H    0.164701
    11  C   -0.298397
    12  C   -0.299622
    13  C   -0.475705
    14  H    0.149235
    15  H    0.149577
    16  H    0.151966
    17  H    0.152011
    18  H    0.155166
    19  H    0.155090
    20  H    0.160266
    21  C   -0.299421
    22  C   -0.299230
    23  C   -0.484013
    24  H    0.149409
    25  H    0.150283
    26  H    0.151739
    27  H    0.151789
    28  H    0.164445
    29  H    0.155874
    30  H    0.159598
    31  C   -0.298261
    32  C   -0.299661
    33  C   -0.475718
    34  H    0.149632
    35  H    0.149750
    36  H    0.151998
    37  H    0.151877
    38  H    0.155180
    39  H    0.155211
    40  H    0.160259
 Sum of Mulliken charges =  -0.00000

 Dipole moment (field-independent basis, Debye):
    X=             -0.0036    Y=              0.0064    Z=             -0.0058  Tot=              0.0093
 Quadrupole moment (field-independent basis, Debye-Ang):
   XX=            -85.6904   YY=            -84.2674   ZZ=            -84.8913
   XY=             -0.4533   XZ=             -0.0197   YZ=             -0.5587

 Normal termination of Gaussian 16 at Thu May  6 06:50:39 2021.
