 Gaussian 16, Revision A.03,
 Gaussian 16:  EM64L-G16RevA.03 25-Dec-2016

 -------------
 #p 6-31g* mp2
 -------------

 ------------------------------------------------------
 Input file generated by CHIRIPA (05-May-2021 14:51:11)
 ------------------------------------------------------
 Symbolic Z-matrix:
 Charge =  0 Multiplicity = 1

                         Standard orientation:
 ---------------------------------------------------------------------
 Center     Atomic      Atomic             Coordinates (Angstroms)
 Number     Number       Type             X           Y           Z
 ---------------------------------------------------------------------
      1          6           0       -3.785276   -0.322067    0.077258
      2          6           0       -5.117480   -0.852100   -0.454045
      3          6           0       -5.349629   -2.322757   -0.106094
      4          1           0       -2.966767   -0.930565   -0.331054
      5          1           0       -3.756272   -0.450719    1.168130
      6          1           0       -5.144530   -0.721220   -1.543427
      7          1           0       -5.932900   -0.242150   -0.044572
      8          1           0       -5.349299   -2.466541    0.979230
      9          1           0       -4.556450   -2.948333   -0.528141
     10          1           0       -6.307678   -2.681043   -0.495493
     11          6           0       -3.538812    1.146773   -0.262583
     12          6           0       -2.206608    1.676807    0.268720
     13          6           0       -1.974459    3.147463   -0.079231
     14          1           0       -3.567816    1.275426   -1.353455
     15          1           0       -4.357321    1.755271    0.145729
     16          1           0       -1.391188    1.066857   -0.140753
     17          1           0       -2.179557    1.545926    1.358102
     18          1           0       -2.767637    3.773039    0.342816
     19          1           0       -1.974789    3.291247   -1.164555
     20          1           0       -1.016409    3.505749    0.310168
     21          6           0        3.014797   -0.800368   -0.025436
     22          6           0        1.826914   -0.253749    0.767111
     23          6           0        0.539295   -1.040459    0.520299
     24          1           0        2.772096   -0.782425   -1.096753
     25          1           0        3.171154   -1.854606    0.242016
     26          1           0        1.673710    0.799534    0.499269
     27          1           0        2.072546   -0.272817    1.836652
     28          1           0        0.668257   -2.089639    0.805242
     29          1           0        0.267155   -1.011194   -0.539740
     30          1           0       -0.297023   -0.632715    1.096648
     31          6           0        4.309291   -0.024338    0.210761
     32          6           0        5.497173   -0.570958   -0.581786
     33          6           0        6.784793    0.215752   -0.334974
     34          1           0        4.152933    1.029899   -0.056692
     35          1           0        4.551992   -0.042281    1.282077
     36          1           0        5.251543   -0.551890   -1.651326
     37          1           0        5.650378   -1.624241   -0.313944
     38          1           0        7.056933    0.186487    0.725065
     39          1           0        6.655831    1.264932   -0.619916
     40          1           0        7.621110   -0.191992   -0.911323
 ---------------------------------------------------------------------

 SCF Done:  E(RHF) =  -470.732518249     A.U. after   11 cycles
 E2 =    -0.1583383403D+01 EUMP2 =    -0.47231590165107D+03

 The electronic state is 1-A.
 Alpha  occ. eigenvalues --  -11.21605 -11.21603 -11.21572 -11.21505 -11.21407
 Alpha  occ. eigenvalues --  -11.21363 -11.21348 -11.21304 -11.21073 -11.21047
 Alpha  occ. eigenvalues --  -11.21041 -11.21008  -1.08443  -1.08385  -1.03560
 Alpha  occ. eigenvalues --   -1.03467  -0.95984  -0.95945  -0.87032  -0.86936
 Alpha  occ. eigenvalues --   -0.79656  -0.79516  -0.78254  -0.78198  -0.65124
 Alpha  occ. eigenvalues --   -0.64979  -0.61053  -0.60796  -0.59511  -0.59168
 Alpha  occ. eigenvalues --   -0.57642  -0.57497  -0.55294  -0.55220  -0.52806
 Alpha  occ. eigenvalues --   -0.52554  -0.52444  -0.52314  -0.49988  -0.49848
 Alpha  occ. eigenvalues --   -0.48002  -0.47762  -0.46686  -0.46538  -0.45805
 Alpha  occ. eigenvalues --   -0.45733  -0.45715  -0.45601  -0.43778  -0.43676
 Alpha virt. eigenvalues --    0.21580   0.23073   0.23681   0.24766   0.25990
 Alpha virt. eigenvalues --    0.26240   0.26664   0.27293   0.28108   0.29399
 Alpha virt. eigenvalues --    0.30508   0.31095   0.31580   0.31892   0.32287

 Mulliken charges:
               1
     1  C   -0.300821
     2  C   -0.299556
     3  C   -0.475674
     4  H    0.152835
     5  H    0.148912
     6  H    0.151755
     7  H    0.151824
     8  H    0.155112
     9  H    0.155414
    10  H    0.160066
    11  C   -0.297422
    12  C   -0.307755
    13  C   -0.475322
    14  H    0.148973
    15  H    0.149212
    16  H    0.163438
    17  H    0.150356
    18  H    0.154933
    19  H    0.154708
    20  H    0.159712
    21  C   -0.298223
    22  C   -0.301327
    23  C   -0.481263
    24  H    0.149434
    25  H    0.149671
    26  H    0.152511
    27  H    0.152158
    28  H    0.155348
    29  H    0.152926
    30  H    0.168053
    31  C   -0.298261
    32  C   -0.299638
    33  C   -0.475708
    34  H    0.149489
    35  H    0.149675
    36  H    0.151883
    37  H    0.151936
    38  H    0.155191
    39  H    0.155193
    40  H    0.160251
 Sum of Mulliken charges =  -0.00000

 Dipole moment (field-independent basis, Debye):
    X=              0.0094    Y=             -0.0167    Z=              0.0057  Tot=              0.0200
 Quadrupole moment (field-independent basis, Debye-Ang):
   XX=            -85.8012   YY=            -85.7761   ZZ=            -83.4370
   XY=             -1.0027   XZ=             -0.2211   YZ=             -0.1141

 Normal termination of Gaussian 16 at Wed May  5 15:14:19 2021.
