 Gaussian 16, Revision A.03,
 Gaussian 16:  EM64L-G16RevA.03 25-Dec-2016

 -------------
 #p 6-31g* mp2
 -------------

 ------------------------------------------------------
 Input file generated by CHIRIPA (05-May-2021 14:57:22)
 ------------------------------------------------------
 Symbolic Z-matrix:
 Charge =  0 Multiplicity = 1

                         Standard orientation:
 ---------------------------------------------------------------------
 Center     Atomic      Atomic             Coordinates (Angstroms)
 Number     Number       Type             X           Y           Z
 ---------------------------------------------------------------------
      1          6           0       -4.406599    2.175539   -0.430349
      2          6           0       -3.406978    1.651916   -1.256846
      3          6           0       -2.819800    0.416961   -0.965889
      4          6           0       -3.258331   -0.270621    0.164691
      5          6           0       -4.252115    0.224653    1.007536
      6          6           0       -4.825239    1.461495    0.697217
      7          1           0       -4.857275    3.135614   -0.663891
      8          1           0       -3.079875    2.204247   -2.133190
      9          1           0       -2.044017   -0.011727   -1.588631
     10          1           0       -4.557302   -0.349169    1.874142
     11          1           0       -5.601358    1.865704    1.340878
     12          7           0       -2.644151   -1.579011    0.482963
     13          8           0       -3.048130   -2.165158    1.484896
     14          8           0       -1.770407   -1.993606   -0.275535
     15          6           0        5.162102    1.484483    0.923756
     16          6           0        3.936672    2.054931    0.563987
     17          6           0        2.930721    1.272449   -0.010758
     18          6           0        3.185292   -0.083216   -0.212391
     19          6           0        4.395762   -0.680810    0.135366
     20          6           0        5.387337    0.120837    0.708677
     21          1           0        5.937965    2.099778    1.369675
     22          1           0        3.758961    3.113681    0.729851
     23          1           0        1.972809    1.688267   -0.298711
     24          1           0        4.543518   -1.739119   -0.042308
     25          1           0        6.338055   -0.324885    0.987090
     26          7           0        2.127945   -0.921740   -0.820089
     27          8           0        2.377040   -2.113640   -0.987316
     28          8           0        1.070124   -0.371199   -1.117669
 ---------------------------------------------------------------------

 SCF Done:  E(RHF) =  -868.336646775     A.U. after   16 cycles
 E2 =    -0.2600300536D+01 EUMP2 =    -0.87093694731065D+03

 The electronic state is 1-A.
 Alpha  occ. eigenvalues --  -20.60363 -20.60336 -20.59670 -20.59539 -15.85421
 Alpha  occ. eigenvalues --  -15.84655 -11.30958 -11.30272 -11.27579 -11.27518
 Alpha  occ. eigenvalues --  -11.27319 -11.26966 -11.26771 -11.26759 -11.26622
 Alpha  occ. eigenvalues --  -11.26579 -11.26035 -11.25955  -1.59396  -1.58692
 Alpha  occ. eigenvalues --   -1.38960  -1.38224  -1.19142  -1.18502  -1.08500
 Alpha  occ. eigenvalues --   -1.07868  -1.04577  -1.03936  -0.95310  -0.94642
 Alpha  occ. eigenvalues --   -0.85967  -0.85322  -0.82154  -0.81461  -0.77173
 Alpha  occ. eigenvalues --   -0.76443  -0.71657  -0.70882  -0.70701  -0.70258
 Alpha  occ. eigenvalues --   -0.70024  -0.69608  -0.64801  -0.64584  -0.64145
 Alpha  occ. eigenvalues --   -0.63949  -0.61928  -0.61246  -0.55069  -0.54470
 Alpha  occ. eigenvalues --   -0.52889  -0.52676  -0.52277  -0.52023  -0.48410
 Alpha  occ. eigenvalues --   -0.48355  -0.47684  -0.47561  -0.44361  -0.43521
 Alpha  occ. eigenvalues --   -0.37128  -0.36540  -0.36187  -0.35558
 Alpha virt. eigenvalues --    0.05369   0.06085   0.11465   0.12087   0.16838
 Alpha virt. eigenvalues --    0.17493   0.21539   0.22180   0.27448   0.27997
 Alpha virt. eigenvalues --    0.28436   0.29183   0.31078   0.31673   0.32644

 Mulliken charges:
               1
     1  C   -0.172027
     2  C   -0.221874
     3  C   -0.171937
     4  C    0.155194
     5  C   -0.172097
     6  C   -0.219886
     7  H    0.221327
     8  H    0.220877
     9  H    0.293792
    10  H    0.273141
    11  H    0.219499
    12  N    0.485216
    13  O   -0.469287
    14  O   -0.443394
    15  C   -0.171341
    16  C   -0.218278
    17  C   -0.170985
    18  C    0.159668
    19  C   -0.170391
    20  C   -0.218357
    21  H    0.224560
    22  H    0.221320
    23  H    0.271499
    24  H    0.276979
    25  H    0.223253
    26  N    0.491883
    27  O   -0.453249
    28  O   -0.465106
 Sum of Mulliken charges =  -0.00000

 Dipole moment (field-independent basis, Debye):
    X=              1.8765    Y=              7.2676    Z=              0.8439  Tot=              7.5532
 Quadrupole moment (field-independent basis, Debye-Ang):
   XX=            -66.0602   YY=           -105.7197   ZZ=           -104.1284
   XY=             -7.8660   XZ=              7.3890   YZ=             -0.0670

 Normal termination of Gaussian 16 at Thu May  6 12:52:57 2021.
