 Gaussian 16, Revision A.03,
 Gaussian 16:  EM64L-G16RevA.03 25-Dec-2016

 -------------
 #p 6-31g* mp2
 -------------

 ------------------------------------------------------
 Input file generated by CHIRIPA (05-May-2021 14:57:24)
 ------------------------------------------------------
 Symbolic Z-matrix:
 Charge =  0 Multiplicity = 1

                         Standard orientation:
 ---------------------------------------------------------------------
 Center     Atomic      Atomic             Coordinates (Angstroms)
 Number     Number       Type             X           Y           Z
 ---------------------------------------------------------------------
      1          6           0        6.112128    1.338943    0.435429
      2          6           0        4.872439    1.860622    0.819540
      3          6           0        3.692906    1.160597    0.548957
      4          6           0        3.790325   -0.063777   -0.110366
      5          6           0        5.010466   -0.609857   -0.505766
      6          6           0        6.177071    0.107539   -0.224834
      7          1           0        7.023396    1.889487    0.649644
      8          1           0        4.818977    2.816715    1.332447
      9          1           0        2.719951    1.541241    0.835116
     10          1           0        5.031876   -1.565379   -1.015609
     11          1           0        7.138444   -0.300038   -0.524315
     12          7           0        2.548449   -0.814058   -0.402298
     13          8           0        2.661193   -1.890673   -0.984386
     14          8           0        1.485839   -0.311306   -0.043500
     15          6           0       -2.124521   -1.607152    0.750127
     16          6           0       -2.119273   -1.024716   -0.521589
     17          6           0       -3.150484   -0.165876   -0.913441
     18          6           0       -4.175832    0.089707   -0.004249
     19          6           0       -4.209255   -0.475236    1.269726
     20          6           0       -3.167656   -1.331040    1.640156
     21          1           0       -1.319417   -2.273140    1.046206
     22          1           0       -1.310452   -1.237343   -1.214873
     23          1           0       -3.171301    0.298572   -1.891844
     24          1           0       -5.029127   -0.244261    1.938962
     25          1           0       -3.174338   -1.781948    2.628429
     26          7           0       -5.273027    0.997314   -0.407746
     27          8           0       -6.164879    1.206428    0.411711
     28          8           0       -5.220383    1.482398   -1.535824
 ---------------------------------------------------------------------

 SCF Done:  E(RHF) =  -868.340564294     A.U. after   16 cycles
 E2 =    -0.2598404242D+01 EUMP2 =    -0.87093896853633D+03

 The electronic state is 1-A.
 Alpha  occ. eigenvalues --  -20.61810 -20.61804 -20.59920 -20.59911 -15.86814
 Alpha  occ. eigenvalues --  -15.84960 -11.31869 -11.30060 -11.28402 -11.28391
 Alpha  occ. eigenvalues --  -11.28083 -11.27344 -11.27330 -11.26635 -11.26509
 Alpha  occ. eigenvalues --  -11.26134 -11.25594 -11.25302  -1.60878  -1.59000
 Alpha  occ. eigenvalues --   -1.40433  -1.38561  -1.20014  -1.18175  -1.09470
 Alpha  occ. eigenvalues --   -1.07588  -1.05366  -1.03529  -0.96356  -0.94482
 Alpha  occ. eigenvalues --   -0.86779  -0.84914  -0.83192  -0.81329  -0.78276
 Alpha  occ. eigenvalues --   -0.76434  -0.73050  -0.72172  -0.71184  -0.71114
 Alpha  occ. eigenvalues --   -0.70321  -0.69227  -0.65667  -0.65365  -0.63804
 Alpha  occ. eigenvalues --   -0.63480  -0.62714  -0.60879  -0.55879  -0.53955
 Alpha  occ. eigenvalues --   -0.53715  -0.53451  -0.51886  -0.51598  -0.49820
 Alpha  occ. eigenvalues --   -0.49788  -0.47956  -0.47910  -0.45901  -0.44027
 Alpha  occ. eigenvalues --   -0.37976  -0.36955  -0.36090  -0.35129
 Alpha virt. eigenvalues --    0.04224   0.06073   0.10704   0.12534   0.15784
 Alpha virt. eigenvalues --    0.17676   0.20891   0.22782   0.26823   0.27759
 Alpha virt. eigenvalues --    0.28679   0.29599   0.30501   0.31971   0.32403

 Mulliken charges:
               1
     1  C   -0.169627
     2  C   -0.218605
     3  C   -0.170737
     4  C    0.157156
     5  C   -0.170520
     6  C   -0.218625
     7  H    0.228107
     8  H    0.226060
     9  H    0.276891
    10  H    0.275926
    11  H    0.225432
    12  N    0.488955
    13  O   -0.461501
    14  O   -0.466510
    15  C   -0.168649
    16  C   -0.212391
    17  C   -0.175369
    18  C    0.157409
    19  C   -0.173835
    20  C   -0.220418
    21  H    0.231001
    22  H    0.238113
    23  H    0.271943
    24  H    0.270755
    25  H    0.218400
    26  N    0.488189
    27  O   -0.464332
    28  O   -0.463219
 Sum of Mulliken charges =  -0.00000

 Dipole moment (field-independent basis, Debye):
    X=              8.9086    Y=             -0.5992    Z=              2.3983  Tot=              9.2452
 Quadrupole moment (field-independent basis, Debye-Ang):
   XX=           -103.3897   YY=           -103.9609   ZZ=           -101.2015
   XY=             22.2588   XZ=             -5.7415   YZ=              1.1677

 Normal termination of Gaussian 16 at Thu May  6 19:35:48 2021.
