 Gaussian 16, Revision A.03,
 Gaussian 16:  EM64L-G16RevA.03 25-Dec-2016

 -------------
 #p 6-31g* mp2
 -------------

 ------------------------------------------------------
 Input file generated by CHIRIPA (05-May-2021 14:55:19)
 ------------------------------------------------------
 Symbolic Z-matrix:
 Charge =  0 Multiplicity = 1

                         Standard orientation:
 ---------------------------------------------------------------------
 Center     Atomic      Atomic             Coordinates (Angstroms)
 Number     Number       Type             X           Y           Z
 ---------------------------------------------------------------------
      1          6           0        5.918864   -1.333885    0.629092
      2          6           0        5.922431    0.022038    0.972575
      3          6           0        4.848746    0.846054    0.622221
      4          6           0        3.783101    0.278459   -0.074576
      5          6           0        3.750216   -1.068794   -0.431110
      6          6           0        4.834679   -1.874022   -0.070421
      7          1           0        6.757114   -1.966703    0.905270
      8          1           0        6.763076    0.444238    1.515812
      9          1           0        4.825627    1.899017    0.875504
     10          1           0        2.898035   -1.460970   -0.972777
     11          1           0        4.829197   -2.926708   -0.338498
     12          7           0        2.640733    1.140863   -0.450951
     13          8           0        1.713873    0.616586   -1.064711
     14          8           0        2.693837    2.324762   -0.125067
     15          6           0       -5.681872    0.172647    0.339645
     16          6           0       -7.006163   -0.553270    0.100306
     17          6           0       -8.194172    0.153356    0.753841
     18          1           0       -5.508963    0.259641    1.421070
     19          1           0       -5.758454    1.197911   -0.048122
     20          1           0       -6.926641   -1.577297    0.487165
     21          1           0       -7.175847   -0.638716   -0.980677
     22          1           0       -8.301880    1.169445    0.360695
     23          1           0       -8.051258    0.225530    1.836878
     24          1           0       -9.130636   -0.382518    0.570177
     25          6           0       -4.484851   -0.521639   -0.307529
     26          6           0       -3.160560    0.204278   -0.068190
     27          6           0       -1.972552   -0.502348   -0.721726
     28          1           0       -4.408269   -1.546903    0.080238
     29          1           0       -4.657761   -0.608633   -1.388954
     30          1           0       -2.990876    0.289724    1.012792
     31          1           0       -3.240083    1.228306   -0.455050
     32          1           0       -2.115465   -0.574522   -1.804762
     33          1           0       -1.864844   -1.518437   -0.328580
     34          1           0       -1.036087    0.033526   -0.538062
 ---------------------------------------------------------------------

 SCF Done:  E(RHF) =  -669.536188140     A.U. after   15 cycles
 E2 =    -0.2090590689D+01 EUMP2 =    -0.67162677882965D+03

 The electronic state is 1-A.
 Alpha  occ. eigenvalues --  -20.60933 -20.60928 -15.85963 -11.31276 -11.27841
 Alpha  occ. eigenvalues --  -11.27833 -11.27579 -11.26847 -11.26837 -11.21127
 Alpha  occ. eigenvalues --  -11.20784 -11.20670 -11.20655 -11.20593 -11.19743
 Alpha  occ. eigenvalues --   -1.59994  -1.39550  -1.19445  -1.08852  -1.07734
 Alpha  occ. eigenvalues --   -1.04840  -1.02764  -0.95696  -0.95196  -0.86244
 Alpha  occ. eigenvalues --   -0.86211  -0.82528  -0.78852  -0.77584  -0.77528
 Alpha  occ. eigenvalues --   -0.72187  -0.71307  -0.70554  -0.65101  -0.64844
 Alpha  occ. eigenvalues --   -0.64376  -0.62187  -0.60176  -0.58582  -0.56784
 Alpha  occ. eigenvalues --   -0.55347  -0.54510  -0.53174  -0.52932  -0.51834
 Alpha  occ. eigenvalues --   -0.51630  -0.49178  -0.48946  -0.48932  -0.47152
 Alpha  occ. eigenvalues --   -0.45916  -0.45075  -0.45000  -0.44956  -0.42966
 Alpha  occ. eigenvalues --   -0.37425  -0.36441
 Alpha virt. eigenvalues --    0.04919   0.11214   0.16396   0.21340   0.23516
 Alpha virt. eigenvalues --    0.25146   0.27261   0.27301   0.28124   0.28159
 Alpha virt. eigenvalues --    0.28913   0.30880   0.32107   0.32302   0.32475

 Mulliken charges:
               1
     1  C   -0.170580
     2  C   -0.218623
     3  C   -0.170675
     4  C    0.157783
     5  C   -0.170778
     6  C   -0.218611
     7  H    0.225932
     8  H    0.223732
     9  H    0.275784
    10  H    0.276491
    11  H    0.223877
    12  N    0.490233
    13  O   -0.461502
    14  O   -0.459014
    15  C   -0.297659
    16  C   -0.299020
    17  C   -0.475318
    18  H    0.148454
    19  H    0.149661
    20  H    0.150492
    21  H    0.151324
    22  H    0.155106
    23  H    0.154453
    24  H    0.158610
    25  C   -0.297283
    26  C   -0.299104
    27  C   -0.485178
    28  H    0.146452
    29  H    0.148431
    30  H    0.148877
    31  H    0.153587
    32  H    0.152127
    33  H    0.145047
    34  H    0.186893
 Sum of Mulliken charges =  -0.00000

 Dipole moment (field-independent basis, Debye):
    X=              4.3445    Y=             -2.9524    Z=              1.3026  Tot=              5.4119
 Quadrupole moment (field-independent basis, Debye-Ang):
   XX=            -65.6978   YY=            -93.5668   ZZ=            -94.2534
   XY=             -8.5426   XZ=              6.6040   YZ=              1.8815

 Normal termination of Gaussian 16 at Thu May  6 20:37:26 2021.
