 Gaussian 16, Revision A.03,
 Gaussian 16:  EM64L-G16RevA.03 25-Dec-2016

 -------------
 #p 6-31g* mp2
 -------------

 ------------------------------------------------------
 Input file generated by CHIRIPA (05-May-2021 14:57:26)
 ------------------------------------------------------
 Symbolic Z-matrix:
 Charge =  0 Multiplicity = 1

                         Standard orientation:
 ---------------------------------------------------------------------
 Center     Atomic      Atomic             Coordinates (Angstroms)
 Number     Number       Type             X           Y           Z
 ---------------------------------------------------------------------
      1          6           0        1.740554    1.650105   -0.041240
      2          6           0        1.642872    0.435979    0.646422
      3          6           0        2.701624   -0.476873    0.629314
      4          6           0        3.848470   -0.141743   -0.088824
      5          6           0        3.976020    1.059847   -0.783952
      6          6           0        2.904764    1.957621   -0.752978
      7          1           0        0.913234    2.353374   -0.022564
      8          1           0        0.739941    0.194500    1.200000
      9          1           0        2.652673   -1.423932    1.152860
     10          1           0        4.888858    1.272552   -1.327000
     11          1           0        2.983421    2.899780   -1.287949
     12          7           0        4.975941   -1.100158   -0.114275
     13          8           0        5.975548   -0.781257   -0.754374
     14          8           0        4.838698   -2.152117    0.506357
     15          6           0       -2.163552    1.770683    1.046724
     16          6           0       -2.994455    2.064226   -0.039532
     17          6           0       -3.829194    1.081954   -0.580734
     18          6           0       -3.807575   -0.188966   -0.008383
     19          6           0       -2.990979   -0.512285    1.074172
     20          6           0       -2.164463    0.485630    1.599135
     21          1           0       -1.518300    2.539812    1.460835
     22          1           0       -2.995830    3.061345   -0.470575
     23          1           0       -4.482381    1.281979   -1.421421
     24          1           0       -3.011563   -1.515434    1.482445
     25          1           0       -1.520214    0.254806    2.442763
     26          7           0       -4.686924   -1.237134   -0.572733
     27          8           0       -4.649342   -2.349073   -0.050414
     28          8           0       -5.397088   -0.926902   -1.526704
 ---------------------------------------------------------------------

 SCF Done:  E(RHF) =  -868.336218499     A.U. after   16 cycles
 E2 =    -0.2601479060D+01 EUMP2 =    -0.87093769755845D+03

 The electronic state is 1-A.
 Alpha  occ. eigenvalues --  -20.61492 -20.61487 -20.61083 -20.61078 -15.86555
 Alpha  occ. eigenvalues --  -15.86139 -11.32181 -11.31606 -11.28799 -11.28759
 Alpha  occ. eigenvalues --  -11.28680 -11.28190 -11.28174 -11.28013 -11.27940
 Alpha  occ. eigenvalues --  -11.27857 -11.27242 -11.27231  -1.60561  -1.60156
 Alpha  occ. eigenvalues --   -1.40107  -1.39706  -1.20402  -1.19795  -1.09778
 Alpha  occ. eigenvalues --   -1.09183  -1.05841  -1.05213  -0.96554  -0.95999
 Alpha  occ. eigenvalues --   -0.87257  -0.86607  -0.83377  -0.82828  -0.78358
 Alpha  occ. eigenvalues --   -0.77847  -0.72770  -0.72358  -0.71886  -0.71598
 Alpha  occ. eigenvalues --   -0.71479  -0.70902  -0.66074  -0.65953  -0.65454
 Alpha  occ. eigenvalues --   -0.65174  -0.63183  -0.62535  -0.56465  -0.55704
 Alpha  occ. eigenvalues --   -0.54195  -0.53954  -0.53531  -0.53240  -0.49549
 Alpha  occ. eigenvalues --   -0.49506  -0.49124  -0.49105  -0.45454  -0.45089
 Alpha  occ. eigenvalues --   -0.38439  -0.37788  -0.37422  -0.36802
 Alpha virt. eigenvalues --    0.04140   0.04691   0.10005   0.10834   0.15427
 Alpha virt. eigenvalues --    0.16150   0.18630   0.22170   0.24599   0.25767
 Alpha virt. eigenvalues --    0.27789   0.29103   0.30026   0.31231   0.32233

 Mulliken charges:
               1
     1  C   -0.172752
     2  C   -0.219086
     3  C   -0.171841
     4  C    0.159505
     5  C   -0.170361
     6  C   -0.218079
     7  H    0.218215
     8  H    0.221007
     9  H    0.276425
    10  H    0.276986
    11  H    0.223593
    12  N    0.488003
    13  O   -0.459221
    14  O   -0.459290
    15  C   -0.175861
    16  C   -0.218524
    17  C   -0.168167
    18  C    0.160257
    19  C   -0.169619
    20  C   -0.224834
    21  H    0.223572
    22  H    0.225374
    23  H    0.279417
    24  H    0.279517
    25  H    0.222440
    26  N    0.487949
    27  O   -0.457207
    28  O   -0.457419
 Sum of Mulliken charges =  -0.00000

 Dipole moment (field-independent basis, Debye):
    X=             -1.1240    Y=              6.9313    Z=              1.9374  Tot=              7.2842
 Quadrupole moment (field-independent basis, Debye-Ang):
   XX=           -156.4828   YY=           -103.8556   ZZ=           -101.9184
   XY=             -0.4412   XZ=             -7.2509   YZ=             -5.5900

 Normal termination of Gaussian 16 at Thu May  6 03:34:05 2021.
