 Gaussian 16, Revision A.03,
 Gaussian 16:  EM64L-G16RevA.03 25-Dec-2016

 -------------
 #p 6-31g* mp2
 -------------

 ------------------------------------------------------
 Input file generated by CHIRIPA (05-May-2021 14:55:21)
 ------------------------------------------------------
 Symbolic Z-matrix:
 Charge =  0 Multiplicity = 1

                         Standard orientation:
 ---------------------------------------------------------------------
 Center     Atomic      Atomic             Coordinates (Angstroms)
 Number     Number       Type             X           Y           Z
 ---------------------------------------------------------------------
      1          6           0       -2.193838    2.145109    0.646242
      2          6           0       -1.645043    0.939771    1.096247
      3          6           0       -2.290290   -0.273681    0.839853
      4          6           0       -3.488133   -0.244841    0.127372
      5          6           0       -4.060112    0.939673   -0.334207
      6          6           0       -3.397499    2.141220   -0.066293
      7          1           0       -1.685850    3.083124    0.849889
      8          1           0       -0.710392    0.939766    1.649848
      9          1           0       -1.887667   -1.221278    1.176561
     10          1           0       -4.993176    0.907797   -0.883564
     11          1           0       -3.826032    3.075785   -0.416996
     12          7           0       -4.180420   -1.523167   -0.150159
     13          8           0       -5.234574   -1.470842   -0.779967
     14          8           0       -3.655771   -2.553238    0.267375
     15          6           0        4.804082   -0.528626   -0.079037
     16          6           0        6.254141   -0.069381    0.077188
     17          6           0        7.213038   -1.225749    0.362006
     18          1           0        4.490650   -1.049894    0.835832
     19          1           0        4.745383   -1.263933   -0.893451
     20          1           0        6.309858    0.665874    0.890151
     21          1           0        6.564096    0.451023   -0.838085
     22          1           0        7.187010   -1.957235   -0.452151
     23          1           0        6.931327   -1.741163    1.285906
     24          1           0        8.244118   -0.874957    0.470077
     25          6           0        3.833451    0.616070   -0.364131
     26          6           0        2.383391    0.156825   -0.520355
     27          6           0        1.424494    1.313194   -0.805173
     28          1           0        3.892149    1.351377    0.450284
     29          1           0        4.146882    1.137338   -1.278999
     30          1           0        2.073436   -0.363578    0.394918
     31          1           0        2.327675   -0.578430   -1.333319
     32          1           0        1.706205    1.828607   -1.729073
     33          1           0        1.450522    2.044679    0.008984
     34          1           0        0.393414    0.962401   -0.913245
 ---------------------------------------------------------------------

 SCF Done:  E(RHF) =  -669.534788500     A.U. after   15 cycles
 E2 =    -0.2092115961D+01 EUMP2 =    -0.67162690446171D+03

 The electronic state is 1-A.
 Alpha  occ. eigenvalues --  -20.60771 -20.60765 -15.85824 -11.31200 -11.27754
 Alpha  occ. eigenvalues --  -11.27747 -11.27483 -11.26781 -11.26753 -11.22170
 Alpha  occ. eigenvalues --  -11.21909 -11.21853 -11.21727 -11.21633 -11.21311
 Alpha  occ. eigenvalues --   -1.59846  -1.39399  -1.19374  -1.08865  -1.08759
 Alpha  occ. eigenvalues --   -1.04783  -1.03962  -0.96415  -0.95592  -0.87442
 Alpha  occ. eigenvalues --   -0.86159  -0.82425  -0.80034  -0.78658  -0.77475
 Alpha  occ. eigenvalues --   -0.72042  -0.71170  -0.70463  -0.65512  -0.65019
 Alpha  occ. eigenvalues --   -0.64776  -0.62149  -0.61348  -0.59796  -0.58027
 Alpha  occ. eigenvalues --   -0.55721  -0.55257  -0.53516  -0.52915  -0.52858
 Alpha  occ. eigenvalues --   -0.52581  -0.50361  -0.48800  -0.48796  -0.48341
 Alpha  occ. eigenvalues --   -0.47081  -0.46202  -0.46123  -0.44803  -0.44214
 Alpha  occ. eigenvalues --   -0.37307  -0.36331
 Alpha virt. eigenvalues --    0.05044   0.11253   0.16497   0.20274   0.22674
 Alpha virt. eigenvalues --    0.23963   0.25971   0.26670   0.27004   0.28064
 Alpha virt. eigenvalues --    0.28662   0.30358   0.31126   0.31375   0.31954

 Mulliken charges:
               1
     1  C   -0.169983
     2  C   -0.217166
     3  C   -0.173089
     4  C    0.158779
     5  C   -0.171316
     6  C   -0.218470
     7  H    0.226310
     8  H    0.226469
     9  H    0.275711
    10  H    0.275618
    11  H    0.223635
    12  N    0.488091
    13  O   -0.460389
    14  O   -0.460334
    15  C   -0.298594
    16  C   -0.299874
    17  C   -0.475949
    18  H    0.149323
    19  H    0.151491
    20  H    0.151310
    21  H    0.152503
    22  H    0.156267
    23  H    0.155460
    24  H    0.160978
    25  C   -0.297992
    26  C   -0.299772
    27  C   -0.482685
    28  H    0.147405
    29  H    0.151237
    30  H    0.146232
    31  H    0.156831
    32  H    0.157488
    33  H    0.143907
    34  H    0.170567
 Sum of Mulliken charges =  -0.00000

 Dipole moment (field-independent basis, Debye):
    X=              2.4763    Y=              4.4863    Z=              0.9247  Tot=              5.2071
 Quadrupole moment (field-independent basis, Debye-Ang):
   XX=           -109.8946   YY=            -96.8064   ZZ=            -92.9702
   XY=            -18.1840   XZ=             -1.5763   YZ=             -0.7434

 Normal termination of Gaussian 16 at Thu May  6 06:11:04 2021.
