 Gaussian 16, Revision A.03,
 Gaussian 16:  EM64L-G16RevA.03 25-Dec-2016

 -------------
 #p 6-31g* mp2
 -------------

 ------------------------------------------------------
 Input file generated by CHIRIPA (05-May-2021 14:53:17)
 ------------------------------------------------------
 Symbolic Z-matrix:
 Charge =  0 Multiplicity = 1

                         Standard orientation:
 ---------------------------------------------------------------------
 Center     Atomic      Atomic             Coordinates (Angstroms)
 Number     Number       Type             X           Y           Z
 ---------------------------------------------------------------------
      1          6           0       -3.726267    1.051174   -0.150434
      2          6           0       -2.201588    0.954276   -0.213270
      3          6           0       -1.517282    2.316417   -0.094566
      4          1           0       -4.078801    1.711528   -0.954547
      5          1           0       -4.017736    1.527759    0.795774
      6          1           0       -1.913137    0.476761   -1.158464
      7          1           0       -1.852658    0.293924    0.590968
      8          1           0       -1.776168    2.796159    0.854869
      9          1           0       -1.836991    2.980035   -0.904503
     10          1           0       -0.427765    2.223836   -0.141907
     11          6           0       -4.424675   -0.302410   -0.267756
     12          6           0       -5.949355   -0.205512   -0.204919
     13          6           0       -6.633660   -1.567653   -0.323624
     14          1           0       -4.133206   -0.778994   -1.213963
     15          1           0       -4.072142   -0.962764    0.536357
     16          1           0       -6.298285    0.454841   -1.009157
     17          1           0       -6.237805    0.272003    0.740275
     18          1           0       -6.313951   -2.231271    0.486313
     19          1           0       -6.374774   -2.047394   -1.273059
     20          1           0       -7.723177   -1.475071   -0.276282
     21          6           0        0.940024   -0.671369    1.252903
     22          6           0        1.632240   -1.745486    0.684017
     23          6           0        2.876264   -1.547238    0.077673
     24          6           0        3.400898   -0.255857    0.058021
     25          6           0        2.735561    0.834600    0.616163
     26          6           0        1.492918    0.612981    1.217223
     27          1           0       -0.025826   -0.834451    1.721874
     28          1           0        1.205282   -2.744016    0.710256
     29          1           0        3.433628   -2.360881   -0.370375
     30          1           0        3.186737    1.818532    0.574513
     31          1           0        0.957585    1.449030    1.658227
     32          7           0        4.717158   -0.033611   -0.581091
     33          8           0        5.157780    1.113766   -0.585323
     34          8           0        5.283297   -1.010996   -1.065693
 ---------------------------------------------------------------------

 SCF Done:  E(RHF) =  -669.534040625     A.U. after   15 cycles
 E2 =    -0.2093201789D+01 EUMP2 =    -0.67162724241373D+03

 The electronic state is 1-A.
 Alpha  occ. eigenvalues --  -20.60764 -20.60759 -15.85818 -11.31191 -11.27761
 Alpha  occ. eigenvalues --  -11.27757 -11.27485 -11.26771 -11.26734 -11.22482
 Alpha  occ. eigenvalues --  -11.22161 -11.22110 -11.22038 -11.21866 -11.21564
 Alpha  occ. eigenvalues --   -1.59839  -1.39392  -1.19370  -1.09148  -1.08756
 Alpha  occ. eigenvalues --   -1.04784  -1.04225  -0.96676  -0.95592  -0.87702
 Alpha  occ. eigenvalues --   -0.86163  -0.82437  -0.80304  -0.78947  -0.77475
 Alpha  occ. eigenvalues --   -0.72036  -0.71163  -0.70497  -0.65793  -0.65017
 Alpha  occ. eigenvalues --   -0.64817  -0.62188  -0.61607  -0.60023  -0.58281
 Alpha  occ. eigenvalues --   -0.55957  -0.55320  -0.53550  -0.53181  -0.52980
 Alpha  occ. eigenvalues --   -0.52632  -0.50605  -0.48812  -0.48790  -0.48579
 Alpha  occ. eigenvalues --   -0.47337  -0.46486  -0.46399  -0.44797  -0.44478
 Alpha  occ. eigenvalues --   -0.37302  -0.36345
 Alpha virt. eigenvalues --    0.05036   0.11203   0.16419   0.19960   0.22610
 Alpha virt. eigenvalues --    0.24045   0.25177   0.26225   0.26768   0.28327
 Alpha virt. eigenvalues --    0.28738   0.30563   0.30945   0.31422   0.32198

 Mulliken charges:
               1
     1  C   -0.298565
     2  C   -0.298368
     3  C   -0.483733
     4  H    0.153123
     5  H    0.149345
     6  H    0.157448
     7  H    0.139949
     8  H    0.151638
     9  H    0.161138
    10  H    0.162743
    11  C   -0.297991
    12  C   -0.300077
    13  C   -0.476017
    14  H    0.151166
    15  H    0.145330
    16  H    0.153865
    17  H    0.152336
    18  H    0.154363
    19  H    0.156083
    20  H    0.162158
    21  C   -0.169143
    22  C   -0.219660
    23  C   -0.170773
    24  C    0.158782
    25  C   -0.173098
    26  C   -0.218505
    27  H    0.226458
    28  H    0.223603
    29  H    0.275623
    30  H    0.275856
    31  H    0.227663
    32  N    0.488083
    33  O   -0.460375
    34  O   -0.460446
 Sum of Mulliken charges =  -0.00000

 Dipole moment (field-independent basis, Debye):
    X=             -4.7397    Y=             -0.7784    Z=              2.1647  Tot=              5.2685
 Quadrupole moment (field-independent basis, Debye-Ang):
   XX=           -127.0000   YY=            -90.4183   ZZ=            -93.9679
   XY=             -2.4357   XZ=              7.6343   YZ=              0.3365

 Normal termination of Gaussian 16 at Thu May  6 17:16:08 2021.
