 Gaussian 16, Revision A.03,
 Gaussian 16:  EM64L-G16RevA.03 25-Dec-2016

 -------------
 #p 6-31g* mp2
 -------------

 ------------------------------------------------------
 Input file generated by CHIRIPA (05-May-2021 14:53:15)
 ------------------------------------------------------
 Symbolic Z-matrix:
 Charge =  0 Multiplicity = 1

                         Standard orientation:
 ---------------------------------------------------------------------
 Center     Atomic      Atomic             Coordinates (Angstroms)
 Number     Number       Type             X           Y           Z
 ---------------------------------------------------------------------
      1          6           0       -2.349174    1.218175    0.236400
      2          6           0       -1.285399    1.913025   -0.614218
      3          6           0       -0.319675    2.755841    0.219347
      4          1           0       -2.912528    1.975656    0.798361
      5          1           0       -1.853803    0.580429    0.981574
      6          1           0       -1.782653    2.548201   -1.358466
      7          1           0       -0.724638    1.153816   -1.174365
      8          1           0        0.202695    2.131842    0.951709
      9          1           0       -0.861331    3.534150    0.766562
     10          1           0        0.432378    3.243557   -0.408675
     11          6           0       -3.322076    0.371825   -0.582673
     12          6           0       -4.385851   -0.323025    0.267946
     13          6           0       -5.351575   -1.165842   -0.565619
     14          1           0       -3.817447    1.009570   -1.327847
     15          1           0       -2.758722   -0.385656   -1.144634
     16          1           0       -4.946612    0.436184    0.828092
     17          1           0       -3.888597   -0.958202    1.012194
     18          1           0       -4.809919   -1.944150   -1.112835
     19          1           0       -5.873945   -0.541842   -1.297982
     20          1           0       -6.103628   -1.653557    0.062402
     21          6           0        4.329783    0.481327   -0.689168
     22          6           0        3.806323    0.819702    0.563036
     23          6           0        2.635362    0.215251    1.029982
     24          6           0        2.010914   -0.727672    0.214966
     25          6           0        2.507770   -1.085975   -1.037250
     26          6           0        3.679983   -0.468757   -1.483912
     27          1           0        5.239900    0.955839   -1.044024
     28          1           0        4.308843    1.557211    1.182390
     29          1           0        2.208339    0.458528    1.995324
     30          1           0        1.984452   -1.824736   -1.632051
     31          1           0        4.084226   -0.733502   -2.456817
     32          7           0        0.770609   -1.374335    0.698564
     33          8           0        0.239365   -2.202033   -0.038548
     34          8           0        0.353186   -1.041249    1.805564
 ---------------------------------------------------------------------

 SCF Done:  E(RHF) =  -669.536485853     A.U. after   15 cycles
 E2 =    -0.2093827950D+01 EUMP2 =    -0.67163031380342D+03

 The electronic state is 1-A.
 Alpha  occ. eigenvalues --  -20.61096 -20.61086 -15.86092 -11.31347 -11.27900
 Alpha  occ. eigenvalues --  -11.27896 -11.27619 -11.26885 -11.26874 -11.21076
 Alpha  occ. eigenvalues --  -11.20736 -11.20570 -11.20396 -11.20328 -11.20189
 Alpha  occ. eigenvalues --   -1.60136  -1.39695  -1.19506  -1.08923  -1.07556
 Alpha  occ. eigenvalues --   -1.04891  -1.02788  -0.95777  -0.95232  -0.86333
 Alpha  occ. eigenvalues --   -0.86233  -0.82613  -0.78858  -0.77680  -0.77325
 Alpha  occ. eigenvalues --   -0.72316  -0.71470  -0.70619  -0.65163  -0.64894
 Alpha  occ. eigenvalues --   -0.64148  -0.62247  -0.60190  -0.58628  -0.56839
 Alpha  occ. eigenvalues --   -0.55400  -0.54585  -0.53164  -0.52982  -0.51990
 Alpha  occ. eigenvalues --   -0.51665  -0.49254  -0.49080  -0.49013  -0.47183
 Alpha  occ. eigenvalues --   -0.45984  -0.45300  -0.44889  -0.44395  -0.42986
 Alpha  occ. eigenvalues --   -0.37461  -0.36456
 Alpha virt. eigenvalues --    0.04792   0.11088   0.16282   0.21164   0.23408
 Alpha virt. eigenvalues --    0.24843   0.26744   0.27368   0.27977   0.28796
 Alpha virt. eigenvalues --    0.28817   0.30627   0.31604   0.32218   0.32434

 Mulliken charges:
               1
     1  C   -0.310143
     2  C   -0.300282
     3  C   -0.477063
     4  H    0.145028
     5  H    0.172612
     6  H    0.149794
     7  H    0.147132
     8  H    0.154325
     9  H    0.154589
    10  H    0.154625
    11  C   -0.298060
    12  C   -0.300788
    13  C   -0.475755
    14  H    0.143034
    15  H    0.155787
    16  H    0.147508
    17  H    0.162458
    18  H    0.157462
    19  H    0.150931
    20  H    0.158028
    21  C   -0.170322
    22  C   -0.218477
    23  C   -0.169664
    24  C    0.160535
    25  C   -0.171395
    26  C   -0.218331
    27  H    0.226296
    28  H    0.224415
    29  H    0.275785
    30  H    0.275859
    31  H    0.224044
    32  N    0.488754
    33  O   -0.458911
    34  O   -0.459807
 Sum of Mulliken charges =  -0.00000

 Dipole moment (field-independent basis, Debye):
    X=              4.5683    Y=              2.0572    Z=             -1.5961  Tot=              5.2583
 Quadrupole moment (field-independent basis, Debye-Ang):
   XX=            -78.4319   YY=            -97.4178   ZZ=            -92.3495
   XY=              1.0252   XZ=             -2.9508   YZ=              4.0552

 Normal termination of Gaussian 16 at Wed May  5 21:53:43 2021.
