 Gaussian 16, Revision A.03,
 Gaussian 16:  EM64L-G16RevA.03 25-Dec-2016

 -------------
 #p 6-31g* mp2
 -------------

 ------------------------------------------------------
 Input file generated by CHIRIPA (05-May-2021 14:57:26)
 ------------------------------------------------------
 Symbolic Z-matrix:
 Charge =  0 Multiplicity = 1

                         Standard orientation:
 ---------------------------------------------------------------------
 Center     Atomic      Atomic             Coordinates (Angstroms)
 Number     Number       Type             X           Y           Z
 ---------------------------------------------------------------------
      1          6           0        3.054801    1.995820    1.220085
      2          6           0        3.787080    0.865987    1.599248
      3          6           0        3.670761   -0.328860    0.882756
      4          6           0        2.808993   -0.358609   -0.212580
      5          6           0        2.066087    0.750140   -0.615142
      6          6           0        2.198152    1.934399    0.116047
      7          1           0        3.151276    2.919893    1.782382
      8          1           0        4.453130    0.910778    2.456229
      9          1           0        4.225916   -1.218479    1.154414
     10          1           0        1.410193    0.674843   -1.473950
     11          1           0        1.628222    2.810277   -0.180708
     12          7           0        2.677517   -1.617935   -0.978878
     13          8           0        1.911496   -1.618271   -1.940049
     14          8           0        3.342976   -2.580813   -0.603821
     15          6           0       -2.107691    1.978710   -1.495777
     16          6           0       -1.619363    1.953596   -0.185270
     17          6           0       -2.013124    0.945697    0.699963
     18          6           0       -2.900556   -0.025634    0.239233
     19          6           0       -3.404594   -0.027751   -1.060471
     20          6           0       -2.997180    0.989700   -1.928432
     21          1           0       -1.796505    2.765381   -2.176738
     22          1           0       -0.928463    2.720375    0.153479
     23          1           0       -1.650522    0.902307    1.719794
     24          1           0       -4.092135   -0.805802   -1.369243
     25          1           0       -3.378041    1.006694   -2.945634
     26          7           0       -3.324641   -1.097708    1.167247
     27          8           0       -4.107467   -1.941894    0.736936
     28          8           0       -2.866181   -1.073513    2.307364
 ---------------------------------------------------------------------

 SCF Done:  E(RHF) =  -868.336604504     A.U. after   16 cycles
 E2 =    -0.2601067782D+01 EUMP2 =    -0.87093767228589D+03

 The electronic state is 1-A.
 Alpha  occ. eigenvalues --  -20.60976 -20.60961 -20.60836 -20.60820 -15.86033
 Alpha  occ. eigenvalues --  -15.85891 -11.31518 -11.31388 -11.28168 -11.28100
 Alpha  occ. eigenvalues --  -11.28028 -11.27944 -11.27936 -11.27826 -11.27280
 Alpha  occ. eigenvalues --  -11.27155 -11.27120 -11.26992  -1.60043  -1.59900
 Alpha  occ. eigenvalues --   -1.39593  -1.39451  -1.19737  -1.19592  -1.09111
 Alpha  occ. eigenvalues --   -1.08982  -1.05191  -1.05000  -0.95913  -0.95783
 Alpha  occ. eigenvalues --   -0.86582  -0.86418  -0.82773  -0.82598  -0.77806
 Alpha  occ. eigenvalues --   -0.77596  -0.72252  -0.72111  -0.71365  -0.71219
 Alpha  occ. eigenvalues --   -0.70844  -0.70725  -0.65417  -0.65360  -0.65258
 Alpha  occ. eigenvalues --   -0.64921  -0.62607  -0.62264  -0.55683  -0.55558
 Alpha  occ. eigenvalues --   -0.53593  -0.53411  -0.53208  -0.52995  -0.49021
 Alpha  occ. eigenvalues --   -0.48994  -0.48879  -0.48853  -0.44972  -0.44827
 Alpha  occ. eigenvalues --   -0.37738  -0.37636  -0.37051  -0.36275
 Alpha virt. eigenvalues --    0.04692   0.05004   0.10762   0.10995   0.16011
 Alpha virt. eigenvalues --    0.16534   0.19399   0.21972   0.25279   0.27617
 Alpha virt. eigenvalues --    0.28055   0.28591   0.29751   0.31536   0.32083

 Mulliken charges:
               1
     1  C   -0.171285
     2  C   -0.218397
     3  C   -0.168621
     4  C    0.158245
     5  C   -0.166770
     6  C   -0.222716
     7  H    0.225379
     8  H    0.225581
     9  H    0.278185
    10  H    0.275560
    11  H    0.213731
    12  N    0.488485
    13  O   -0.460465
    14  O   -0.457896
    15  C   -0.174874
    16  C   -0.220956
    17  C   -0.168899
    18  C    0.160070
    19  C   -0.167599
    20  C   -0.216123
    21  H    0.223475
    22  H    0.215289
    23  H    0.275990
    24  H    0.278479
    25  H    0.226012
    26  N    0.488411
    27  O   -0.457694
    28  O   -0.460596
 Sum of Mulliken charges =  -0.00000

 Dipole moment (field-independent basis, Debye):
    X=              1.9031    Y=              7.9028    Z=             -0.5598  Tot=              8.1480
 Quadrupole moment (field-independent basis, Debye-Ang):
   XX=           -107.0723   YY=           -108.0660   ZZ=           -103.6875
   XY=              0.9597   XZ=             22.5557   YZ=             -0.7701

 Normal termination of Gaussian 16 at Thu May  6 19:44:02 2021.
