 Gaussian 16, Revision A.03,
 Gaussian 16:  EM64L-G16RevA.03 25-Dec-2016

 -------------
 #p 6-31g* mp2
 -------------

 ------------------------------------------------------
 Input file generated by CHIRIPA (05-May-2021 14:53:11)
 ------------------------------------------------------
 Symbolic Z-matrix:
 Charge =  0 Multiplicity = 1

                         Standard orientation:
 ---------------------------------------------------------------------
 Center     Atomic      Atomic             Coordinates (Angstroms)
 Number     Number       Type             X           Y           Z
 ---------------------------------------------------------------------
      1          6           0       -2.352212    0.907999   -0.221006
      2          6           0       -2.693846    1.978523   -1.257950
      3          6           0       -1.651832    3.095755   -1.319537
      4          1           0       -2.259526    1.379754    0.766820
      5          1           0       -1.367952    0.480082   -0.456621
      6          1           0       -3.677783    2.403324   -1.021247
      7          1           0       -2.785918    1.504134   -2.243391
      8          1           0       -0.668024    2.691127   -1.578376
      9          1           0       -1.564955    3.595426   -0.349288
     10          1           0       -1.915807    3.850165   -2.067229
     11          6           0       -3.384551   -0.215664   -0.147627
     12          6           0       -3.042917   -1.286188    0.889316
     13          6           0       -4.084931   -2.403420    0.950903
     14          1           0       -4.368811    0.212253    0.087987
     15          1           0       -3.477238   -0.687419   -1.135454
     16          1           0       -2.950845   -0.811799    1.874757
     17          1           0       -2.058981   -1.710989    0.652613
     18          1           0       -4.171808   -2.903091   -0.019346
     19          1           0       -5.068740   -1.998792    1.209743
     20          1           0       -3.820956   -3.157830    1.698595
     21          6           0        2.309456    1.837904    1.528229
     22          6           0        3.410506    1.479660    0.743455
     23          6           0        3.383632    0.313702   -0.027498
     24          6           0        2.234298   -0.474270    0.010175
     25          6           0        1.121306   -0.144177    0.781912
     26          6           0        1.170379    1.026273    1.544924
     27          1           0        2.338954    2.745393    2.124039
     28          1           0        4.296465    2.108070    0.728544
     29          1           0        4.221922    0.012684   -0.644001
     30          1           0        0.252215   -0.790758    0.776272
     31          1           0        0.313810    1.302009    2.153451
     32          7           0        2.194097   -1.710996   -0.801795
     33          8           0        1.169649   -2.388190   -0.751294
     34          8           0        3.187798   -1.979730   -1.473343
 ---------------------------------------------------------------------

 SCF Done:  E(RHF) =  -669.534724542     A.U. after   15 cycles
 E2 =    -0.2093862602D+01 EUMP2 =    -0.67162858714416D+03

 The electronic state is 1-A.
 Alpha  occ. eigenvalues --  -20.60800 -20.60793 -15.85847 -11.31161 -11.27731
 Alpha  occ. eigenvalues --  -11.27676 -11.27463 -11.26740 -11.26706 -11.21889
 Alpha  occ. eigenvalues --  -11.21885 -11.21762 -11.21590 -11.21373 -11.21135
 Alpha  occ. eigenvalues --   -1.59872  -1.39428  -1.19339  -1.08744  -1.08728
 Alpha  occ. eigenvalues --   -1.04731  -1.03772  -0.96218  -0.95583  -0.87232
 Alpha  occ. eigenvalues --   -0.86136  -0.82420  -0.79864  -0.78665  -0.77415
 Alpha  occ. eigenvalues --   -0.72067  -0.71195  -0.70457  -0.65427  -0.64985
 Alpha  occ. eigenvalues --   -0.64666  -0.62091  -0.61154  -0.59590  -0.57840
 Alpha  occ. eigenvalues --   -0.55504  -0.55237  -0.53116  -0.52930  -0.52792
 Alpha  occ. eigenvalues --   -0.52626  -0.50149  -0.48828  -0.48819  -0.48173
 Alpha  occ. eigenvalues --   -0.46888  -0.46097  -0.45977  -0.44835  -0.44041
 Alpha  occ. eigenvalues --   -0.37319  -0.36257
 Alpha virt. eigenvalues --    0.05034   0.11226   0.16518   0.20205   0.23006
 Alpha virt. eigenvalues --    0.23675   0.25125   0.25350   0.27665   0.28379
 Alpha virt. eigenvalues --    0.29943   0.30531   0.31332   0.31494   0.31945

 Mulliken charges:
               1
     1  C   -0.305392
     2  C   -0.299302
     3  C   -0.476155
     4  H    0.140185
     5  H    0.155224
     6  H    0.152198
     7  H    0.156335
     8  H    0.158266
     9  H    0.149780
    10  H    0.161583
    11  C   -0.297075
    12  C   -0.310602
    13  C   -0.474685
    14  H    0.149709
    15  H    0.155876
    16  H    0.145465
    17  H    0.161308
    18  H    0.160297
    19  H    0.154488
    20  H    0.162028
    21  C   -0.170711
    22  C   -0.218910
    23  C   -0.170470
    24  C    0.155311
    25  C   -0.177218
    26  C   -0.219778
    27  H    0.225608
    28  H    0.223333
    29  H    0.275368
    30  H    0.287894
    31  H    0.225359
    32  N    0.487630
    33  O   -0.463044
    34  O   -0.459907
 Sum of Mulliken charges =  -0.00000

 Dipole moment (field-independent basis, Debye):
    X=              0.0713    Y=              4.2751    Z=              2.7491  Tot=              5.0832
 Quadrupole moment (field-independent basis, Debye-Ang):
   XX=            -89.8601   YY=            -99.8130   ZZ=            -94.3263
   XY=             10.3554   XZ=              4.7940   YZ=             -1.1425

 Normal termination of Gaussian 16 at Thu May  6 05:40:22 2021.
