 Gaussian 16, Revision A.03,
 Gaussian 16:  EM64L-G16RevA.03 25-Dec-2016

 -------------
 #p 6-31g* mp2
 -------------

 ------------------------------------------------------
 Input file generated by CHIRIPA (05-May-2021 14:57:26)
 ------------------------------------------------------
 Symbolic Z-matrix:
 Charge =  0 Multiplicity = 1

                         Standard orientation:
 ---------------------------------------------------------------------
 Center     Atomic      Atomic             Coordinates (Angstroms)
 Number     Number       Type             X           Y           Z
 ---------------------------------------------------------------------
      1          6           0        2.874138   -1.887638   -0.286261
      2          6           0        1.948828   -1.429498   -1.229887
      3          6           0        1.526191   -0.096890   -1.220922
      4          6           0        2.051697    0.754057   -0.249828
      5          6           0        2.974900    0.327596    0.703648
      6          6           0        3.383323   -1.009178    0.675798
      7          1           0        3.196932   -2.924458   -0.300561
      8          1           0        1.551706   -2.109476   -1.978198
      9          1           0        0.810988    0.284254   -1.939694
     10          1           0        3.353041    1.029098    1.437351
     11          1           0        4.102051   -1.362201    1.409862
     12          7           0        1.611794    2.167034   -0.230341
     13          8           0        2.089735    2.896738    0.635536
     14          8           0        0.797386    2.518068   -1.081312
     15          6           0       -3.617556    1.491315   -0.039654
     16          6           0       -3.609264    0.479426   -1.005332
     17          6           0       -2.785840   -0.640161   -0.853529
     18          6           0       -1.979827   -0.715742    0.281337
     19          6           0       -1.965746    0.275914    1.260985
     20          6           0       -2.797217    1.386513    1.088434
     21          1           0       -4.260336    2.357546   -0.165637
     22          1           0       -4.245303    0.558150   -1.882431
     23          1           0       -2.759707   -1.438102   -1.585666
     24          1           0       -1.320688    0.169336    2.124674
     25          1           0       -2.801590    2.170831    1.840013
     26          7           0       -1.103846   -1.896242    0.453027
     27          8           0       -0.403052   -1.939102    1.461831
     28          8           0       -1.134632   -2.756305   -0.424460
 ---------------------------------------------------------------------

 SCF Done:  E(RHF) =  -868.339789669     A.U. after   16 cycles
 E2 =    -0.2603116287D+01 EUMP2 =    -0.87094290595599D+03

 The electronic state is 1-A.
 Alpha  occ. eigenvalues --  -20.61038 -20.60970 -20.60487 -20.60476 -15.86006
 Alpha  occ. eigenvalues --  -15.85519 -11.31110 -11.30545 -11.27667 -11.27587
 Alpha  occ. eigenvalues --  -11.27261 -11.27045 -11.27017 -11.26607 -11.26601
 Alpha  occ. eigenvalues --  -11.26517 -11.25973 -11.25864  -1.60061  -1.59569
 Alpha  occ. eigenvalues --   -1.39631  -1.39130  -1.19230  -1.18641  -1.08670
 Alpha  occ. eigenvalues --   -1.08073  -1.04592  -1.04002  -0.95564  -0.94988
 Alpha  occ. eigenvalues --   -0.86007  -0.85397  -0.82417  -0.81847  -0.77506
 Alpha  occ. eigenvalues --   -0.76956  -0.72274  -0.71751  -0.71425  -0.70868
 Alpha  occ. eigenvalues --   -0.70332  -0.69725  -0.64889  -0.64592  -0.64287
 Alpha  occ. eigenvalues --   -0.63971  -0.61960  -0.61363  -0.55084  -0.54452
 Alpha  occ. eigenvalues --   -0.52926  -0.52686  -0.52300  -0.52063  -0.49041
 Alpha  occ. eigenvalues --   -0.48993  -0.48523  -0.48472  -0.45096  -0.44611
 Alpha  occ. eigenvalues --   -0.37287  -0.36400  -0.36144  -0.35556
 Alpha virt. eigenvalues --    0.04864   0.05640   0.11456   0.12108   0.16567
 Alpha virt. eigenvalues --    0.17191   0.21621   0.22281   0.27518   0.28037
 Alpha virt. eigenvalues --    0.28558   0.29052   0.31227   0.31799   0.32673

 Mulliken charges:
               1
     1  C   -0.158782
     2  C   -0.211199
     3  C   -0.187209
     4  C    0.159288
     5  C   -0.171676
     6  C   -0.213386
     7  H    0.228051
     8  H    0.230482
     9  H    0.270857
    10  H    0.271408
    11  H    0.221848
    12  N    0.487426
    13  O   -0.464629
    14  O   -0.464384
    15  C   -0.166085
    16  C   -0.216184
    17  C   -0.175439
    18  C    0.158133
    19  C   -0.173182
    20  C   -0.212191
    21  H    0.227900
    22  H    0.223128
    23  H    0.271068
    24  H    0.275020
    25  H    0.227417
    26  N    0.490979
    27  O   -0.458654
    28  O   -0.470004
 Sum of Mulliken charges =  -0.00000

 Dipole moment (field-independent basis, Debye):
    X=             -1.5905    Y=             -0.9371    Z=             -0.5574  Tot=              1.9284
 Quadrupole moment (field-independent basis, Debye-Ang):
   XX=            -84.4562   YY=           -118.5922   ZZ=            -98.8358
   XY=            -15.4959   XZ=              4.1203   YZ=              5.5760

 Normal termination of Gaussian 16 at Thu May  6 06:48:02 2021.
