 Gaussian 16, Revision A.03,
 Gaussian 16:  EM64L-G16RevA.03 25-Dec-2016

 -------------
 #p 6-31g* mp2
 -------------

 ------------------------------------------------------
 Input file generated by CHIRIPA (05-May-2021 14:51:10)
 ------------------------------------------------------
 Symbolic Z-matrix:
 Charge =  0 Multiplicity = 1

                         Standard orientation:
 ---------------------------------------------------------------------
 Center     Atomic      Atomic             Coordinates (Angstroms)
 Number     Number       Type             X           Y           Z
 ---------------------------------------------------------------------
      1          6           0        4.376074   -0.010480   -0.241124
      2          6           0        5.729182   -0.454554    0.315547
      3          6           0        6.885786    0.414951   -0.178438
      4          1           0        4.412397   -0.035173   -1.338856
      5          1           0        4.196411    1.035865    0.042212
      6          1           0        5.905614   -1.500177    0.032420
      7          1           0        5.689572   -0.428984    1.412084
      8          1           0        6.736629    1.458565    0.116898
      9          1           0        6.953899    0.381286   -1.270604
     10          1           0        7.843580    0.079875    0.231703
     11          6           0        3.209948   -0.870052    0.243658
     12          6           0        1.856841   -0.425978   -0.313013
     13          6           0        0.700236   -1.295483    0.180971
     14          1           0        3.389611   -1.916397   -0.039678
     15          1           0        3.173625   -0.845359    1.341390
     16          1           0        1.896451   -0.451548   -1.409550
     17          1           0        1.680408    0.619645   -0.029886
     18          1           0        0.632124   -1.261818    1.273138
     19          1           0        0.849394   -2.339097   -0.114364
     20          1           0       -0.257557   -0.960406   -0.229169
     21          6           0       -4.541067    0.344691    0.120019
     22          6           0       -5.039274   -1.055940   -0.237762
     23          6           0       -6.537725   -1.231666    0.010346
     24          1           0       -4.765681    0.548213    1.175989
     25          1           0       -5.100322    1.086289   -0.467061
     26          1           0       -4.478286   -1.794756    0.348805
     27          1           0       -4.813277   -1.256225   -1.292952
     28          1           0       -7.113454   -0.516836   -0.586440
     29          1           0       -6.776561   -1.058426    1.064645
     30          1           0       -6.872570   -2.240060   -0.252105
     31          6           0       -3.044956    0.535840   -0.122553
     32          6           0       -2.546748    1.936472    0.235228
     33          6           0       -1.048297    2.112198   -0.012880
     34          1           0       -2.485701   -0.205756    0.464528
     35          1           0       -2.820342    0.332319   -1.178522
     36          1           0       -2.772746    2.136757    1.290418
     37          1           0       -3.107736    2.675288   -0.351339
     38          1           0       -0.809462    1.938957   -1.067179
     39          1           0       -0.472568    1.397367    0.583906
     40          1           0       -0.713452    3.120592    0.249571
 ---------------------------------------------------------------------

 SCF Done:  E(RHF) =  -470.731725698     A.U. after   11 cycles
 E2 =    -0.1584215658D+01 EUMP2 =    -0.47231594135599D+03

 The electronic state is 1-A.
 Alpha  occ. eigenvalues --  -11.21594 -11.21592 -11.21567 -11.21485 -11.21404
 Alpha  occ. eigenvalues --  -11.21350 -11.21344 -11.21289 -11.21065 -11.21044
 Alpha  occ. eigenvalues --  -11.21001 -11.20958  -1.08448  -1.08363  -1.03586
 Alpha  occ. eigenvalues --   -1.03423  -0.96028  -0.95887  -0.87001  -0.86954
 Alpha  occ. eigenvalues --   -0.79621  -0.79525  -0.78273  -0.78175  -0.65122
 Alpha  occ. eigenvalues --   -0.64974  -0.61113  -0.60753  -0.59572  -0.59119
 Alpha  occ. eigenvalues --   -0.57756  -0.57360  -0.55394  -0.55096  -0.52736
 Alpha  occ. eigenvalues --   -0.52602  -0.52427  -0.52319  -0.49918  -0.49879
 Alpha  occ. eigenvalues --   -0.47892  -0.47845  -0.46654  -0.46508  -0.45816
 Alpha  occ. eigenvalues --   -0.45723  -0.45710  -0.45544  -0.43785  -0.43664
 Alpha virt. eigenvalues --    0.21938   0.23055   0.23510   0.25137   0.26391
 Alpha virt. eigenvalues --    0.26486   0.26807   0.27225   0.27977   0.29319
 Alpha virt. eigenvalues --    0.30084   0.31247   0.31328   0.31637   0.32253

 Mulliken charges:
               1
     1  C   -0.298218
     2  C   -0.299557
     3  C   -0.475666
     4  H    0.149517
     5  H    0.149614
     6  H    0.151834
     7  H    0.151790
     8  H    0.155149
     9  H    0.155117
    10  H    0.160106
    11  C   -0.297785
    12  C   -0.303645
    13  C   -0.485547
    14  H    0.149147
    15  H    0.148996
    16  H    0.151262
    17  H    0.157772
    18  H    0.152697
    19  H    0.155491
    20  H    0.170438
    21  C   -0.297645
    22  C   -0.299784
    23  C   -0.475712
    24  H    0.149658
    25  H    0.149511
    26  H    0.152276
    27  H    0.151850
    28  H    0.155139
    29  H    0.155178
    30  H    0.160296
    31  C   -0.303438
    32  C   -0.299160
    33  C   -0.481788
    34  H    0.154206
    35  H    0.149040
    36  H    0.151576
    37  H    0.151631
    38  H    0.155427
    39  H    0.163819
    40  H    0.159407
 Sum of Mulliken charges =  -0.00000

 Dipole moment (field-independent basis, Debye):
    X=             -0.0274    Y=              0.0138    Z=             -0.0021  Tot=              0.0307
 Quadrupole moment (field-independent basis, Debye-Ang):
   XX=            -86.9518   YY=            -84.7739   ZZ=            -83.3051
   XY=             -0.8366   XZ=              0.4342   YZ=              0.4136

 Normal termination of Gaussian 16 at Wed May  5 15:10:11 2021.
