 Gaussian 16, Revision A.03,
 Gaussian 16:  EM64L-G16RevA.03 25-Dec-2016

 -------------
 #p 6-31g* mp2
 -------------

 ------------------------------------------------------
 Input file generated by CHIRIPA (05-May-2021 14:57:22)
 ------------------------------------------------------
 Symbolic Z-matrix:
 Charge =  0 Multiplicity = 1

                         Standard orientation:
 ---------------------------------------------------------------------
 Center     Atomic      Atomic             Coordinates (Angstroms)
 Number     Number       Type             X           Y           Z
 ---------------------------------------------------------------------
      1          6           0       -1.756452   -1.655522    1.948830
      2          6           0       -2.054315   -0.302821    2.143765
      3          6           0       -2.402786    0.510605    1.061428
      4          6           0       -2.443734   -0.064179   -0.207918
      5          6           0       -2.152342   -1.408466   -0.434354
      6          6           0       -1.806328   -2.203061    0.662660
      7          1           0       -1.486706   -2.280096    2.795317
      8          1           0       -2.016389    0.125112    3.141503
      9          1           0       -2.638125    1.560857    1.183912
     10          1           0       -2.198671   -1.806538   -1.440739
     11          1           0       -1.575501   -3.253268    0.508291
     12          7           0       -2.811343    0.786991   -1.361509
     13          8           0       -2.840223    0.256535   -2.469850
     14          8           0       -3.063636    1.968478   -1.135509
     15          6           0        3.082110   -2.038944   -0.901178
     16          6           0        3.926757   -0.932441   -1.038075
     17          6           0        3.549764    0.315395   -0.532771
     18          6           0        2.315574    0.421346    0.106634
     19          6           0        1.452047   -0.662391    0.258706
     20          6           0        1.849623   -1.900631   -0.254364
     21          1           0        3.382963   -3.004565   -1.296726
     22          1           0        4.884499   -1.036909   -1.539933
     23          1           0        4.184264    1.188513   -0.624919
     24          1           0        0.503397   -0.527209    0.763886
     25          1           0        1.191626   -2.758228   -0.146597
     26          7           0        1.905572    1.737294    0.645688
     27          8           0        0.813121    1.804429    1.204866
     28          8           0        2.684428    2.676682    0.498814
 ---------------------------------------------------------------------

 SCF Done:  E(RHF) =  -868.336592645     A.U. after   16 cycles
 E2 =    -0.2605563594D+01 EUMP2 =    -0.87094215623889D+03

 The electronic state is 1-A.
 Alpha  occ. eigenvalues --  -20.60882 -20.60835 -20.60759 -20.60714 -15.85910
 Alpha  occ. eigenvalues --  -15.85802 -11.31373 -11.31156 -11.28101 -11.27885
 Alpha  occ. eigenvalues --  -11.27832 -11.27777 -11.27600 -11.27559 -11.27170
 Alpha  occ. eigenvalues --  -11.26912 -11.26787 -11.26770  -1.59931  -1.59809
 Alpha  occ. eigenvalues --   -1.39491  -1.39354  -1.19673  -1.19353  -1.09002
 Alpha  occ. eigenvalues --   -1.08795  -1.05058  -1.04738  -0.95766  -0.95633
 Alpha  occ. eigenvalues --   -0.86418  -0.86173  -0.82569  -0.82480  -0.77613
 Alpha  occ. eigenvalues --   -0.77499  -0.72166  -0.72014  -0.71256  -0.71130
 Alpha  occ. eigenvalues --   -0.70713  -0.70492  -0.65250  -0.65099  -0.65024
 Alpha  occ. eigenvalues --   -0.64743  -0.62372  -0.62198  -0.55540  -0.55402
 Alpha  occ. eigenvalues --   -0.53613  -0.53102  -0.53074  -0.52353  -0.48907
 Alpha  occ. eigenvalues --   -0.48882  -0.48799  -0.48749  -0.44926  -0.44708
 Alpha  occ. eigenvalues --   -0.37762  -0.37369  -0.36798  -0.36105
 Alpha virt. eigenvalues --    0.04694   0.05273   0.10896   0.11268   0.16137
 Alpha virt. eigenvalues --    0.16672   0.20286   0.22096   0.25788   0.28107
 Alpha virt. eigenvalues --    0.28373   0.28942   0.30237   0.31815   0.32573

 Mulliken charges:
               1
     1  C   -0.184772
     2  C   -0.216828
     3  C   -0.151358
     4  C    0.154496
     5  C   -0.172432
     6  C   -0.230871
     7  H    0.227092
     8  H    0.231096
     9  H    0.285503
    10  H    0.275798
    11  H    0.218994
    12  N    0.488603
    13  O   -0.462724
    14  O   -0.453296
    15  C   -0.169394
    16  C   -0.219689
    17  C   -0.168489
    18  C    0.155024
    19  C   -0.175364
    20  C   -0.224928
    21  H    0.224355
    22  H    0.223581
    23  H    0.275994
    24  H    0.291883
    25  H    0.214259
    26  N    0.489311
    27  O   -0.467813
    28  O   -0.458029
 Sum of Mulliken charges =  -0.00000

 Dipole moment (field-independent basis, Debye):
    X=              2.4759    Y=             -7.1702    Z=              2.2754  Tot=              7.9196
 Quadrupole moment (field-independent basis, Debye-Ang):
   XX=           -101.1051   YY=           -105.7170   ZZ=           -105.3698
   XY=             -1.9604   XZ=            -17.0194   YZ=              1.2554

 Normal termination of Gaussian 16 at Thu May  6 08:09:47 2021.
