 Gaussian 16, Revision A.03,
 Gaussian 16:  EM64L-G16RevA.03 25-Dec-2016

 -------------
 #p 6-31g* mp2
 -------------

 ------------------------------------------------------
 Input file generated by CHIRIPA (05-May-2021 14:55:20)
 ------------------------------------------------------
 Symbolic Z-matrix:
 Charge =  0 Multiplicity = 1

                         Standard orientation:
 ---------------------------------------------------------------------
 Center     Atomic      Atomic             Coordinates (Angstroms)
 Number     Number       Type             X           Y           Z
 ---------------------------------------------------------------------
      1          6           0       -2.414521    1.555868    1.888070
      2          6           0       -3.260678    1.616991    0.775953
      3          6           0       -3.156733    0.670957   -0.248139
      4          6           0       -2.191083   -0.327115   -0.127058
      5          6           0       -1.333477   -0.414659    0.968451
      6          6           0       -1.455312    0.542026    1.980606
      7          1           0       -2.502216    2.294907    2.678972
      8          1           0       -4.006534    2.403240    0.701417
      9          1           0       -3.798955    0.694764   -1.120150
     10          1           0       -0.599685   -1.210169    1.014602
     11          1           0       -0.796829    0.492093    2.843132
     12          7           0       -2.071572   -1.334276   -1.204899
     13          8           0       -1.212632   -2.203670   -1.074460
     14          8           0       -2.839101   -1.235225   -2.159742
     15          6           0        2.565044   -0.349285    0.387727
     16          6           0        3.403911   -1.626549    0.334030
     17          6           0        2.861634   -2.728662    1.244567
     18          1           0        2.528058    0.014227    1.423794
     19          1           0        1.530656   -0.586010    0.102421
     20          1           0        4.436719   -1.387224    0.618015
     21          1           0        3.439062   -1.986957   -0.702062
     22          1           0        1.839148   -2.996050    0.958866
     23          1           0        2.842472   -2.392909    2.286442
     24          1           0        3.476334   -3.632598    1.190678
     25          6           0        3.094554    0.761759   -0.517220
     26          6           0        2.255686    2.039023   -0.463525
     27          6           0        2.797962    3.141136   -1.374061
     28          1           0        4.128940    0.998485   -0.231915
     29          1           0        3.131539    0.398247   -1.553289
     30          1           0        2.220535    2.399431    0.572568
     31          1           0        1.222878    1.799697   -0.747509
     32          1           0        2.817123    2.805383   -2.415937
     33          1           0        3.820448    3.408524   -1.088360
     34          1           0        2.183262    4.045071   -1.320172
 ---------------------------------------------------------------------

 SCF Done:  E(RHF) =  -669.535650399     A.U. after   15 cycles
 E2 =    -0.2092865990D+01 EUMP2 =    -0.67162851638842D+03

 The electronic state is 1-A.
 Alpha  occ. eigenvalues --  -20.60863 -20.60858 -15.85905 -11.31220 -11.27785
 Alpha  occ. eigenvalues --  -11.27757 -11.27516 -11.26789 -11.26772 -11.21681
 Alpha  occ. eigenvalues --  -11.21549 -11.21475 -11.21391 -11.21132 -11.21054
 Alpha  occ. eigenvalues --   -1.59930  -1.39486  -1.19391  -1.08793  -1.08475
 Alpha  occ. eigenvalues --   -1.04782  -1.03552  -0.96014  -0.95636  -0.87032
 Alpha  occ. eigenvalues --   -0.86188  -0.82467  -0.79621  -0.78359  -0.77496
 Alpha  occ. eigenvalues --   -0.72123  -0.71250  -0.70505  -0.65149  -0.65039
 Alpha  occ. eigenvalues --   -0.64738  -0.62148  -0.60921  -0.59384  -0.57635
 Alpha  occ. eigenvalues --   -0.55334  -0.55252  -0.53137  -0.52894  -0.52684
 Alpha  occ. eigenvalues --   -0.52439  -0.49946  -0.48886  -0.48876  -0.47937
 Alpha  occ. eigenvalues --   -0.46633  -0.45852  -0.45762  -0.44867  -0.43817
 Alpha  occ. eigenvalues --   -0.37366  -0.36341
 Alpha virt. eigenvalues --    0.04977   0.11179   0.16495   0.20483   0.22990
 Alpha virt. eigenvalues --    0.23650   0.25836   0.26501   0.27625   0.28112
 Alpha virt. eigenvalues --    0.29171   0.30331   0.31501   0.31809   0.31929

 Mulliken charges:
               1
     1  C   -0.170436
     2  C   -0.218545
     3  C   -0.170853
     4  C    0.156724
     5  C   -0.171365
     6  C   -0.219235
     7  H    0.225742
     8  H    0.223508
     9  H    0.275513
    10  H    0.280192
    11  H    0.224459
    12  N    0.488580
    13  O   -0.462938
    14  O   -0.459473
    15  C   -0.305149
    16  C   -0.298107
    17  C   -0.481694
    18  H    0.141172
    19  H    0.155654
    20  H    0.150757
    21  H    0.158651
    22  H    0.162881
    23  H    0.148892
    24  H    0.163266
    25  C   -0.298180
    26  C   -0.299853
    27  C   -0.475786
    28  H    0.149052
    29  H    0.154466
    30  H    0.147115
    31  H    0.153758
    32  H    0.157716
    33  H    0.154842
    34  H    0.158674
 Sum of Mulliken charges =  -0.00000

 Dipole moment (field-independent basis, Debye):
    X=             -0.4387    Y=              3.4912    Z=              3.6887  Tot=              5.0978
 Quadrupole moment (field-independent basis, Debye-Ang):
   XX=            -90.1779   YY=            -97.2783   ZZ=            -94.8370
   XY=             -9.9849   XZ=             -6.0102   YZ=             -1.9863

 Normal termination of Gaussian 16 at Wed May  5 15:53:49 2021.
