 Gaussian 16, Revision A.03,
 Gaussian 16:  EM64L-G16RevA.03 25-Dec-2016

 -------------
 #p 6-31g* mp2
 -------------

 ------------------------------------------------------
 Input file generated by CHIRIPA (05-May-2021 14:51:08)
 ------------------------------------------------------
 Symbolic Z-matrix:
 Charge =  0 Multiplicity = 1

                         Standard orientation:
 ---------------------------------------------------------------------
 Center     Atomic      Atomic             Coordinates (Angstroms)
 Number     Number       Type             X           Y           Z
 ---------------------------------------------------------------------
      1          6           0        3.435544    0.428863   -0.016258
      2          6           0        3.563659    1.949177   -0.117347
      3          6           0        2.212597    2.661966   -0.051332
      4          1           0        2.788495    0.067079   -0.827050
      5          1           0        2.930160    0.172254    0.925089
      6          1           0        4.069889    2.202779   -1.057577
      7          1           0        4.210633    2.307363    0.693667
      8          1           0        1.704612    2.438069    0.892290
      9          1           0        1.563069    2.332891   -0.868903
     10          1           0        2.327534    3.747858   -0.125418
     11          6           0        4.777744   -0.297822   -0.080731
     12          6           0        4.649629   -1.818135    0.020358
     13          6           0        6.000691   -2.530924   -0.045657
     14          1           0        5.283128   -0.041213   -1.022077
     15          1           0        5.424793    0.063963    0.730062
     16          1           0        4.002655   -2.176321   -0.790655
     17          1           0        4.143399   -2.071738    0.960588
     18          1           0        6.650219   -2.201849    0.771915
     19          1           0        6.508675   -2.307027   -0.989279
     20          1           0        5.885754   -3.616816    0.028430
     21          6           0       -3.547420    0.395003   -0.193619
     22          6           0       -2.265144    0.277113    0.630912
     23          6           0       -1.155647    1.204595    0.134338
     24          1           0       -3.321890    0.169190   -1.244851
     25          1           0       -3.898520    1.435847   -0.165869
     26          1           0       -1.917326   -0.763486    0.602754
     27          1           0       -2.493791    0.503046    1.680337
     28          1           0       -1.478629    2.249738    0.178608
     29          1           0       -0.898889    0.976010   -0.905097
     30          1           0       -0.248213    1.104073    0.737928
     31          6           0       -4.665867   -0.526045    0.290607
     32          6           0       -5.948145   -0.408154   -0.533925
     33          6           0       -7.057641   -1.335636   -0.037349
     34          1           0       -4.314767   -1.566888    0.262858
     35          1           0       -4.891397   -0.300231    1.341840
     36          1           0       -5.719497   -0.634088   -1.583348
     37          1           0       -6.295962    0.632445   -0.505766
     38          1           0       -7.314399   -1.107051    1.002085
     39          1           0       -6.734658   -2.380780   -0.081619
     40          1           0       -7.965074   -1.235115   -0.640939
 ---------------------------------------------------------------------

 SCF Done:  E(RHF) =  -470.732273025     A.U. after   11 cycles
 E2 =    -0.1582941770D+01 EUMP2 =    -0.47231521479481D+03

 The electronic state is 1-A.
 Alpha  occ. eigenvalues --  -11.21596 -11.21575 -11.21546 -11.21516 -11.21391
 Alpha  occ. eigenvalues --  -11.21362 -11.21331 -11.21301 -11.21068 -11.21052
 Alpha  occ. eigenvalues --  -11.20930 -11.20926  -1.08413  -1.08378  -1.03531
 Alpha  occ. eigenvalues --   -1.03443  -0.96025  -0.95849  -0.87098  -0.86815
 Alpha  occ. eigenvalues --   -0.79698  -0.79413  -0.78241  -0.78173  -0.65046
 Alpha  occ. eigenvalues --   -0.65010  -0.60934  -0.60844  -0.59483  -0.59191
 Alpha  occ. eigenvalues --   -0.57650  -0.57442  -0.55297  -0.55151  -0.52945
 Alpha  occ. eigenvalues --   -0.52635  -0.52352  -0.52051  -0.49964  -0.49791
 Alpha  occ. eigenvalues --   -0.47885  -0.47824  -0.46645  -0.46517  -0.45797
 Alpha  occ. eigenvalues --   -0.45725  -0.45680  -0.45646  -0.43758  -0.43635
 Alpha virt. eigenvalues --    0.22063   0.23063   0.23544   0.25007   0.25902
 Alpha virt. eigenvalues --    0.26662   0.26769   0.27555   0.27815   0.29162
 Alpha virt. eigenvalues --    0.29659   0.31426   0.31567   0.31929   0.32355

 Mulliken charges:
               1
     1  C   -0.298541
     2  C   -0.300010
     3  C   -0.477839
     4  H    0.149917
     5  H    0.148765
     6  H    0.151488
     7  H    0.151377
     8  H    0.156263
     9  H    0.160183
    10  H    0.159230
    11  C   -0.298174
    12  C   -0.299601
    13  C   -0.475693
    14  H    0.149577
    15  H    0.149630
    16  H    0.151835
    17  H    0.151849
    18  H    0.155186
    19  H    0.155174
    20  H    0.160188
    21  C   -0.298459
    22  C   -0.300809
    23  C   -0.476030
    24  H    0.149285
    25  H    0.149362
    26  H    0.151523
    27  H    0.151264
    28  H    0.154895
    29  H    0.153136
    30  H    0.165415
    31  C   -0.298139
    32  C   -0.299556
    33  C   -0.475662
    34  H    0.149382
    35  H    0.149512
    36  H    0.151819
    37  H    0.151869
    38  H    0.155127
    39  H    0.155117
    40  H    0.160147
 Sum of Mulliken charges =  -0.00000

 Dipole moment (field-independent basis, Debye):
    X=              0.0186    Y=              0.0207    Z=             -0.0048  Tot=              0.0282
 Quadrupole moment (field-independent basis, Debye-Ang):
   XX=            -86.5581   YY=            -85.0689   ZZ=            -83.3958
   XY=             -0.2477   XZ=              0.1002   YZ=              0.6625

 Normal termination of Gaussian 16 at Thu May  6 10:01:13 2021.
