 Gaussian 16, Revision A.03,
 Gaussian 16:  EM64L-G16RevA.03 25-Dec-2016

 -------------
 #p 6-31g* mp2
 -------------

 ------------------------------------------------------
 Input file generated by CHIRIPA (05-May-2021 14:51:12)
 ------------------------------------------------------
 Symbolic Z-matrix:
 Charge =  0 Multiplicity = 1

                         Standard orientation:
 ---------------------------------------------------------------------
 Center     Atomic      Atomic             Coordinates (Angstroms)
 Number     Number       Type             X           Y           Z
 ---------------------------------------------------------------------
      1          6           0       -2.431652   -0.467898    1.162239
      2          6           0       -0.946176   -0.277780    1.470783
      3          6           0       -0.582378   -0.684070    2.899199
      4          1           0       -3.025855    0.120320    1.874887
      5          1           0       -2.700955   -1.520719    1.324840
      6          1           0       -0.679443    0.774085    1.306316
      7          1           0       -0.355435   -0.866368    0.757196
      8          1           0       -0.820548   -1.738544    3.072289
      9          1           0       -1.146397   -0.088770    3.624529
     10          1           0        0.484155   -0.540051    3.098263
     11          6           0       -2.810840   -0.066047   -0.262001
     12          6           0       -4.296317   -0.256164   -0.570545
     13          6           0       -4.660114    0.150125   -1.998962
     14          1           0       -2.541538    0.986775   -0.424602
     15          1           0       -2.216638   -0.654265   -0.974650
     16          1           0       -4.887058    0.332424    0.143041
     17          1           0       -4.563049   -1.308029   -0.406078
     18          1           0       -4.096096   -0.445174   -2.724291
     19          1           0       -4.421945    1.204600   -2.172051
     20          1           0       -5.726647    0.006106   -2.198025
     21          6           0        2.721031    0.926937   -0.078740
     22          6           0        1.839608    2.059229   -0.606938
     23          6           0        2.050636    3.373075    0.146100
     24          1           0        2.512792    0.776527    0.989416
     25          1           0        3.775356    1.227562   -0.152346
     26          1           0        0.787324    1.756008   -0.533643
     27          1           0        2.049832    2.206832   -1.674007
     28          1           0        3.091506    3.702049    0.062632
     29          1           0        1.821825    3.248664    1.209475
     30          1           0        1.410710    4.168820   -0.247784
     31          6           0        2.521462   -0.392992   -0.821498
     32          6           0        3.402884   -1.525284   -0.293299
     33          6           0        3.191857   -2.839131   -1.046337
     34          1           0        1.467137   -0.693618   -0.747892
     35          1           0        2.729701   -0.242582   -1.889654
     36          1           0        3.192660   -1.672888    0.773770
     37          1           0        4.455169   -1.222063   -0.366595
     38          1           0        3.420668   -2.714719   -2.109713
     39          1           0        2.150987   -3.168105   -0.962870
     40          1           0        3.831783   -3.634876   -0.652454
 ---------------------------------------------------------------------

 SCF Done:  E(RHF) =  -470.732884435     A.U. after   11 cycles
 E2 =    -0.1584378417D+01 EUMP2 =    -0.47231726285200D+03

 The electronic state is 1-A.
 Alpha  occ. eigenvalues --  -11.21687 -11.21649 -11.21584 -11.21523 -11.21478
 Alpha  occ. eigenvalues --  -11.21419 -11.21351 -11.21289 -11.21173 -11.21099
 Alpha  occ. eigenvalues --  -11.21077 -11.21052  -1.08524  -1.08375  -1.03606
 Alpha  occ. eigenvalues --   -1.03500  -0.96051  -0.95952  -0.87065  -0.86972
 Alpha  occ. eigenvalues --   -0.79690  -0.79562  -0.78400  -0.78130  -0.65163
 Alpha  occ. eigenvalues --   -0.65031  -0.61134  -0.60786  -0.59410  -0.59319
 Alpha  occ. eigenvalues --   -0.57660  -0.57565  -0.55352  -0.55225  -0.52745
 Alpha  occ. eigenvalues --   -0.52653  -0.52474  -0.52384  -0.50048  -0.49859
 Alpha  occ. eigenvalues --   -0.48056  -0.47902  -0.46872  -0.46484  -0.46183
 Alpha  occ. eigenvalues --   -0.45738  -0.45682  -0.45230  -0.43851  -0.43748
 Alpha virt. eigenvalues --    0.19775   0.23011   0.23132   0.24487   0.25060
 Alpha virt. eigenvalues --    0.26120   0.26515   0.27863   0.28905   0.29726
 Alpha virt. eigenvalues --    0.30560   0.31413   0.31598   0.31879   0.32083

 Mulliken charges:
               1
     1  C   -0.297749
     2  C   -0.308975
     3  C   -0.476434
     4  H    0.149934
     5  H    0.149684
     6  H    0.156059
     7  H    0.157388
     8  H    0.155591
     9  H    0.155740
    10  H    0.160333
    11  C   -0.299355
    12  C   -0.299645
    13  C   -0.475795
    14  H    0.149870
    15  H    0.149573
    16  H    0.152142
    17  H    0.152124
    18  H    0.155409
    19  H    0.155357
    20  H    0.160409
    21  C   -0.298713
    22  C   -0.304075
    23  C   -0.476228
    24  H    0.150600
    25  H    0.149345
    26  H    0.156811
    27  H    0.151675
    28  H    0.155282
    29  H    0.154816
    30  H    0.159809
    31  C   -0.303635
    32  C   -0.299979
    33  C   -0.475404
    34  H    0.154964
    35  H    0.149511
    36  H    0.151838
    37  H    0.151999
    38  H    0.155287
    39  H    0.154132
    40  H    0.160304
 Sum of Mulliken charges =  -0.00000

 Dipole moment (field-independent basis, Debye):
    X=             -0.0473    Y=             -0.0092    Z=              0.0080  Tot=              0.0489
 Quadrupole moment (field-independent basis, Debye-Ang):
   XX=            -84.3946   YY=            -84.9780   ZZ=            -85.4402
   XY=              0.0574   XZ=             -0.9860   YZ=             -0.0728

 Normal termination of Gaussian 16 at Thu May  6 03:56:07 2021.
