 Gaussian 16, Revision A.03,
 Gaussian 16:  EM64L-G16RevA.03 25-Dec-2016

 -------------
 #p 6-31g* mp2
 -------------

 ------------------------------------------------------
 Input file generated by CHIRIPA (05-May-2021 14:53:15)
 ------------------------------------------------------
 Symbolic Z-matrix:
 Charge =  0 Multiplicity = 1

                         Standard orientation:
 ---------------------------------------------------------------------
 Center     Atomic      Atomic             Coordinates (Angstroms)
 Number     Number       Type             X           Y           Z
 ---------------------------------------------------------------------
      1          6           0       -3.864897    0.462134    0.695584
      2          6           0       -2.392876    0.330657    0.303344
      3          6           0       -1.473347    1.204667    1.156788
      4          1           0       -4.169182    1.513934    0.605735
      5          1           0       -3.980441    0.192690    1.754566
      6          1           0       -2.280360    0.598938   -0.754948
      7          1           0       -2.092111   -0.720983    0.393952
      8          1           0       -1.556101    0.933165    2.214162
      9          1           0       -1.745419    2.260585    1.058734
     10          1           0       -0.425757    1.095223    0.859405
     11          6           0       -4.796630   -0.405574   -0.148622
     12          6           0       -6.268651   -0.274097    0.243618
     13          6           0       -7.188180   -1.148106   -0.609827
     14          1           0       -4.681086   -0.136129   -1.207605
     15          1           0       -4.492345   -1.457374   -0.058774
     16          1           0       -6.569416    0.777543    0.153009
     17          1           0       -6.381168   -0.542378    1.301910
     18          1           0       -6.916108   -2.204025   -0.511773
     19          1           0       -7.105426   -0.876604   -1.667201
     20          1           0       -8.235771   -1.038663   -0.312443
     21          6           0        1.628118    1.633802   -0.950466
     22          6           0        1.404591    0.261658   -1.104665
     23          6           0        2.370130   -0.664894   -0.699964
     24          6           0        3.553104   -0.182180   -0.142425
     25          6           0        3.805239    1.178663    0.024381
     26          6           0        2.825618    2.087126   -0.387428
     27          1           0        0.872595    2.346544   -1.267608
     28          1           0        0.475532   -0.093272   -1.541611
     29          1           0        2.223049   -1.732683   -0.807716
     30          1           0        4.741238    1.502209    0.463293
     31          1           0        3.001935    3.152172   -0.266455
     32          7           0        4.582732   -1.153503    0.289776
     33          8           0        5.616602   -0.702679    0.778146
     34          8           0        4.336387   -2.347259    0.131981
 ---------------------------------------------------------------------

 SCF Done:  E(RHF) =  -669.534424522     A.U. after   15 cycles
 E2 =    -0.2092840447D+01 EUMP2 =    -0.67162726496895D+03

 The electronic state is 1-A.
 Alpha  occ. eigenvalues --  -20.60788 -20.60782 -15.85842 -11.31224 -11.27801
 Alpha  occ. eigenvalues --  -11.27788 -11.27524 -11.26809 -11.26778 -11.22402
 Alpha  occ. eigenvalues --  -11.22020 -11.21983 -11.21878 -11.21575 -11.21425
 Alpha  occ. eigenvalues --   -1.59863  -1.39416  -1.19412  -1.09006  -1.08802
 Alpha  occ. eigenvalues --   -1.04815  -1.04081  -0.96512  -0.95626  -0.87525
 Alpha  occ. eigenvalues --   -0.86205  -0.82456  -0.80170  -0.78810  -0.77497
 Alpha  occ. eigenvalues --   -0.72061  -0.71186  -0.70515  -0.65632  -0.65062
 Alpha  occ. eigenvalues --   -0.64816  -0.62164  -0.61480  -0.59919  -0.58153
 Alpha  occ. eigenvalues --   -0.55791  -0.55295  -0.53662  -0.53045  -0.52892
 Alpha  occ. eigenvalues --   -0.52531  -0.50444  -0.48821  -0.48813  -0.48468
 Alpha  occ. eigenvalues --   -0.47216  -0.46344  -0.46266  -0.44818  -0.44341
 Alpha  occ. eigenvalues --   -0.37297  -0.36393
 Alpha virt. eigenvalues --    0.05016   0.11159   0.16466   0.20262   0.22567
 Alpha virt. eigenvalues --    0.24075   0.25744   0.26153   0.27242   0.27933
 Alpha virt. eigenvalues --    0.28945   0.30284   0.30946   0.31691   0.32118

 Mulliken charges:
               1
     1  C   -0.297859
     2  C   -0.300580
     3  C   -0.487656
     4  H    0.150004
     5  H    0.152750
     6  H    0.142043
     7  H    0.152828
     8  H    0.159479
     9  H    0.151110
    10  H    0.170726
    11  C   -0.298706
    12  C   -0.300057
    13  C   -0.476012
    14  H    0.147995
    15  H    0.150541
    16  H    0.152141
    17  H    0.153316
    18  H    0.156010
    19  H    0.154961
    20  H    0.161643
    21  C   -0.171932
    22  C   -0.221357
    23  C   -0.171208
    24  C    0.158601
    25  C   -0.170864
    26  C   -0.218236
    27  H    0.228185
    28  H    0.228819
    29  H    0.275977
    30  H    0.275906
    31  H    0.223951
    32  N    0.488085
    33  O   -0.460311
    34  O   -0.460292
 Sum of Mulliken charges =  -0.00000

 Dipole moment (field-independent basis, Debye):
    X=             -3.6482    Y=              3.4062    Z=             -1.4846  Tot=              5.2072
 Quadrupole moment (field-independent basis, Debye-Ang):
   XX=           -119.4686   YY=            -93.1812   ZZ=            -94.4380
   XY=             15.1305   XZ=             -4.4267   YZ=              0.1970

 Normal termination of Gaussian 16 at Thu May  6 13:50:28 2021.
