 Gaussian 16, Revision A.03,
 Gaussian 16:  EM64L-G16RevA.03 25-Dec-2016

 -------------
 #p 6-31g* mp2
 -------------

 ------------------------------------------------------
 Input file generated by CHIRIPA (05-May-2021 14:53:12)
 ------------------------------------------------------
 Symbolic Z-matrix:
 Charge =  0 Multiplicity = 1

                         Standard orientation:
 ---------------------------------------------------------------------
 Center     Atomic      Atomic             Coordinates (Angstroms)
 Number     Number       Type             X           Y           Z
 ---------------------------------------------------------------------
      1          6           0       -3.791509    0.789369   -0.274946
      2          6           0       -2.354832    1.192330    0.059070
      3          6           0       -1.977407    2.560755   -0.509048
      4          1           0       -3.919537    0.782972   -1.366052
      5          1           0       -4.479168    1.552054    0.115989
      6          1           0       -1.670173    0.428414   -0.331171
      7          1           0       -2.230156    1.197582    1.149504
      8          1           0       -2.636839    3.338524   -0.110518
      9          1           0       -2.073674    2.564985   -1.599605
     10          1           0       -0.946336    2.828988   -0.258441
     11          6           0       -4.183679   -0.576311    0.286169
     12          6           0       -5.620355   -0.979272   -0.047847
     13          6           0       -5.997780   -2.347697    0.520271
     14          1           0       -3.496019   -1.338996   -0.104766
     15          1           0       -4.055651   -0.569914    1.377276
     16          1           0       -5.745031   -0.984524   -1.138280
     17          1           0       -6.305015   -0.215355    0.342394
     18          1           0       -5.901513   -2.351926    1.610828
     19          1           0       -5.338348   -3.125466    0.121741
     20          1           0       -7.028851   -2.615930    0.269664
     21          6           0        1.898064    2.115989    0.214007
     22          6           0        1.696554    1.313356   -0.913686
     23          6           0        2.365667    0.092897   -1.045269
     24          6           0        3.232986   -0.295838   -0.025497
     25          6           0        3.454795    0.481682    1.110088
     26          6           0        2.774996    1.698326    1.220521
     27          1           0        1.374131    3.062590    0.308010
     28          1           0        1.016108    1.635184   -1.696927
     29          1           0        2.228229   -0.548032   -1.907672
     30          1           0        4.139324    0.134170    1.874335
     31          1           0        2.933437    2.319612    2.097417
     32          7           0        3.947003   -1.585865   -0.153602
     33          8           0        4.705855   -1.905801    0.758769
     34          8           0        3.734278   -2.252624   -1.163957
 ---------------------------------------------------------------------

 SCF Done:  E(RHF) =  -669.535013662     A.U. after   15 cycles
 E2 =    -0.2092143948D+01 EUMP2 =    -0.67162715761032D+03

 The electronic state is 1-A.
 Alpha  occ. eigenvalues --  -20.60771 -20.60766 -15.85824 -11.31196 -11.27763
 Alpha  occ. eigenvalues --  -11.27759 -11.27498 -11.26780 -11.26760 -11.22285
 Alpha  occ. eigenvalues --  -11.22090 -11.21912 -11.21890 -11.21737 -11.21272
 Alpha  occ. eigenvalues --   -1.59846  -1.39400  -1.19369  -1.08924  -1.08761
 Alpha  occ. eigenvalues --   -1.04773  -1.04061  -0.96543  -0.95598  -0.87563
 Alpha  occ. eigenvalues --   -0.86164  -0.82431  -0.80124  -0.78684  -0.77473
 Alpha  occ. eigenvalues --   -0.72044  -0.71169  -0.70516  -0.65556  -0.65030
 Alpha  occ. eigenvalues --   -0.64791  -0.62146  -0.61440  -0.59942  -0.58129
 Alpha  occ. eigenvalues --   -0.55821  -0.55301  -0.53320  -0.53085  -0.52890
 Alpha  occ. eigenvalues --   -0.52807  -0.50460  -0.48801  -0.48797  -0.48435
 Alpha  occ. eigenvalues --   -0.47141  -0.46238  -0.46137  -0.44804  -0.44312
 Alpha  occ. eigenvalues --   -0.37325  -0.36362
 Alpha virt. eigenvalues --    0.05033   0.11199   0.16454   0.20148   0.22670
 Alpha virt. eigenvalues --    0.24075   0.26030   0.26360   0.26926   0.27152
 Alpha virt. eigenvalues --    0.28725   0.30240   0.30983   0.31585   0.32221

 Mulliken charges:
               1
     1  C   -0.299018
     2  C   -0.299399
     3  C   -0.480106
     4  H    0.149708
     5  H    0.150208
     6  H    0.153902
     7  H    0.153910
     8  H    0.159220
     9  H    0.154632
    10  H    0.149995
    11  C   -0.298852
    12  C   -0.300036
    13  C   -0.476094
    14  H    0.151340
    15  H    0.150583
    16  H    0.152220
    17  H    0.151938
    18  H    0.155691
    19  H    0.156604
    20  H    0.161129
    21  C   -0.172465
    22  C   -0.217016
    23  C   -0.172389
    24  C    0.158675
    25  C   -0.170883
    26  C   -0.218952
    27  H    0.226864
    28  H    0.226630
    29  H    0.275490
    30  H    0.275642
    31  H    0.223569
    32  N    0.488103
    33  O   -0.460352
    34  O   -0.460491
 Sum of Mulliken charges =  -0.00000

 Dipole moment (field-independent basis, Debye):
    X=             -2.6219    Y=              4.4765    Z=              0.4883  Tot=              5.2107
 Quadrupole moment (field-independent basis, Debye-Ang):
   XX=           -110.3267   YY=            -98.9002   ZZ=            -90.4371
   XY=             15.5365   XZ=              3.6326   YZ=              1.3799

 Normal termination of Gaussian 16 at Thu May  6 00:56:46 2021.
