 Gaussian 16, Revision A.03,
 Gaussian 16:  EM64L-G16RevA.03 25-Dec-2016

 -------------
 #p 6-31g* mp2
 -------------

 ------------------------------------------------------
 Input file generated by CHIRIPA (05-May-2021 14:53:12)
 ------------------------------------------------------
 Symbolic Z-matrix:
 Charge =  0 Multiplicity = 1

                         Standard orientation:
 ---------------------------------------------------------------------
 Center     Atomic      Atomic             Coordinates (Angstroms)
 Number     Number       Type             X           Y           Z
 ---------------------------------------------------------------------
      1          6           0       -3.130946   -0.139163   -0.011328
      2          6           0       -4.482741   -0.761864    0.339211
      3          6           0       -4.411355   -2.281327    0.493910
      4          1           0       -2.758690   -0.586918   -0.942932
      5          1           0       -2.403209   -0.395204    0.771128
      6          1           0       -5.208062   -0.503569   -0.442972
      7          1           0       -4.851913   -0.312437    1.269987
      8          1           0       -3.708856   -2.555155    1.287708
      9          1           0       -4.067029   -2.747372   -0.434983
     10          1           0       -5.388590   -2.705713    0.744445
     11          6           0       -3.186134    1.379301   -0.169284
     12          6           0       -1.834339    2.002002   -0.519822
     13          6           0       -1.905725    3.521464   -0.674522
     14          1           0       -3.913871    1.635341   -0.951740
     15          1           0       -3.558390    1.827056    0.762320
     16          1           0       -1.465167    1.552574   -1.450598
     17          1           0       -1.109018    1.743706    0.262360
     18          1           0       -2.250051    3.987510    0.254371
     19          1           0       -2.608224    3.795292   -1.468320
     20          1           0       -0.928490    3.945850   -0.925056
     21          6           0        4.231823    1.265863    0.506387
     22          6           0        4.505131    0.194722   -0.350631
     23          6           0        3.535165   -0.780890   -0.599416
     24          6           0        2.297052   -0.653641    0.028416
     25          6           0        1.994510    0.401798    0.887374
     26          6           0        2.979592    1.365806    1.121570
     27          1           0        4.991187    2.019235    0.693983
     28          1           0        5.476750    0.114545   -0.829770
     29          1           0        3.720069   -1.620514   -1.258401
     30          1           0        1.016678    0.454751    1.350472
     31          1           0        2.764541    2.196580    1.787613
     32          7           0        1.262191   -1.680335   -0.227239
     33          8           0        0.179241   -1.545457    0.338151
     34          8           0        1.553611   -2.600497   -0.988169
 ---------------------------------------------------------------------

 SCF Done:  E(RHF) =  -669.535616299     A.U. after   15 cycles
 E2 =    -0.2092260042D+01 EUMP2 =    -0.67162787634021D+03

 The electronic state is 1-A.
 Alpha  occ. eigenvalues --  -20.60868 -20.60853 -15.85899 -11.31245 -11.27814
 Alpha  occ. eigenvalues --  -11.27810 -11.27552 -11.26827 -11.26817 -11.21315
 Alpha  occ. eigenvalues --  -11.20951 -11.20786 -11.20688 -11.20221 -11.20027
 Alpha  occ. eigenvalues --   -1.59926  -1.39482  -1.19417  -1.08816  -1.07711
 Alpha  occ. eigenvalues --   -1.04818  -1.02892  -0.95657  -0.95314  -0.86338
 Alpha  occ. eigenvalues --   -0.86213  -0.82494  -0.79005  -0.77651  -0.77297
 Alpha  occ. eigenvalues --   -0.72122  -0.71239  -0.70530  -0.65075  -0.64832
 Alpha  occ. eigenvalues --   -0.64354  -0.62173  -0.60303  -0.58739  -0.56906
 Alpha  occ. eigenvalues --   -0.55322  -0.54603  -0.53145  -0.52918  -0.52082
 Alpha  occ. eigenvalues --   -0.51708  -0.49261  -0.48887  -0.48876  -0.47293
 Alpha  occ. eigenvalues --   -0.46065  -0.45224  -0.44858  -0.44576  -0.43096
 Alpha  occ. eigenvalues --   -0.37394  -0.36412
 Alpha virt. eigenvalues --    0.04967   0.11190   0.16469   0.20662   0.23269
 Alpha virt. eigenvalues --    0.24839   0.25518   0.27591   0.27711   0.28595
 Alpha virt. eigenvalues --    0.29401   0.31226   0.31640   0.32147   0.32342

 Mulliken charges:
               1
     1  C   -0.300007
     2  C   -0.300112
     3  C   -0.474245
     4  H    0.155132
     5  H    0.164644
     6  H    0.147474
     7  H    0.146672
     8  H    0.159897
     9  H    0.158769
    10  H    0.154472
    11  C   -0.298833
    12  C   -0.297362
    13  C   -0.475423
    14  H    0.147379
    15  H    0.145241
    16  H    0.154322
    17  H    0.144316
    18  H    0.152920
    19  H    0.156436
    20  H    0.155644
    21  C   -0.170656
    22  C   -0.218476
    23  C   -0.170879
    24  C    0.157580
    25  C   -0.170508
    26  C   -0.219199
    27  H    0.225845
    28  H    0.223641
    29  H    0.275676
    30  H    0.277243
    31  H    0.223777
    32  N    0.492547
    33  O   -0.463939
    34  O   -0.459988
 Sum of Mulliken charges =  -0.00000

 Dipole moment (field-independent basis, Debye):
    X=              3.8082    Y=              3.4235    Z=              0.8719  Tot=              5.1945
 Quadrupole moment (field-independent basis, Debye-Ang):
   XX=            -77.1746   YY=           -100.4974   ZZ=            -92.4341
   XY=              4.5441   XZ=              0.3267   YZ=              1.5710

 Normal termination of Gaussian 16 at Thu May  6 04:09:02 2021.
