 Gaussian 16, Revision A.03,
 Gaussian 16:  EM64L-G16RevA.03 25-Dec-2016

 -------------
 #p 6-31g* mp2
 -------------

 ------------------------------------------------------
 Input file generated by CHIRIPA (05-May-2021 14:53:17)
 ------------------------------------------------------
 Symbolic Z-matrix:
 Charge =  0 Multiplicity = 1

                         Standard orientation:
 ---------------------------------------------------------------------
 Center     Atomic      Atomic             Coordinates (Angstroms)
 Number     Number       Type             X           Y           Z
 ---------------------------------------------------------------------
      1          6           0        3.606900   -0.294993   -0.251416
      2          6           0        3.126370   -1.736150   -0.425034
      3          6           0        4.242115   -2.681648   -0.871063
      4          1           0        4.032615    0.059648   -1.200068
      5          1           0        4.422626   -0.273978    0.484481
      6          1           0        2.310862   -1.754253   -1.159359
      7          1           0        2.701575   -2.087337    0.524089
      8          1           0        5.053840   -2.693254   -0.136509
      9          1           0        4.660906   -2.358277   -1.829523
     10          1           0        3.876626   -3.706521   -0.989015
     11          6           0        2.502857    0.662206    0.194213
     12          6           0        2.983387    2.103362    0.367830
     13          6           0        1.867642    3.048860    0.813859
     14          1           0        1.687131    0.641190   -0.541685
     15          1           0        2.077142    0.307564    1.142865
     16          1           0        3.408182    2.454549   -0.581292
     17          1           0        3.798895    2.121465    1.102156
     18          1           0        1.448851    2.725490    1.772319
     19          1           0        1.055917    3.060466    0.079306
     20          1           0        2.233131    4.073733    0.931812
     21          6           0       -2.468107   -2.467165    1.001935
     22          6           0       -3.127448   -2.190815   -0.200321
     23          6           0       -3.089057   -0.906925   -0.752318
     24          6           0       -2.378746    0.081207   -0.072358
     25          6           0       -1.711647   -0.162943    1.127083
     26          6           0       -1.763552   -1.454132    1.660639
     27          1           0       -2.503179   -3.467357    1.423577
     28          1           0       -3.675386   -2.975591   -0.714069
     29          1           0       -3.590512   -0.665467   -1.681650
     30          1           0       -1.173568    0.639999    1.616137
     31          1           0       -1.250558   -1.665866    2.594476
     32          7           0       -2.330950    1.444268   -0.646971
     33          8           0       -1.698298    2.297388   -0.028445
     34          8           0       -2.927043    1.633705   -1.705000
 ---------------------------------------------------------------------

 SCF Done:  E(RHF) =  -669.536140580     A.U. after   15 cycles
 E2 =    -0.2091902204D+01 EUMP2 =    -0.67162804278380D+03

 The electronic state is 1-A.
 Alpha  occ. eigenvalues --  -20.60880 -20.60875 -15.85911 -11.31222 -11.27794
 Alpha  occ. eigenvalues --  -11.27778 -11.27530 -11.26797 -11.26784 -11.21665
 Alpha  occ. eigenvalues --  -11.21314 -11.21222 -11.21157 -11.21144 -11.20215
 Alpha  occ. eigenvalues --   -1.59945  -1.39499  -1.19393  -1.08801  -1.08270
 Alpha  occ. eigenvalues --   -1.04787  -1.03283  -0.95719  -0.95634  -0.86721
 Alpha  occ. eigenvalues --   -0.86188  -0.82477  -0.79367  -0.78088  -0.77513
 Alpha  occ. eigenvalues --   -0.72136  -0.71261  -0.70502  -0.65055  -0.64901
 Alpha  occ. eigenvalues --   -0.64792  -0.62135  -0.60677  -0.59133  -0.57319
 Alpha  occ. eigenvalues --   -0.55297  -0.54984  -0.53122  -0.52881  -0.52394
 Alpha  occ. eigenvalues --   -0.52116  -0.49651  -0.48899  -0.48886  -0.47659
 Alpha  occ. eigenvalues --   -0.46422  -0.45643  -0.45564  -0.44784  -0.43562
 Alpha  occ. eigenvalues --   -0.37371  -0.36378
 Alpha virt. eigenvalues --    0.04963   0.11243   0.16421   0.20899   0.22981
 Alpha virt. eigenvalues --    0.24073   0.26134   0.27153   0.27628   0.27951
 Alpha virt. eigenvalues --    0.29174   0.30887   0.31526   0.31907   0.32411

 Mulliken charges:
               1
     1  C   -0.298131
     2  C   -0.298588
     3  C   -0.475458
     4  H    0.151327
     5  H    0.148688
     6  H    0.152517
     7  H    0.147114
     8  H    0.154966
     9  H    0.156528
    10  H    0.158199
    11  C   -0.296500
    12  C   -0.300158
    13  C   -0.481765
    14  H    0.152044
    15  H    0.140482
    16  H    0.152394
    17  H    0.148138
    18  H    0.146298
    19  H    0.180510
    20  H    0.158016
    21  C   -0.170295
    22  C   -0.218703
    23  C   -0.170877
    24  C    0.157015
    25  C   -0.169601
    26  C   -0.218692
    27  H    0.225760
    28  H    0.223496
    29  H    0.275489
    30  H    0.277678
    31  H    0.223475
    32  N    0.489110
    33  O   -0.460784
    34  O   -0.459693
 Sum of Mulliken charges =  -0.00000

 Dipole moment (field-independent basis, Debye):
    X=             -0.3046    Y=             -4.7147    Z=              1.9180  Tot=              5.0990
 Quadrupole moment (field-independent basis, Debye-Ang):
   XX=            -93.7811   YY=            -96.1034   ZZ=            -91.6764
   XY=             13.1058   XZ=             -2.1590   YZ=              1.1378

 Normal termination of Gaussian 16 at Thu May  6 13:58:14 2021.
