 Gaussian 16, Revision A.03,
 Gaussian 16:  EM64L-G16RevA.03 25-Dec-2016

 -------------
 #p 6-31g* mp2
 -------------

 ------------------------------------------------------
 Input file generated by CHIRIPA (05-May-2021 14:53:17)
 ------------------------------------------------------
 Symbolic Z-matrix:
 Charge =  0 Multiplicity = 1

                         Standard orientation:
 ---------------------------------------------------------------------
 Center     Atomic      Atomic             Coordinates (Angstroms)
 Number     Number       Type             X           Y           Z
 ---------------------------------------------------------------------
      1          6           0       -3.459317    0.172137   -0.164918
      2          6           0       -3.509649   -0.896026    0.928005
      3          6           0       -4.820435   -1.683189    0.925358
      4          1           0       -4.303596    0.862613   -0.033081
      5          1           0       -3.597914   -0.307787   -1.143620
      6          1           0       -3.369616   -0.414404    1.904246
      7          1           0       -2.665043   -1.583928    0.793665
      8          1           0       -4.963666   -2.189735   -0.034589
      9          1           0       -5.672242   -1.013566    1.082303
     10          1           0       -4.835012   -2.441375    1.714535
     11          6           0       -2.155086    0.967502   -0.175067
     12          6           0       -2.104754    2.035665   -1.267989
     13          6           0       -0.793968    2.822828   -1.265342
     14          1           0       -2.016489    1.447427    0.803636
     15          1           0       -1.310807    0.277026   -0.306903
     16          1           0       -2.949360    2.723567   -1.133649
     17          1           0       -2.244787    1.554044   -2.244231
     18          1           0        0.057839    2.153206   -1.422287
     19          1           0       -0.650737    3.329374   -0.305395
     20          1           0       -0.779391    3.581014   -2.054519
     21          6           0        2.663921    0.802746    2.274530
     22          6           0        1.464484    0.099137    2.123521
     23          6           0        1.193032   -0.595858    0.941216
     24          6           0        2.147611   -0.565816   -0.074248
     25          6           0        3.351856    0.126002    0.046055
     26          6           0        3.602126    0.813913    1.237143
     27          1           0        2.866564    1.339883    3.196384
     28          1           0        0.734028    0.088714    2.927492
     29          1           0        0.272598   -1.148691    0.797705
     30          1           0        4.060691    0.117958   -0.773034
     31          1           0        4.534477    1.359494    1.351631
     32          7           0        1.871450   -1.297825   -1.330550
     33          8           0        2.728746   -1.255795   -2.210273
     34          8           0        0.802928   -1.899744   -1.411729
 ---------------------------------------------------------------------

 SCF Done:  E(RHF) =  -669.535458697     A.U. after   15 cycles
 E2 =    -0.2093349457D+01 EUMP2 =    -0.67162880815364D+03

 The electronic state is 1-A.
 Alpha  occ. eigenvalues --  -20.60876 -20.60871 -15.85913 -11.31217 -11.27786
 Alpha  occ. eigenvalues --  -11.27762 -11.27514 -11.26776 -11.26758 -11.21756
 Alpha  occ. eigenvalues --  -11.21491 -11.21369 -11.21309 -11.21101 -11.20995
 Alpha  occ. eigenvalues --   -1.59942  -1.39498  -1.19388  -1.08793  -1.08422
 Alpha  occ. eigenvalues --   -1.04777  -1.03518  -0.95960  -0.95637  -0.86980
 Alpha  occ. eigenvalues --   -0.86186  -0.82467  -0.79602  -0.78313  -0.77494
 Alpha  occ. eigenvalues --   -0.72132  -0.71262  -0.70506  -0.65117  -0.65030
 Alpha  occ. eigenvalues --   -0.64716  -0.62132  -0.60905  -0.59338  -0.57583
 Alpha  occ. eigenvalues --   -0.55322  -0.55201  -0.53128  -0.52892  -0.52656
 Alpha  occ. eigenvalues --   -0.52380  -0.49896  -0.48896  -0.48884  -0.47918
 Alpha  occ. eigenvalues --   -0.46628  -0.45805  -0.45708  -0.44846  -0.43770
 Alpha  occ. eigenvalues --   -0.37355  -0.36327
 Alpha virt. eigenvalues --    0.04978   0.11194   0.16480   0.20413   0.22999
 Alpha virt. eigenvalues --    0.24004   0.25084   0.26441   0.27803   0.27985
 Alpha virt. eigenvalues --    0.29736   0.30703   0.31328   0.31741   0.31952

 Mulliken charges:
               1
     1  C   -0.297224
     2  C   -0.302997
     3  C   -0.475490
     4  H    0.148829
     5  H    0.156257
     6  H    0.145945
     7  H    0.152785
     8  H    0.159436
     9  H    0.155160
    10  H    0.159341
    11  C   -0.305354
    12  C   -0.299628
    13  C   -0.475265
    14  H    0.142110
    15  H    0.156994
    16  H    0.150504
    17  H    0.157864
    18  H    0.155686
    19  H    0.151332
    20  H    0.160875
    21  C   -0.170330
    22  C   -0.219764
    23  C   -0.170758
    24  C    0.157987
    25  C   -0.170828
    26  C   -0.218386
    27  H    0.225706
    28  H    0.224289
    29  H    0.279413
    30  H    0.275631
    31  H    0.223538
    32  N    0.488088
    33  O   -0.459263
    34  O   -0.462482
 Sum of Mulliken charges =  -0.00000

 Dipole moment (field-independent basis, Debye):
    X=              0.9825    Y=              2.5292    Z=              4.3215  Tot=              5.1027
 Quadrupole moment (field-independent basis, Debye-Ang):
   XX=            -87.1790   YY=            -98.1078   ZZ=            -94.8420
   XY=              5.9501   XZ=              7.9432   YZ=             -2.7425

 Normal termination of Gaussian 16 at Thu May  6 01:13:44 2021.
