 Gaussian 16, Revision A.03,
 Gaussian 16:  EM64L-G16RevA.03 25-Dec-2016

 -------------
 #p 6-31g* mp2
 -------------

 ------------------------------------------------------
 Input file generated by CHIRIPA (05-May-2021 14:51:13)
 ------------------------------------------------------
 Symbolic Z-matrix:
 Charge =  0 Multiplicity = 1

                         Standard orientation:
 ---------------------------------------------------------------------
 Center     Atomic      Atomic             Coordinates (Angstroms)
 Number     Number       Type             X           Y           Z
 ---------------------------------------------------------------------
      1          6           0       -3.615141   -0.532740    0.501655
      2          6           0       -2.114182   -0.382292    0.251714
      3          6           0       -1.283492   -1.430308    0.992937
      4          1           0       -3.809755   -0.460981    1.580507
      5          1           0       -3.932163   -1.538558    0.193075
      6          1           0       -1.800348    0.623422    0.559387
      7          1           0       -1.923141   -0.454225   -0.826685
      8          1           0       -1.568223   -2.439846    0.679310
      9          1           0       -1.444733   -1.356075    2.073258
     10          1           0       -0.213532   -1.304277    0.800163
     11          6           0       -4.458858    0.507805   -0.232605
     12          6           0       -5.959818    0.357357    0.017335
     13          6           0       -6.790508    1.405373   -0.723888
     14          1           0       -4.141836    1.513623    0.075974
     15          1           0       -4.264245    0.436046   -1.311457
     16          1           0       -6.150858    0.429291    1.095735
     17          1           0       -6.273651   -0.648357   -0.290338
     18          1           0       -6.629267    1.331140   -1.804208
     19          1           0       -6.505776    2.414911   -0.410260
     20          1           0       -7.860468    1.279342   -0.531113
     21          6           0        4.035841   -0.659330   -0.498006
     22          6           0        3.039811   -1.662410    0.084864
     23          6           0        3.049194   -3.001573   -0.652937
     24          1           0        3.803832   -0.496446   -1.559414
     25          1           0        5.045205   -1.092054   -0.461521
     26          1           0        2.032816   -1.227371    0.048560
     27          1           0        3.274100   -1.822779    1.145056
     28          1           0        4.042013   -3.460559   -0.605562
     29          1           0        2.793675   -2.861768   -1.708288
     30          1           0        2.329864   -3.703601   -0.219831
     31          6           0        4.038158    0.684265    0.228956
     32          6           0        5.034189    1.687345   -0.353914
     33          6           0        5.024805    3.026507    0.383887
     34          1           0        3.028795    1.116988    0.192471
     35          1           0        4.270167    0.521382    1.290365
     36          1           0        4.799900    1.847714   -1.414106
     37          1           0        6.041184    1.252306   -0.317610
     38          1           0        5.280324    2.886703    1.439238
     39          1           0        4.031987    3.485493    0.336512
     40          1           0        5.744135    3.728536   -0.049219
 ---------------------------------------------------------------------

 SCF Done:  E(RHF) =  -470.733330571     A.U. after   11 cycles
 E2 =    -0.1582389422D+01 EUMP2 =    -0.47231571999340D+03

 The electronic state is 1-A.
 Alpha  occ. eigenvalues --  -11.21611 -11.21606 -11.21605 -11.21603 -11.21410
 Alpha  occ. eigenvalues --  -11.21409 -11.21351 -11.21349 -11.21076 -11.21072
 Alpha  occ. eigenvalues --  -11.21064 -11.21042  -1.08441  -1.08429  -1.03550
 Alpha  occ. eigenvalues --   -1.03516  -0.95995  -0.95964  -0.87012  -0.86981
 Alpha  occ. eigenvalues --   -0.79642  -0.79555  -0.78256  -0.78243  -0.65074
 Alpha  occ. eigenvalues --   -0.65063  -0.60962  -0.60923  -0.59473  -0.59235
 Alpha  occ. eigenvalues --   -0.57671  -0.57509  -0.55275  -0.55254  -0.52730
 Alpha  occ. eigenvalues --   -0.52637  -0.52432  -0.52379  -0.49919  -0.49916
 Alpha  occ. eigenvalues --   -0.48024  -0.47815  -0.46630  -0.46617  -0.45805
 Alpha  occ. eigenvalues --   -0.45775  -0.45715  -0.45708  -0.43809  -0.43721
 Alpha virt. eigenvalues --    0.21736   0.23045   0.23522   0.24809   0.26175
 Alpha virt. eigenvalues --    0.26648   0.27012   0.27489   0.27990   0.28701
 Alpha virt. eigenvalues --    0.30356   0.31361   0.31575   0.31789   0.32109

 Mulliken charges:
               1
     1  C   -0.298370
     2  C   -0.299062
     3  C   -0.484162
     4  H    0.149755
     5  H    0.149594
     6  H    0.151609
     7  H    0.151537
     8  H    0.155101
     9  H    0.155356
    10  H    0.168236
    11  C   -0.298250
    12  C   -0.299658
    13  C   -0.475708
    14  H    0.149473
    15  H    0.149566
    16  H    0.151978
    17  H    0.151956
    18  H    0.155155
    19  H    0.155175
    20  H    0.160281
    21  C   -0.297480
    22  C   -0.307230
    23  C   -0.475649
    24  H    0.149580
    25  H    0.149637
    26  H    0.158168
    27  H    0.152235
    28  H    0.155247
    29  H    0.154958
    30  H    0.161065
    31  C   -0.298394
    32  C   -0.299649
    33  C   -0.475724
    34  H    0.149363
    35  H    0.149729
    36  H    0.151972
    37  H    0.151969
    38  H    0.155182
    39  H    0.155193
    40  H    0.160265
 Sum of Mulliken charges =  -0.00000

 Dipole moment (field-independent basis, Debye):
    X=              0.0124    Y=             -0.0071    Z=              0.0032  Tot=              0.0147
 Quadrupole moment (field-independent basis, Debye-Ang):
   XX=            -84.8209   YY=            -85.7848   ZZ=            -84.1220
   XY=              0.1656   XZ=              0.1412   YZ=              0.1770

 Normal termination of Gaussian 16 at Wed May  5 21:34:29 2021.
