 Gaussian 16, Revision A.03,
 Gaussian 16:  EM64L-G16RevA.03 25-Dec-2016

 -------------
 #p 6-31g* mp2
 -------------

 ------------------------------------------------------
 Input file generated by CHIRIPA (05-May-2021 14:55:24)
 ------------------------------------------------------
 Symbolic Z-matrix:
 Charge =  0 Multiplicity = 1

                         Standard orientation:
 ---------------------------------------------------------------------
 Center     Atomic      Atomic             Coordinates (Angstroms)
 Number     Number       Type             X           Y           Z
 ---------------------------------------------------------------------
      1          6           0       -2.353784    2.041954    1.394083
      2          6           0       -1.326448    1.485990    0.624663
      3          6           0       -1.551528    0.333254   -0.133682
      4          6           0       -2.821746   -0.240024   -0.099195
      5          6           0       -3.865678    0.290162    0.657375
      6          6           0       -3.617891    1.443321    1.407959
      7          1           0       -2.170117    2.937591    1.980169
      8          1           0       -0.343731    1.948755    0.611976
      9          1           0       -0.774174   -0.118096   -0.738183
     10          1           0       -4.834816   -0.193710    0.649886
     11          1           0       -4.417618    1.872894    2.004573
     12          7           0       -3.072047   -1.460598   -0.897913
     13          8           0       -4.199960   -1.946605   -0.850530
     14          8           0       -2.135580   -1.908164   -1.556207
     15          6           0        3.431274   -0.477013    0.496657
     16          6           0        4.322610   -1.711877    0.360206
     17          6           0        4.055214   -2.756635    1.444076
     18          1           0        3.586898   -0.027961    1.487150
     19          1           0        2.377984   -0.787394    0.456174
     20          1           0        5.373913   -1.399099    0.399545
     21          1           0        4.164988   -2.157932   -0.630151
     22          1           0        3.015468   -3.096984    1.402941
     23          1           0        4.231262   -2.333839    2.438488
     24          1           0        4.703233   -3.630908    1.327558
     25          6           0        3.686788    0.576492   -0.579711
     26          6           0        2.795452    1.811356   -0.443260
     27          6           0        3.062848    2.856113   -1.527131
     28          1           0        4.740078    0.886872   -0.539229
     29          1           0        3.531164    0.127439   -1.570205
     30          1           0        2.953074    2.257410    0.547096
     31          1           0        1.744149    1.498578   -0.482599
     32          1           0        2.886800    2.433318   -2.521541
     33          1           0        4.102594    3.196462   -1.485995
     34          1           0        2.414828    3.730386   -1.410611
 ---------------------------------------------------------------------

 SCF Done:  E(RHF) =  -669.535538462     A.U. after   15 cycles
 E2 =    -0.2091492828D+01 EUMP2 =    -0.67162703129045D+03

 The electronic state is 1-A.
 Alpha  occ. eigenvalues --  -20.60756 -20.60750 -15.85808 -11.31160 -11.27722
 Alpha  occ. eigenvalues --  -11.27718 -11.27450 -11.26739 -11.26681 -11.22525
 Alpha  occ. eigenvalues --  -11.21949 -11.21857 -11.21798 -11.21762 -11.21192
 Alpha  occ. eigenvalues --   -1.59831  -1.39385  -1.19324  -1.08962  -1.08721
 Alpha  occ. eigenvalues --   -1.04727  -1.04027  -0.96436  -0.95561  -0.87457
 Alpha  occ. eigenvalues --   -0.86123  -0.82401  -0.80147  -0.78755  -0.77439
 Alpha  occ. eigenvalues --   -0.72027  -0.71153  -0.70438  -0.65608  -0.64973
 Alpha  occ. eigenvalues --   -0.64730  -0.62126  -0.61379  -0.59836  -0.58057
 Alpha  occ. eigenvalues --   -0.55702  -0.55227  -0.53155  -0.53054  -0.52895
 Alpha  occ. eigenvalues --   -0.52780  -0.50376  -0.48791  -0.48783  -0.48414
 Alpha  occ. eigenvalues --   -0.47177  -0.46279  -0.46183  -0.44794  -0.44275
 Alpha  occ. eigenvalues --   -0.37304  -0.36325
 Alpha virt. eigenvalues --    0.05082   0.11324   0.16577   0.19291   0.22681
 Alpha virt. eigenvalues --    0.23811   0.24775   0.26262   0.27035   0.28324
 Alpha virt. eigenvalues --    0.29658   0.30218   0.31050   0.31429   0.32330

 Mulliken charges:
               1
     1  C   -0.171255
     2  C   -0.223609
     3  C   -0.174196
     4  C    0.159028
     5  C   -0.171185
     6  C   -0.218382
     7  H    0.225783
     8  H    0.231481
     9  H    0.275024
    10  H    0.275436
    11  H    0.223261
    12  N    0.488220
    13  O   -0.460445
    14  O   -0.460960
    15  C   -0.299050
    16  C   -0.300290
    17  C   -0.476609
    18  H    0.148971
    19  H    0.147827
    20  H    0.152199
    21  H    0.155331
    22  H    0.158329
    23  H    0.154104
    24  H    0.162116
    25  C   -0.298559
    26  C   -0.305480
    27  C   -0.475668
    28  H    0.152505
    29  H    0.153838
    30  H    0.151608
    31  H    0.143806
    32  H    0.159462
    33  H    0.158978
    34  H    0.158381
 Sum of Mulliken charges =  -0.00000

 Dipole moment (field-independent basis, Debye):
    X=              1.0696    Y=              4.2609    Z=              2.7806  Tot=              5.1991
 Quadrupole moment (field-independent basis, Debye-Ang):
   XX=            -94.0790   YY=            -97.8644   ZZ=            -95.5746
   XY=            -12.1920   XZ=             -9.6756   YZ=             -0.2608

 Normal termination of Gaussian 16 at Wed May  5 22:23:54 2021.
