 Gaussian 16, Revision A.03,
 Gaussian 16:  EM64L-G16RevA.03 25-Dec-2016

 -------------
 #p 6-31g* mp2
 -------------

 ------------------------------------------------------
 Input file generated by CHIRIPA (05-May-2021 14:53:15)
 ------------------------------------------------------
 Symbolic Z-matrix:
 Charge =  0 Multiplicity = 1

                         Standard orientation:
 ---------------------------------------------------------------------
 Center     Atomic      Atomic             Coordinates (Angstroms)
 Number     Number       Type             X           Y           Z
 ---------------------------------------------------------------------
      1          6           0       -3.832107   -0.108097    0.185274
      2          6           0       -3.919384   -1.534832   -0.357675
      3          6           0       -5.080812   -2.326393    0.244249
      4          1           0       -3.725618   -0.144326    1.278111
      5          1           0       -4.777462    0.413197   -0.019546
      6          1           0       -2.973637   -2.052843   -0.153118
      7          1           0       -4.025485   -1.495207   -1.449366
      8          1           0       -6.034914   -1.834799    0.028318
      9          1           0       -4.977089   -2.395603    1.331931
     10          1           0       -5.124545   -3.343409   -0.157777
     11          6           0       -2.675989    0.695835   -0.407020
     12          6           0       -2.588711    2.122570    0.135930
     13          6           0       -1.427284    2.914131   -0.465995
     14          1           0       -1.730633    0.174541   -0.202199
     15          1           0       -2.782478    0.732064   -1.499857
     16          1           0       -2.482610    2.082945    1.227620
     17          1           0       -3.534458    2.640581   -0.068627
     18          1           0       -1.531007    2.983341   -1.553677
     19          1           0       -0.473182    2.422537   -0.250064
     20          1           0       -1.383551    3.931147   -0.063969
     21          6           0        2.263208    0.068457    2.576447
     22          6           0        1.927574    1.109698    1.704846
     23          6           0        2.078080    0.955695    0.323479
     24          6           0        2.569199   -0.258399   -0.154088
     25          6           0        2.912354   -1.314439    0.688713
     26          6           0        2.753662   -1.138161    2.066498
     27          1           0        2.143111    0.196742    3.648135
     28          1           0        1.546452    2.047876    2.098059
     29          1           0        1.825969    1.745354   -0.373871
     30          1           0        3.289870   -2.238054    0.267007
     31          1           0        3.015129   -1.948526    2.741027
     32          7           0        2.732867   -0.433226   -1.614584
     33          8           0        3.167573   -1.512643   -2.010218
     34          8           0        2.423344    0.512472   -2.336033
 ---------------------------------------------------------------------

 SCF Done:  E(RHF) =  -669.535328734     A.U. after   15 cycles
 E2 =    -0.2091933664D+01 EUMP2 =    -0.67162726239827D+03

 The electronic state is 1-A.
 Alpha  occ. eigenvalues --  -20.60786 -20.60779 -15.85840 -11.31241 -11.27812
 Alpha  occ. eigenvalues --  -11.27795 -11.27556 -11.26838 -11.26828 -11.21850
 Alpha  occ. eigenvalues --  -11.21618 -11.21483 -11.21423 -11.21406 -11.21110
 Alpha  occ. eigenvalues --   -1.59860  -1.39412  -1.19419  -1.08804  -1.08541
 Alpha  occ. eigenvalues --   -1.04830  -1.03677  -0.96135  -0.95633  -0.87156
 Alpha  occ. eigenvalues --   -0.86217  -0.82465  -0.79742  -0.78335  -0.77505
 Alpha  occ. eigenvalues --   -0.72058  -0.71184  -0.70530  -0.65191  -0.65061
 Alpha  occ. eigenvalues --   -0.64823  -0.62227  -0.61052  -0.59497  -0.57730
 Alpha  occ. eigenvalues --   -0.55488  -0.55265  -0.53161  -0.52953  -0.52836
 Alpha  occ. eigenvalues --   -0.52501  -0.50072  -0.48820  -0.48809  -0.48048
 Alpha  occ. eigenvalues --   -0.46768  -0.45880  -0.45798  -0.44808  -0.43918
 Alpha  occ. eigenvalues --   -0.37397  -0.36404
 Alpha virt. eigenvalues --    0.04981   0.11186   0.16418   0.20776   0.22841
 Alpha virt. eigenvalues --    0.24123   0.25890   0.26763   0.27440   0.27924
 Alpha virt. eigenvalues --    0.29047   0.30670   0.31427   0.31648   0.31911

 Mulliken charges:
               1
     1  C   -0.298243
     2  C   -0.299884
     3  C   -0.475740
     4  H    0.147222
     5  H    0.149687
     6  H    0.152306
     7  H    0.154401
     8  H    0.155318
     9  H    0.153589
    10  H    0.161104
    11  C   -0.299258
    12  C   -0.298747
    13  C   -0.479889
    14  H    0.150494
    15  H    0.153921
    16  H    0.147631
    17  H    0.153606
    18  H    0.163361
    19  H    0.148366
    20  H    0.158150
    21  C   -0.171071
    22  C   -0.219067
    23  C   -0.173165
    24  C    0.158088
    25  C   -0.171197
    26  C   -0.218379
    27  H    0.225857
    28  H    0.224939
    29  H    0.279049
    30  H    0.275869
    31  H    0.223724
    32  N    0.488022
    33  O   -0.460437
    34  O   -0.459627
 Sum of Mulliken charges =  -0.00000

 Dipole moment (field-independent basis, Debye):
    X=             -0.5910    Y=              0.5729    Z=              5.0716  Tot=              5.1379
 Quadrupole moment (field-independent basis, Debye-Ang):
   XX=            -98.0316   YY=            -91.3749   ZZ=            -96.2733
   XY=             -0.8890   XZ=             14.7765   YZ=             -2.3739

 Normal termination of Gaussian 16 at Thu May  6 10:34:04 2021.
