 Gaussian 16, Revision A.03,
 Gaussian 16:  EM64L-G16RevA.03 25-Dec-2016

 -------------
 #p 6-31g* mp2
 -------------

 ------------------------------------------------------
 Input file generated by CHIRIPA (05-May-2021 14:51:12)
 ------------------------------------------------------
 Symbolic Z-matrix:
 Charge =  0 Multiplicity = 1

                         Standard orientation:
 ---------------------------------------------------------------------
 Center     Atomic      Atomic             Coordinates (Angstroms)
 Number     Number       Type             X           Y           Z
 ---------------------------------------------------------------------
      1          6           0       -2.885209    0.669157   -0.177802
      2          6           0       -3.940308    1.409548    0.644738
      3          6           0       -3.847457    2.928405    0.495587
      4          1           0       -1.886199    1.008680    0.128219
      5          1           0       -2.997488    0.942125   -1.236233
      6          1           0       -3.826958    1.134199    1.701123
      7          1           0       -4.936916    1.068083    0.336857
      8          1           0       -3.982440    3.221735   -0.550519
      9          1           0       -2.866176    3.288227    0.821499
     10          1           0       -4.610822    3.437778    1.091970
     11          6           0       -2.965214   -0.850081   -0.039084
     12          6           0       -1.910115   -1.590472   -0.861624
     13          6           0       -2.002967   -3.109329   -0.712473
     14          1           0       -2.852935   -1.123049    1.019347
     15          1           0       -3.964224   -1.189604   -0.345105
     16          1           0       -0.913508   -1.249007   -0.553743
     17          1           0       -2.023465   -1.315123   -1.918009
     18          1           0       -2.984247   -3.469151   -1.038385
     19          1           0       -1.867983   -3.402659    0.333633
     20          1           0       -1.239601   -3.618702   -1.308856
     21          6           0        2.959756    0.665754   -0.392834
     22          6           0        3.438071    1.980221    0.224722
     23          6           0        3.501913    3.121651   -0.790587
     24          1           0        3.632207    0.388765   -1.216261
     25          1           0        1.966694    0.817781   -0.837931
     26          1           0        4.429339    1.825405    0.669734
     27          1           0        2.764513    2.254012    1.046899
     28          1           0        2.514641    3.304835   -1.226866
     29          1           0        4.188926    2.873792   -1.606174
     30          1           0        3.846215    4.051796   -0.327829
     31          6           0        2.890667   -0.484829    0.609720
     32          6           0        2.412353   -1.799297   -0.007837
     33          6           0        2.348510   -2.940728    1.007474
     34          1           0        3.883730   -0.636857    1.054816
     35          1           0        2.218216   -0.207842    1.433147
     36          1           0        3.085910   -2.073088   -0.830014
     37          1           0        1.421084   -1.644481   -0.452849
     38          1           0        1.661497   -2.692869    1.823060
     39          1           0        3.335782   -3.123912    1.443752
     40          1           0        2.004208   -3.870873    0.544715
 ---------------------------------------------------------------------

 SCF Done:  E(RHF) =  -470.733368666     A.U. after   11 cycles
 E2 =    -0.1583027791D+01 EUMP2 =    -0.47231639645657D+03

 The electronic state is 1-A.
 Alpha  occ. eigenvalues --  -11.21642 -11.21639 -11.21614 -11.21587 -11.21454
 Alpha  occ. eigenvalues --  -11.21420 -11.21394 -11.21361 -11.21106 -11.21097
 Alpha  occ. eigenvalues --  -11.21075 -11.21074  -1.08483  -1.08437  -1.03586
 Alpha  occ. eigenvalues --   -1.03521  -0.96022  -0.95979  -0.87036  -0.86996
 Alpha  occ. eigenvalues --   -0.79686  -0.79556  -0.78332  -0.78215  -0.65223
 Alpha  occ. eigenvalues --   -0.64979  -0.61139  -0.60783  -0.59430  -0.59303
 Alpha  occ. eigenvalues --   -0.57665  -0.57554  -0.55352  -0.55219  -0.52720
 Alpha  occ. eigenvalues --   -0.52663  -0.52447  -0.52403  -0.50022  -0.49879
 Alpha  occ. eigenvalues --   -0.48065  -0.47850  -0.46902  -0.46464  -0.45999
 Alpha  occ. eigenvalues --   -0.45787  -0.45774  -0.45404  -0.43829  -0.43784
 Alpha virt. eigenvalues --    0.20357   0.23304   0.23429   0.25261   0.25372
 Alpha virt. eigenvalues --    0.26895   0.27094   0.27236   0.28717   0.29181
 Alpha virt. eigenvalues --    0.30611   0.30916   0.31532   0.31777   0.32613

 Mulliken charges:
               1
     1  C   -0.298320
     2  C   -0.299683
     3  C   -0.475740
     4  H    0.148801
     5  H    0.149743
     6  H    0.151972
     7  H    0.152179
     8  H    0.155293
     9  H    0.155046
    10  H    0.160456
    11  C   -0.297648
    12  C   -0.307131
    13  C   -0.475737
    14  H    0.149466
    15  H    0.149970
    16  H    0.157671
    17  H    0.152189
    18  H    0.155367
    19  H    0.155669
    20  H    0.160691
    21  C   -0.298779
    22  C   -0.299575
    23  C   -0.475780
    24  H    0.149910
    25  H    0.149581
    26  H    0.152023
    27  H    0.151596
    28  H    0.155427
    29  H    0.155237
    30  H    0.160269
    31  C   -0.297851
    32  C   -0.308604
    33  C   -0.475157
    34  H    0.149739
    35  H    0.148801
    36  H    0.152174
    37  H    0.160295
    38  H    0.154470
    39  H    0.155175
    40  H    0.160795
 Sum of Mulliken charges =  -0.00000

 Dipole moment (field-independent basis, Debye):
    X=             -0.0145    Y=             -0.0105    Z=             -0.0130  Tot=              0.0222
 Quadrupole moment (field-independent basis, Debye-Ang):
   XX=            -83.3729   YY=            -86.7812   ZZ=            -84.4906
   XY=             -0.2331   XZ=              0.3442   YZ=              0.6714

 Normal termination of Gaussian 16 at Thu May  6 02:18:16 2021.
