 Gaussian 16, Revision A.03,
 Gaussian 16:  EM64L-G16RevA.03 25-Dec-2016

 -------------
 #p 6-31g* mp2
 -------------

 ------------------------------------------------------
 Input file generated by CHIRIPA (05-May-2021 14:51:13)
 ------------------------------------------------------
 Symbolic Z-matrix:
 Charge =  0 Multiplicity = 1

                         Standard orientation:
 ---------------------------------------------------------------------
 Center     Atomic      Atomic             Coordinates (Angstroms)
 Number     Number       Type             X           Y           Z
 ---------------------------------------------------------------------
      1          6           0        3.845826    0.504517   -0.000606
      2          6           0        2.499666    0.259475    0.681884
      3          6           0        1.505715    1.398923    0.454913
      4          1           0        4.273004    1.445395    0.372504
      5          1           0        3.683001    0.640992   -1.078686
      6          1           0        2.665133    0.122127    1.758161
      7          1           0        2.075732   -0.681026    0.307247
      8          1           0        1.311342    1.533367   -0.614080
      9          1           0        1.904093    2.341084    0.845078
     10          1           0        0.550238    1.203074    0.951466
     11          6           0        4.850103   -0.625855    0.217146
     12          6           0        6.196263   -0.380814   -0.465344
     13          6           0        7.190213   -1.520262   -0.238372
     14          1           0        5.012927   -0.762331    1.295227
     15          1           0        4.422925   -1.566734   -0.155964
     16          1           0        6.620196    0.559688   -0.090707
     17          1           0        6.030795   -0.243466   -1.541621
     18          1           0        6.791836   -2.462423   -0.628538
     19          1           0        7.384586   -1.654706    0.830620
     20          1           0        8.145691   -1.324412   -0.734926
     21          6           0       -3.710111    0.403749   -0.350904
     22          6           0       -3.609993    1.868853    0.075045
     23          6           0       -2.328472    2.541544   -0.417890
     24          1           0       -2.837068   -0.142986    0.030964
     25          1           0       -3.661621    0.343681   -1.447004
     26          1           0       -3.660049    1.926252    1.169949
     27          1           0       -4.483472    2.412123   -0.307719
     28          1           0       -2.274766    2.513818   -1.511026
     29          1           0       -1.446664    2.025188   -0.024963
     30          1           0       -2.277462    3.588237   -0.102154
     31          6           0       -4.985818   -0.282410    0.134363
     32          6           0       -5.085935   -1.747514   -0.291585
     33          6           0       -6.367456   -2.420205    0.201350
     34          1           0       -5.034308   -0.222342    1.230464
     35          1           0       -5.858860    0.264324   -0.247504
     36          1           0       -4.212456   -2.290784    0.091179
     37          1           0       -5.035880   -1.804914   -1.386489
     38          1           0       -7.249265   -1.903848   -0.191577
     39          1           0       -6.421162   -2.392479    1.294487
     40          1           0       -6.418467   -3.466899   -0.114387
 ---------------------------------------------------------------------

 SCF Done:  E(RHF) =  -470.733041875     A.U. after   11 cycles
 E2 =    -0.1582367889D+01 EUMP2 =    -0.47231540976400D+03

 The electronic state is 1-A.
 Alpha  occ. eigenvalues --  -11.21622 -11.21608 -11.21586 -11.21535 -11.21417
 Alpha  occ. eigenvalues --  -11.21376 -11.21358 -11.21315 -11.21095 -11.21077
 Alpha  occ. eigenvalues --  -11.21059 -11.20912  -1.08445  -1.08392  -1.03554
 Alpha  occ. eigenvalues --   -1.03475  -0.96025  -0.95904  -0.87071  -0.86895
 Alpha  occ. eigenvalues --   -0.79658  -0.79500  -0.78258  -0.78204  -0.65076
 Alpha  occ. eigenvalues --   -0.65026  -0.60969  -0.60883  -0.59405  -0.59280
 Alpha  occ. eigenvalues --   -0.57641  -0.57513  -0.55330  -0.55188  -0.52824
 Alpha  occ. eigenvalues --   -0.52612  -0.52420  -0.52248  -0.49978  -0.49797
 Alpha  occ. eigenvalues --   -0.47932  -0.47850  -0.46663  -0.46549  -0.45803
 Alpha  occ. eigenvalues --   -0.45752  -0.45709  -0.45674  -0.43754  -0.43739
 Alpha virt. eigenvalues --    0.22116   0.23002   0.23632   0.24859   0.26319
 Alpha virt. eigenvalues --    0.26631   0.27074   0.27457   0.27775   0.28943
 Alpha virt. eigenvalues --    0.30403   0.31299   0.31716   0.31792   0.32090

 Mulliken charges:
               1
     1  C   -0.298736
     2  C   -0.299597
     3  C   -0.478381
     4  H    0.149746
     5  H    0.149771
     6  H    0.151796
     7  H    0.151968
     8  H    0.157132
     9  H    0.155877
    10  H    0.161444
    11  C   -0.298304
    12  C   -0.299646
    13  C   -0.475710
    14  H    0.149507
    15  H    0.149672
    16  H    0.151973
    17  H    0.151994
    18  H    0.155190
    19  H    0.155172
    20  H    0.160294
    21  C   -0.298115
    22  C   -0.299393
    23  C   -0.483474
    24  H    0.148991
    25  H    0.149432
    26  H    0.151282
    27  H    0.151554
    28  H    0.154153
    29  H    0.165002
    30  H    0.159681
    31  C   -0.298224
    32  C   -0.299612
    33  C   -0.475679
    34  H    0.149408
    35  H    0.149672
    36  H    0.151820
    37  H    0.151852
    38  H    0.155173
    39  H    0.155154
    40  H    0.160160
 Sum of Mulliken charges =  -0.00000

 Dipole moment (field-independent basis, Debye):
    X=              0.0500    Y=              0.0036    Z=              0.0007  Tot=              0.0501
 Quadrupole moment (field-independent basis, Debye-Ang):
   XX=            -86.0363   YY=            -85.4789   ZZ=            -83.4114
   XY=              0.1768   XZ=              0.8883   YZ=              0.4069

 Normal termination of Gaussian 16 at Wed May  5 16:52:44 2021.
