 Gaussian 16, Revision A.03,
 Gaussian 16:  EM64L-G16RevA.03 25-Dec-2016

 -------------
 #p 6-31g* mp2
 -------------

 ------------------------------------------------------
 Input file generated by CHIRIPA (05-May-2021 14:51:09)
 ------------------------------------------------------
 Symbolic Z-matrix:
 Charge =  0 Multiplicity = 1

                         Standard orientation:
 ---------------------------------------------------------------------
 Center     Atomic      Atomic             Coordinates (Angstroms)
 Number     Number       Type             X           Y           Z
 ---------------------------------------------------------------------
      1          6           0       -2.841479    0.183420   -0.403089
      2          6           0       -3.974810    1.120130    0.016577
      3          6           0       -4.121224    2.324717   -0.913654
      4          1           0       -1.898598    0.746755   -0.427027
      5          1           0       -3.023791   -0.164609   -1.429263
      6          1           0       -3.791130    1.465197    1.042153
      7          1           0       -4.915071    0.554454    0.039704
      8          1           0       -4.328755    1.997694   -1.937659
      9          1           0       -3.198429    2.913612   -0.929515
     10          1           0       -4.937103    2.981058   -0.595192
     11          6           0       -2.682608   -1.025557    0.517163
     12          6           0       -1.549277   -1.962267    0.097497
     13          6           0       -1.402863   -3.166854    1.027727
     14          1           0       -2.500296   -0.677528    1.543337
     15          1           0       -3.625489   -1.588892    0.541101
     16          1           0       -0.609016   -1.396591    0.074370
     17          1           0       -1.732956   -2.307335   -0.928079
     18          1           0       -2.325658   -3.755750    1.043589
     19          1           0       -1.195331   -2.839832    2.051733
     20          1           0       -0.586984   -3.823195    0.709266
     21          6           0        2.510843   -0.298583   -0.007713
     22          6           0        3.351026   -1.290612   -0.812670
     23          6           0        2.835992   -2.726136   -0.704017
     24          1           0        2.500773   -0.607223    1.046603
     25          1           0        1.469750   -0.342972   -0.356352
     26          1           0        4.390499   -1.243367   -0.463558
     27          1           0        3.359255   -0.979467   -1.865161
     28          1           0        1.806858   -2.795006   -1.071087
     29          1           0        2.843962   -3.060407    0.338480
     30          1           0        3.451189   -3.418585   -1.287032
     31          6           0        3.013244    1.140719   -0.106361
     32          6           0        2.173061    2.132749    0.698597
     33          6           0        2.688094    3.568274    0.589943
     34          1           0        4.054337    1.185110    0.242278
     35          1           0        3.023313    1.449361   -1.160677
     36          1           0        2.164833    1.821603    1.751088
     37          1           0        1.133588    2.085505    0.349484
     38          1           0        2.680126    3.902544   -0.452554
     39          1           0        3.717228    3.637144    0.957013
     40          1           0        2.072898    4.260723    1.172959
 ---------------------------------------------------------------------

 SCF Done:  E(RHF) =  -470.733332145     A.U. after   11 cycles
 E2 =    -0.1583577757D+01 EUMP2 =    -0.47231690990249D+03

 The electronic state is 1-A.
 Alpha  occ. eigenvalues --  -11.21667 -11.21629 -11.21610 -11.21544 -11.21445
 Alpha  occ. eigenvalues --  -11.21412 -11.21384 -11.21342 -11.21116 -11.21082
 Alpha  occ. eigenvalues --  -11.21079 -11.21018  -1.08483  -1.08417  -1.03576
 Alpha  occ. eigenvalues --   -1.03506  -0.96017  -0.95962  -0.87040  -0.86971
 Alpha  occ. eigenvalues --   -0.79667  -0.79559  -0.78386  -0.78153  -0.65194
 Alpha  occ. eigenvalues --   -0.64975  -0.61014  -0.60873  -0.59433  -0.59284
 Alpha  occ. eigenvalues --   -0.57666  -0.57537  -0.55307  -0.55247  -0.52709
 Alpha  occ. eigenvalues --   -0.52665  -0.52502  -0.52323  -0.49988  -0.49883
 Alpha  occ. eigenvalues --   -0.48028  -0.47863  -0.46824  -0.46567  -0.46157
 Alpha  occ. eigenvalues --   -0.45794  -0.45738  -0.45178  -0.43824  -0.43768
 Alpha virt. eigenvalues --    0.20531   0.22535   0.23460   0.24587   0.25132
 Alpha virt. eigenvalues --    0.26567   0.26883   0.27200   0.28876   0.29750
 Alpha virt. eigenvalues --    0.30544   0.30900   0.31513   0.31844   0.31886

 Mulliken charges:
               1
     1  C   -0.299214
     2  C   -0.299624
     3  C   -0.475709
     4  H    0.149138
     5  H    0.149428
     6  H    0.152162
     7  H    0.152138
     8  H    0.155122
     9  H    0.155012
    10  H    0.160364
    11  C   -0.297543
    12  C   -0.309564
    13  C   -0.476330
    14  H    0.149709
    15  H    0.149627
    16  H    0.161751
    17  H    0.150791
    18  H    0.154777
    19  H    0.154930
    20  H    0.161973
    21  C   -0.306055
    22  C   -0.299218
    23  C   -0.478776
    24  H    0.149439
    25  H    0.156776
    26  H    0.152060
    27  H    0.151972
    28  H    0.158453
    29  H    0.155436
    30  H    0.160294
    31  C   -0.297484
    32  C   -0.300358
    33  C   -0.475736
    34  H    0.149840
    35  H    0.149841
    36  H    0.151994
    37  H    0.151356
    38  H    0.155430
    39  H    0.155479
    40  H    0.160315
 Sum of Mulliken charges =  -0.00000

 Dipole moment (field-independent basis, Debye):
    X=              0.0299    Y=              0.0002    Z=              0.0004  Tot=              0.0299
 Quadrupole moment (field-independent basis, Debye-Ang):
   XX=            -84.0846   YY=            -86.5236   ZZ=            -84.1011
   XY=              0.1831   XZ=              0.7227   YZ=              0.7083

 Normal termination of Gaussian 16 at Wed May  5 18:10:14 2021.
