 Gaussian 16, Revision A.03,
 Gaussian 16:  EM64L-G16RevA.03 25-Dec-2016

 -------------
 #p 6-31g* mp2
 -------------

 ------------------------------------------------------
 Input file generated by CHIRIPA (05-May-2021 14:51:08)
 ------------------------------------------------------
 Symbolic Z-matrix:
 Charge =  0 Multiplicity = 1

                         Standard orientation:
 ---------------------------------------------------------------------
 Center     Atomic      Atomic             Coordinates (Angstroms)
 Number     Number       Type             X           Y           Z
 ---------------------------------------------------------------------
      1          6           0       -3.259272   -0.574586   -0.166740
      2          6           0       -2.673814   -1.863674   -0.744214
      3          6           0       -3.354256   -3.118917   -0.197262
      4          1           0       -3.167426   -0.595800    0.927819
      5          1           0       -4.334597   -0.536489   -0.389495
      6          1           0       -1.599640   -1.898665   -0.521636
      7          1           0       -2.766891   -1.839304   -1.837538
      8          1           0       -4.423557   -3.110830   -0.432065
      9          1           0       -3.249673   -3.170528    0.891314
     10          1           0       -2.920234   -4.028848   -0.623303
     11          6           0       -2.589385    0.688893   -0.703957
     12          6           0       -3.174844    1.977981   -0.126484
     13          6           0       -2.494401    3.233224   -0.673435
     14          1           0       -1.514060    0.650796   -0.481202
     15          1           0       -2.681232    0.710107   -1.798516
     16          1           0       -3.081766    1.953611    0.966841
     17          1           0       -4.249018    2.012972   -0.349062
     18          1           0       -2.598985    3.284835   -1.762012
     19          1           0       -1.425101    3.225137   -0.438633
     20          1           0       -2.928424    4.143155   -0.247395
     21          6           0        2.627836    0.177397    1.099058
     22          6           0        1.190691   -0.294832    1.321771
     23          6           0        0.611356    0.182392    2.653845
     24          1           0        3.257376   -0.182569    1.924314
     25          1           0        2.656235    1.275078    1.140086
     26          1           0        1.164780   -1.391240    1.278956
     27          1           0        0.564537    0.066139    0.495789
     28          1           0        0.608073    1.276100    2.702772
     29          1           0        1.211727   -0.189560    3.490390
     30          1           0       -0.416700   -0.166499    2.792534
     31          6           0        3.220822   -0.291704   -0.228361
     32          6           0        4.657966    0.180525   -0.451073
     33          6           0        5.237301   -0.296700   -1.783147
     34          1           0        3.192422   -1.389385   -0.269389
     35          1           0        2.591281    0.068263   -1.053617
     36          1           0        5.284120   -0.180446    0.374909
     37          1           0        4.683878    1.276933   -0.408259
     38          1           0        4.636931    0.075253   -2.619693
     39          1           0        5.240585   -1.390407   -1.832074
     40          1           0        6.265358    0.052192   -1.921836
 ---------------------------------------------------------------------

 SCF Done:  E(RHF) =  -470.733355226     A.U. after   11 cycles
 E2 =    -0.1583453735D+01 EUMP2 =    -0.47231680896101D+03

 The electronic state is 1-A.
 Alpha  occ. eigenvalues --  -11.21683 -11.21629 -11.21599 -11.21567 -11.21457
 Alpha  occ. eigenvalues --  -11.21394 -11.21393 -11.21333 -11.21168 -11.21090
 Alpha  occ. eigenvalues --  -11.21088 -11.21054  -1.08494  -1.08414  -1.03589
 Alpha  occ. eigenvalues --   -1.03519  -0.96037  -0.95971  -0.87050  -0.86990
 Alpha  occ. eigenvalues --   -0.79664  -0.79580  -0.78360  -0.78175  -0.65232
 Alpha  occ. eigenvalues --   -0.64963  -0.61032  -0.60872  -0.59403  -0.59339
 Alpha  occ. eigenvalues --   -0.57653  -0.57577  -0.55352  -0.55229  -0.52730
 Alpha  occ. eigenvalues --   -0.52668  -0.52458  -0.52402  -0.50007  -0.49896
 Alpha  occ. eigenvalues --   -0.48014  -0.47905  -0.46840  -0.46563  -0.46074
 Alpha  occ. eigenvalues --   -0.45780  -0.45756  -0.45281  -0.43834  -0.43774
 Alpha virt. eigenvalues --    0.19831   0.23080   0.23999   0.24693   0.25403
 Alpha virt. eigenvalues --    0.26368   0.26772   0.27740   0.28404   0.29451
 Alpha virt. eigenvalues --    0.30412   0.31527   0.31825   0.31867   0.32095

 Mulliken charges:
               1
     1  C   -0.297988
     2  C   -0.302117
     3  C   -0.475624
     4  H    0.149583
     5  H    0.149543
     6  H    0.154824
     7  H    0.151696
     8  H    0.155086
     9  H    0.154961
    10  H    0.160166
    11  C   -0.306879
    12  C   -0.299270
    13  C   -0.475592
    14  H    0.157507
    15  H    0.149531
    16  H    0.152380
    17  H    0.151967
    18  H    0.155172
    19  H    0.154264
    20  H    0.160402
    21  C   -0.297632
    22  C   -0.308923
    23  C   -0.476220
    24  H    0.149962
    25  H    0.149540
    26  H    0.152478
    27  H    0.159226
    28  H    0.155308
    29  H    0.155948
    30  H    0.160190
    31  C   -0.298541
    32  C   -0.299705
    33  C   -0.475774
    34  H    0.149669
    35  H    0.149865
    36  H    0.152003
    37  H    0.152033
    38  H    0.155369
    39  H    0.155236
    40  H    0.160357
 Sum of Mulliken charges =  -0.00000

 Dipole moment (field-independent basis, Debye):
    X=              0.0288    Y=             -0.0012    Z=              0.0034  Tot=              0.0290
 Quadrupole moment (field-independent basis, Debye-Ang):
   XX=            -84.6649   YY=            -85.1597   ZZ=            -84.9191
   XY=             -0.5878   XZ=              1.3266   YZ=             -0.3602

 Normal termination of Gaussian 16 at Thu May  6 03:40:57 2021.
