 Gaussian 16, Revision A.03,
 Gaussian 16:  EM64L-G16RevA.03 25-Dec-2016

 -------------
 #p 6-31g* mp2
 -------------

 ------------------------------------------------------
 Input file generated by CHIRIPA (05-May-2021 14:53:13)
 ------------------------------------------------------
 Symbolic Z-matrix:
 Charge =  0 Multiplicity = 1

                         Standard orientation:
 ---------------------------------------------------------------------
 Center     Atomic      Atomic             Coordinates (Angstroms)
 Number     Number       Type             X           Y           Z
 ---------------------------------------------------------------------
      1          6           0       -5.174266   -0.392949   -0.357080
      2          6           0       -6.375854    0.500807   -0.048260
      3          6           0       -7.534659    0.291192   -1.023466
      4          1           0       -4.832670   -0.195853   -1.382463
      5          1           0       -5.491768   -1.444547   -0.330097
      6          1           0       -6.055871    1.550350   -0.074455
      7          1           0       -6.714510    0.301697    0.976573
      8          1           0       -7.881711   -0.746673   -0.991988
      9          1           0       -7.219330    0.509074   -2.048989
     10          1           0       -8.383013    0.940000   -0.784294
     11          6           0       -4.007724   -0.194929    0.609199
     12          6           0       -2.806135   -1.088685    0.300380
     13          6           0       -1.647330   -0.879070    1.275586
     14          1           0       -3.690222    0.856669    0.582217
     15          1           0       -4.349319   -0.392026    1.634583
     16          1           0       -2.467480   -0.889576   -0.724454
     17          1           0       -3.126118   -2.138228    0.326575
     18          1           0       -1.962659   -1.096952    2.301108
     19          1           0       -1.300278    0.158795    1.244108
     20          1           0       -0.798976   -1.527878    1.036413
     21          6           0        5.352303   -1.545228   -0.412282
     22          6           0        4.009176   -1.910622   -0.274377
     23          6           0        3.022435   -0.935695   -0.100002
     24          6           0        3.416024    0.401228   -0.068147
     25          6           0        4.745913    0.796929   -0.202701
     26          6           0        5.715744   -0.194998   -0.376068
     27          1           0        6.112258   -2.309178   -0.547349
     28          1           0        3.724010   -2.958456   -0.302110
     29          1           0        1.975306   -1.190645    0.009270
     30          1           0        4.999497    1.849595   -0.170936
     31          1           0        6.758065    0.091699   -0.482903
     32          7           0        2.380357    1.442338    0.115922
     33          8           0        2.753015    2.613303    0.140508
     34          8           0        1.215553    1.067683    0.232123
 ---------------------------------------------------------------------

 SCF Done:  E(RHF) =  -669.535807200     A.U. after   15 cycles
 E2 =    -0.2091022977D+01 EUMP2 =    -0.67162683017707D+03

 The electronic state is 1-A.
 Alpha  occ. eigenvalues --  -20.60847 -20.60842 -15.85893 -11.31231 -11.27800
 Alpha  occ. eigenvalues --  -11.27791 -11.27542 -11.26811 -11.26801 -11.21145
 Alpha  occ. eigenvalues --  -11.20907 -11.20869 -11.20719 -11.20697 -11.20131
 Alpha  occ. eigenvalues --   -1.59919  -1.39473  -1.19403  -1.08805  -1.07843
 Alpha  occ. eigenvalues --   -1.04802  -1.02921  -0.95652  -0.95353  -0.86376
 Alpha  occ. eigenvalues --   -0.86201  -0.82478  -0.79000  -0.77663  -0.77512
 Alpha  occ. eigenvalues --   -0.72125  -0.71236  -0.70513  -0.65061  -0.64807
 Alpha  occ. eigenvalues --   -0.64464  -0.62152  -0.60294  -0.58767  -0.56991
 Alpha  occ. eigenvalues --   -0.55307  -0.54609  -0.53133  -0.52902  -0.52076
 Alpha  occ. eigenvalues --   -0.51783  -0.49297  -0.48874  -0.48828  -0.47310
 Alpha  occ. eigenvalues --   -0.46013  -0.45199  -0.45110  -0.44861  -0.43197
 Alpha  occ. eigenvalues --   -0.37384  -0.36404
 Alpha virt. eigenvalues --    0.05002   0.11249   0.16494   0.20829   0.23365
 Alpha virt. eigenvalues --    0.24167   0.26469   0.27247   0.27681   0.28111
 Alpha virt. eigenvalues --    0.29299   0.30408   0.31515   0.32086   0.32390

 Mulliken charges:
               1
     1  C   -0.297882
     2  C   -0.299495
     3  C   -0.475413
     4  H    0.149588
     5  H    0.147095
     6  H    0.153278
     7  H    0.151044
     8  H    0.153848
     9  H    0.154912
    10  H    0.159298
    11  C   -0.298982
    12  C   -0.299401
    13  C   -0.477997
    14  H    0.154625
    15  H    0.147702
    16  H    0.152612
    17  H    0.145697
    18  H    0.148942
    19  H    0.181768
    20  H    0.147272
    21  C   -0.170455
    22  C   -0.219574
    23  C   -0.172828
    24  C    0.156940
    25  C   -0.170382
    26  C   -0.218797
    27  H    0.225760
    28  H    0.223840
    29  H    0.279918
    30  H    0.275655
    31  H    0.223561
    32  N    0.492908
    33  O   -0.459999
    34  O   -0.465059
 Sum of Mulliken charges =  -0.00000

 Dipole moment (field-independent basis, Debye):
    X=              3.8098    Y=             -3.5057    Z=             -0.6499  Tot=              5.2179
 Quadrupole moment (field-independent basis, Debye-Ang):
   XX=            -68.9580   YY=            -95.2271   ZZ=            -95.7079
   XY=             -8.5581   XZ=             -3.5235   YZ=             -0.4677

 Normal termination of Gaussian 16 at Thu May  6 20:16:49 2021.
