 Gaussian 16, Revision A.03,
 Gaussian 16:  EM64L-G16RevA.03 25-Dec-2016

 -------------
 #p 6-31g* mp2
 -------------

 ------------------------------------------------------
 Input file generated by CHIRIPA (05-May-2021 14:53:17)
 ------------------------------------------------------
 Symbolic Z-matrix:
 Charge =  0 Multiplicity = 1

                         Standard orientation:
 ---------------------------------------------------------------------
 Center     Atomic      Atomic             Coordinates (Angstroms)
 Number     Number       Type             X           Y           Z
 ---------------------------------------------------------------------
      1          6           0        2.803893    1.463795   -0.284496
      2          6           0        1.469230    2.056876    0.168179
      3          6           0        1.341715    3.544705   -0.160300
      4          1           0        3.624396    2.017585    0.191989
      5          1           0        2.914442    1.611890   -1.367658
      6          1           0        1.360608    1.906477    1.249935
      7          1           0        0.651805    1.501487   -0.309289
      8          1           0        1.424141    3.709398   -1.239505
      9          1           0        2.136971    4.116689    0.328579
     10          1           0        0.380152    3.948229    0.172003
     11          6           0        2.946322   -0.022862    0.036899
     12          6           0        4.280986   -0.615943   -0.415776
     13          6           0        4.408501   -2.103772   -0.087296
     14          1           0        2.835774   -0.170957    1.120062
     15          1           0        2.125820   -0.576651   -0.439585
     16          1           0        5.098410   -0.060553    0.061693
     17          1           0        4.389607   -0.465543   -1.497532
     18          1           0        3.613244   -2.675755   -0.576175
     19          1           0        4.326074   -2.268464    0.991908
     20          1           0        5.370063   -2.507296   -0.419600
     21          6           0       -3.729341    1.464491   -0.139878
     22          6           0       -4.084746    0.261173   -0.758129
     23          6           0       -3.270546   -0.868505   -0.633813
     24          6           0       -2.102791   -0.758862    0.119591
     25          6           0       -1.721564    0.425897    0.747526
     26          6           0       -2.550962    1.542875    0.609655
     27          1           0       -4.367734    2.337119   -0.241714
     28          1           0       -4.999309    0.197383   -1.340840
     29          1           0       -3.521751   -1.812547   -1.101892
     30          1           0       -0.803750    0.458741    1.321944
     31          1           0       -2.272441    2.476079    1.090902
     32          7           0       -1.232789   -1.948079    0.258374
     33          8           0       -0.209174   -1.825526    0.927573
     34          8           0       -1.590972   -2.980221   -0.304675
 ---------------------------------------------------------------------

 SCF Done:  E(RHF) =  -669.534602328     A.U. after   15 cycles
 E2 =    -0.2093977998D+01 EUMP2 =    -0.67162858032633D+03

 The electronic state is 1-A.
 Alpha  occ. eigenvalues --  -20.60871 -20.60847 -15.85887 -11.31193 -11.27789
 Alpha  occ. eigenvalues --  -11.27705 -11.27524 -11.26778 -11.26758 -11.21776
 Alpha  occ. eigenvalues --  -11.21425 -11.21163 -11.20949 -11.20626 -11.20214
 Alpha  occ. eigenvalues --   -1.59925  -1.39479  -1.19386  -1.08787  -1.08108
 Alpha  occ. eigenvalues --   -1.04784  -1.03253  -0.95670  -0.95630  -0.86704
 Alpha  occ. eigenvalues --   -0.86171  -0.82463  -0.79458  -0.77905  -0.77381
 Alpha  occ. eigenvalues --   -0.72104  -0.71243  -0.70492  -0.65034  -0.64804
 Alpha  occ. eigenvalues --   -0.64721  -0.62159  -0.60656  -0.59131  -0.57264
 Alpha  occ. eigenvalues --   -0.55283  -0.54940  -0.53141  -0.52915  -0.52432
 Alpha  occ. eigenvalues --   -0.52030  -0.49603  -0.48875  -0.48868  -0.47654
 Alpha  occ. eigenvalues --   -0.46462  -0.45549  -0.45257  -0.44579  -0.43460
 Alpha  occ. eigenvalues --   -0.37369  -0.36310
 Alpha virt. eigenvalues --    0.04982   0.11218   0.16390   0.20496   0.23232
 Alpha virt. eigenvalues --    0.24311   0.25720   0.26678   0.27384   0.28421
 Alpha virt. eigenvalues --    0.29371   0.30696   0.31555   0.32023   0.33025

 Mulliken charges:
               1
     1  C   -0.297677
     2  C   -0.308067
     3  C   -0.473306
     4  H    0.148077
     5  H    0.148619
     6  H    0.145983
     7  H    0.156334
     8  H    0.157697
     9  H    0.157453
    10  H    0.149835
    11  C   -0.299938
    12  C   -0.300330
    13  C   -0.475132
    14  H    0.152637
    15  H    0.161402
    16  H    0.147892
    17  H    0.148689
    18  H    0.162880
    19  H    0.157147
    20  H    0.155843
    21  C   -0.170222
    22  C   -0.219041
    23  C   -0.170617
    24  C    0.156070
    25  C   -0.172602
    26  C   -0.221488
    27  H    0.225786
    28  H    0.223408
    29  H    0.275454
    30  H    0.283825
    31  H    0.224679
    32  N    0.487876
    33  O   -0.459097
    34  O   -0.460070
 Sum of Mulliken charges =  -0.00000

 Dipole moment (field-independent basis, Debye):
    X=             -3.1032    Y=              4.0054    Z=             -0.4861  Tot=              5.0901
 Quadrupole moment (field-independent basis, Debye-Ang):
   XX=            -80.5473   YY=           -101.5954   ZZ=            -93.1082
   XY=             -4.5751   XZ=              3.1873   YZ=              2.8968

 Normal termination of Gaussian 16 at Thu May  6 18:56:24 2021.
