 Gaussian 16, Revision A.03,
 Gaussian 16:  EM64L-G16RevA.03 25-Dec-2016

 -------------
 #p 6-31g* mp2
 -------------

 ------------------------------------------------------
 Input file generated by CHIRIPA (05-May-2021 14:51:09)
 ------------------------------------------------------
 Symbolic Z-matrix:
 Charge =  0 Multiplicity = 1

                         Standard orientation:
 ---------------------------------------------------------------------
 Center     Atomic      Atomic             Coordinates (Angstroms)
 Number     Number       Type             X           Y           Z
 ---------------------------------------------------------------------
      1          6           0        4.604641   -0.400989   -0.324300
      2          6           0        4.667307   -1.737238    0.416306
      3          6           0        5.614288   -2.737295   -0.247704
      4          1           0        4.285479   -0.577959   -1.360525
      5          1           0        5.614609    0.028596   -0.377354
      6          1           0        3.657301   -2.163513    0.469158
      7          1           0        4.986172   -1.557046    1.450942
      8          1           0        6.632294   -2.336371   -0.286761
      9          1           0        5.295872   -2.946284   -1.274123
     10          1           0        5.643812   -3.685515    0.298068
     11          6           0        3.662088    0.609244    0.327429
     12          6           0        3.599421    1.945493   -0.413177
     13          6           0        2.652441    2.945550    0.250833
     14          1           0        2.652119    0.179659    0.380483
     15          1           0        3.981250    0.786214    1.363654
     16          1           0        3.280557    1.765301   -1.447813
     17          1           0        4.609428    2.371768   -0.466029
     18          1           0        2.970857    3.154539    1.277252
     19          1           0        1.634435    2.544626    0.289890
     20          1           0        2.622917    3.893770   -0.294939
     21          6           0       -3.417728   -0.262852    0.213154
     22          6           0       -2.398463    0.773799   -0.260592
     23          6           0       -0.971335    0.442420    0.176770
     24          1           0       -3.375817   -0.334929    1.308596
     25          1           0       -3.133906   -1.250413   -0.176156
     26          1           0       -2.684893    1.759344    0.128351
     27          1           0       -2.442942    0.843555   -1.355020
     28          1           0       -0.661385   -0.528356   -0.223387
     29          1           0       -0.904712    0.392636    1.268412
     30          1           0       -0.259081    1.196427   -0.172556
     31          6           0       -4.849000    0.054597   -0.216284
     32          6           0       -5.868265   -0.982055    0.257463
     33          6           0       -7.295395   -0.650675   -0.179898
     34          1           0       -5.132822    1.042159    0.173027
     35          1           0       -4.890912    0.126674   -1.311725
     36          1           0       -5.823787   -1.051810    1.351891
     37          1           0       -5.581835   -1.967599   -0.131481
     38          1           0       -7.362018   -0.600891   -1.271541
     39          1           0       -7.605343    0.320101    0.220259
     40          1           0       -8.007647   -1.404681    0.169427
 ---------------------------------------------------------------------

 SCF Done:  E(RHF) =  -470.733311052     A.U. after   11 cycles
 E2 =    -0.1582515130D+01 EUMP2 =    -0.47231582618241D+03

 The electronic state is 1-A.
 Alpha  occ. eigenvalues --  -11.21654 -11.21621 -11.21562 -11.21556 -11.21437
 Alpha  occ. eigenvalues --  -11.21376 -11.21347 -11.21282 -11.21147 -11.21086
 Alpha  occ. eigenvalues --  -11.21043 -11.21014  -1.08465  -1.08379  -1.03574
 Alpha  occ. eigenvalues --   -1.03484  -0.96031  -0.95931  -0.87054  -0.86944
 Alpha  occ. eigenvalues --   -0.79653  -0.79531  -0.78277  -0.78185  -0.65093
 Alpha  occ. eigenvalues --   -0.65016  -0.60967  -0.60925  -0.59434  -0.59265
 Alpha  occ. eigenvalues --   -0.57686  -0.57501  -0.55322  -0.55219  -0.52774
 Alpha  occ. eigenvalues --   -0.52633  -0.52483  -0.52286  -0.49977  -0.49853
 Alpha  occ. eigenvalues --   -0.47975  -0.47832  -0.46663  -0.46576  -0.45826
 Alpha  occ. eigenvalues --   -0.45740  -0.45731  -0.45652  -0.43784  -0.43731
 Alpha virt. eigenvalues --    0.21388   0.22974   0.23618   0.24858   0.26029
 Alpha virt. eigenvalues --    0.26618   0.27221   0.27254   0.27893   0.28909
 Alpha virt. eigenvalues --    0.30251   0.31386   0.31619   0.31798   0.32007

 Mulliken charges:
               1
     1  C   -0.298190
     2  C   -0.299623
     3  C   -0.475667
     4  H    0.149452
     5  H    0.149294
     6  H    0.152071
     7  H    0.151864
     8  H    0.155101
     9  H    0.155042
    10  H    0.160113
    11  C   -0.300997
    12  C   -0.299007
    13  C   -0.482535
    14  H    0.153329
    15  H    0.149335
    16  H    0.151472
    17  H    0.151756
    18  H    0.155262
    19  H    0.161154
    20  H    0.159874
    21  C   -0.298732
    22  C   -0.299466
    23  C   -0.482901
    24  H    0.149853
    25  H    0.149512
    26  H    0.152492
    27  H    0.152041
    28  H    0.155006
    29  H    0.156129
    30  H    0.166541
    31  C   -0.298275
    32  C   -0.299662
    33  C   -0.475726
    34  H    0.149680
    35  H    0.149687
    36  H    0.152020
    37  H    0.151932
    38  H    0.155198
    39  H    0.155249
    40  H    0.160324
 Sum of Mulliken charges =  -0.00000

 Dipole moment (field-independent basis, Debye):
    X=             -0.0414    Y=             -0.0069    Z=              0.0085  Tot=              0.0428
 Quadrupole moment (field-independent basis, Debye-Ang):
   XX=            -85.8417   YY=            -85.1591   ZZ=            -83.8872
   XY=              0.8035   XZ=              0.3166   YZ=              0.4086

 Normal termination of Gaussian 16 at Thu May  6 02:10:44 2021.
