 Gaussian 16, Revision A.03,
 Gaussian 16:  EM64L-G16RevA.03 25-Dec-2016

 -------------
 #p 6-31g* mp2
 -------------

 ------------------------------------------------------
 Input file generated by CHIRIPA (05-May-2021 14:53:14)
 ------------------------------------------------------
 Symbolic Z-matrix:
 Charge =  0 Multiplicity = 1

                         Standard orientation:
 ---------------------------------------------------------------------
 Center     Atomic      Atomic             Coordinates (Angstroms)
 Number     Number       Type             X           Y           Z
 ---------------------------------------------------------------------
      1          6           0        3.557237    0.389147   -0.137543
      2          6           0        3.617852   -0.999580    0.499442
      3          6           0        5.040525   -1.555015    0.572154
      4          1           0        3.985720    0.341104   -1.148008
      5          1           0        4.191453    1.077128    0.438518
      6          1           0        2.982619   -1.684412   -0.076839
      7          1           0        3.189000   -0.948266    1.508436
      8          1           0        5.682094   -0.894640    1.164518
      9          1           0        5.474541   -1.634969   -0.429764
     10          1           0        5.060669   -2.548508    1.030875
     11          6           0        2.141609    0.957796   -0.217308
     12          6           0        2.080994    2.346523   -0.854293
     13          6           0        0.658321    2.901957   -0.927005
     14          1           0        1.507393    0.269815   -0.793369
     15          1           0        1.713126    1.005839    0.793156
     16          1           0        2.509846    2.295209   -1.863287
     17          1           0        2.716227    3.031355   -0.278012
     18          1           0        0.224305    2.981912    0.074912
     19          1           0        0.016751    2.241583   -1.519370
     20          1           0        0.638176    3.895451   -1.385726
     21          6           0       -3.210406    1.683095    0.857173
     22          6           0       -1.909644    1.338886    1.239352
     23          6           0       -1.354078    0.117440    0.846971
     24          6           0       -2.130953   -0.739731    0.069146
     25          6           0       -3.429805   -0.425330   -0.327623
     26          6           0       -3.965004    0.801443    0.076282
     27          1           0       -3.634072    2.634013    1.166461
     28          1           0       -1.321296    2.021624    1.845785
     29          1           0       -0.349605   -0.174219    1.128727
     30          1           0       -3.991887   -1.126618   -0.932337
     31          1           0       -4.975459    1.066120   -0.222002
     32          7           0       -1.553581   -2.035641   -0.352350
     33          8           0       -2.258621   -2.773332   -1.037454
     34          8           0       -0.406930   -2.289145    0.010365
 ---------------------------------------------------------------------

 SCF Done:  E(RHF) =  -669.534120570     A.U. after   15 cycles
 E2 =    -0.2094587179D+01 EUMP2 =    -0.67162870774854D+03

 The electronic state is 1-A.
 Alpha  occ. eigenvalues --  -20.60820 -20.60814 -15.85853 -11.31139 -11.27713
 Alpha  occ. eigenvalues --  -11.27632 -11.27447 -11.26720 -11.26694 -11.21791
 Alpha  occ. eigenvalues --  -11.21527 -11.21362 -11.21250 -11.21128 -11.20689
 Alpha  occ. eigenvalues --   -1.59884  -1.39438  -1.19318  -1.08730  -1.08410
 Alpha  occ. eigenvalues --   -1.04719  -1.03452  -0.95956  -0.95571  -0.86987
 Alpha  occ. eigenvalues --   -0.86104  -0.82418  -0.79566  -0.78280  -0.77381
 Alpha  occ. eigenvalues --   -0.72071  -0.71201  -0.70424  -0.65098  -0.64927
 Alpha  occ. eigenvalues --   -0.64747  -0.62094  -0.60833  -0.59336  -0.57563
 Alpha  occ. eigenvalues --   -0.55281  -0.55216  -0.53164  -0.52919  -0.52602
 Alpha  occ. eigenvalues --   -0.52171  -0.49900  -0.48838  -0.48827  -0.47829
 Alpha  occ. eigenvalues --   -0.46591  -0.45747  -0.45622  -0.44780  -0.43729
 Alpha  occ. eigenvalues --   -0.37296  -0.36214
 Alpha virt. eigenvalues --    0.05046   0.11232   0.16449   0.20295   0.23175
 Alpha virt. eigenvalues --    0.24178   0.25161   0.26641   0.27197   0.28488
 Alpha virt. eigenvalues --    0.29549   0.30762   0.31624   0.32000   0.32427

 Mulliken charges:
               1
     1  C   -0.297797
     2  C   -0.303400
     3  C   -0.475946
     4  H    0.151204
     5  H    0.146842
     6  H    0.169443
     7  H    0.147717
     8  H    0.151795
     9  H    0.155003
    10  H    0.162524
    11  C   -0.302650
    12  C   -0.299369
    13  C   -0.474513
    14  H    0.161344
    15  H    0.135483
    16  H    0.154984
    17  H    0.150721
    18  H    0.145158
    19  H    0.159404
    20  H    0.159409
    21  C   -0.171410
    22  C   -0.216565
    23  C   -0.170153
    24  C    0.155654
    25  C   -0.171055
    26  C   -0.218969
    27  H    0.225469
    28  H    0.222076
    29  H    0.282377
    30  H    0.275100
    31  H    0.223177
    32  N    0.488644
    33  O   -0.459984
    34  O   -0.461719
 Sum of Mulliken charges =  -0.00000

 Dipole moment (field-independent basis, Debye):
    X=             -2.0186    Y=              4.4133    Z=              1.3659  Tot=              5.0416
 Quadrupole moment (field-independent basis, Debye-Ang):
   XX=            -83.7224   YY=           -102.2241   ZZ=            -93.2200
   XY=             -7.1192   XZ=             -1.3048   YZ=              0.2686

 Normal termination of Gaussian 16 at Thu May  6 02:39:55 2021.
