 Gaussian 16, Revision A.03,
 Gaussian 16:  EM64L-G16RevA.03 25-Dec-2016

 -------------
 #p 6-31g* mp2
 -------------

 ------------------------------------------------------
 Input file generated by CHIRIPA (05-May-2021 14:53:16)
 ------------------------------------------------------
 Symbolic Z-matrix:
 Charge =  0 Multiplicity = 1

                         Standard orientation:
 ---------------------------------------------------------------------
 Center     Atomic      Atomic             Coordinates (Angstroms)
 Number     Number       Type             X           Y           Z
 ---------------------------------------------------------------------
      1          6           0        3.876457   -0.639954    0.036205
      2          6           0        4.927742   -1.589526   -0.539206
      3          6           0        4.541625   -3.061108   -0.387046
      4          1           0        3.724049   -0.872517    1.099046
      5          1           0        2.915300   -0.821457   -0.464424
      6          1           0        5.886957   -1.405334   -0.038610
      7          1           0        5.077805   -1.354550   -1.600753
      8          1           0        3.597562   -3.266893   -0.901826
      9          1           0        4.411312   -3.317966    0.669194
     10          1           0        5.307107   -3.722302   -0.805043
     11          6           0        4.248174    0.834713   -0.108395
     12          6           0        3.196889    1.784285    0.467016
     13          6           0        3.583006    3.255867    0.314856
     14          1           0        5.209331    1.016216    0.392234
     15          1           0        4.400582    1.067276   -1.171236
     16          1           0        3.046827    1.549309    1.528563
     17          1           0        2.237674    1.600093   -0.033580
     18          1           0        3.713319    3.512725   -0.741384
     19          1           0        4.527070    3.461652    0.829636
     20          1           0        2.817524    3.917061    0.732852
     21          6           0       -0.673038    0.070367    0.330271
     22          6           0       -1.390679   -0.970389    0.928885
     23          6           0       -2.776487   -1.061442    0.768274
     24          6           0       -3.415437   -0.090236   -0.001004
     25          6           0       -2.728284    0.958631   -0.610092
     26          6           0       -1.342950    1.029864   -0.435957
     27          1           0        0.403307    0.133400    0.460290
     28          1           0       -0.873052   -1.716956    1.524490
     29          1           0       -3.356635   -1.856628    1.220519
     30          1           0       -3.272054    1.687998   -1.198103
     31          1           0       -0.788196    1.839233   -0.902021
     32          7           0       -4.882279   -0.176138   -0.178195
     33          8           0       -5.421747    0.692033   -0.860756
     34          8           0       -5.464747   -1.110012    0.368842
 ---------------------------------------------------------------------

 SCF Done:  E(RHF) =  -669.535537236     A.U. after   15 cycles
 E2 =    -0.2091572912D+01 EUMP2 =    -0.67162711014788D+03

 The electronic state is 1-A.
 Alpha  occ. eigenvalues --  -20.60706 -20.60701 -15.85760 -11.31107 -11.27683
 Alpha  occ. eigenvalues --  -11.27676 -11.27346 -11.26682 -11.26667 -11.22903
 Alpha  occ. eigenvalues --  -11.22519 -11.22443 -11.22417 -11.22077 -11.21816
 Alpha  occ. eigenvalues --   -1.59782  -1.39336  -1.19277  -1.09501  -1.08667
 Alpha  occ. eigenvalues --   -1.04682  -1.04527  -0.96943  -0.95509  -0.87961
 Alpha  occ. eigenvalues --   -0.86077  -0.82350  -0.80625  -0.79341  -0.77399
 Alpha  occ. eigenvalues --   -0.71977  -0.71106  -0.70385  -0.66123  -0.64926
 Alpha  occ. eigenvalues --   -0.64686  -0.62046  -0.61906  -0.60328  -0.58569
 Alpha  occ. eigenvalues --   -0.56216  -0.55198  -0.53615  -0.53365  -0.53008
 Alpha  occ. eigenvalues --   -0.52771  -0.50885  -0.48915  -0.48734  -0.48732
 Alpha  occ. eigenvalues --   -0.47657  -0.46828  -0.46766  -0.44791  -0.44746
 Alpha  occ. eigenvalues --   -0.37245  -0.36293
 Alpha virt. eigenvalues --    0.05132   0.11363   0.16596   0.19309   0.22458
 Alpha virt. eigenvalues --    0.23353   0.24940   0.25498   0.26471   0.27492
 Alpha virt. eigenvalues --    0.29441   0.30667   0.30843   0.31073   0.31505

 Mulliken charges:
               1
     1  C   -0.302178
     2  C   -0.300028
     3  C   -0.476742
     4  H    0.148920
     5  H    0.145310
     6  H    0.154836
     7  H    0.154534
     8  H    0.155375
     9  H    0.155023
    10  H    0.163870
    11  C   -0.298128
    12  C   -0.304590
    13  C   -0.476171
    14  H    0.154285
    15  H    0.152705
    16  H    0.153686
    17  H    0.142467
    18  H    0.157442
    19  H    0.159858
    20  H    0.161972
    21  C   -0.178799
    22  C   -0.220229
    23  C   -0.170693
    24  C    0.158022
    25  C   -0.170812
    26  C   -0.221663
    27  H    0.238044
    28  H    0.223752
    29  H    0.275227
    30  H    0.275225
    31  H    0.222809
    32  N    0.488056
    33  O   -0.460734
    34  O   -0.460650
 Sum of Mulliken charges =  -0.00000

 Dipole moment (field-independent basis, Debye):
    X=              5.4960    Y=              0.3258    Z=              0.6217  Tot=              5.5406
 Quadrupole moment (field-independent basis, Debye-Ang):
   XX=           -129.2842   YY=            -92.4304   ZZ=            -92.9079
   XY=             -1.4479   XZ=             -1.8359   YZ=             -2.6943

 Normal termination of Gaussian 16 at Thu May  6 01:08:55 2021.
