 Gaussian 16, Revision A.03,
 Gaussian 16:  EM64L-G16RevA.03 25-Dec-2016

 -------------
 #p 6-31g* mp2
 -------------

 ------------------------------------------------------
 Input file generated by CHIRIPA (05-May-2021 14:55:20)
 ------------------------------------------------------
 Symbolic Z-matrix:
 Charge =  0 Multiplicity = 1

                         Standard orientation:
 ---------------------------------------------------------------------
 Center     Atomic      Atomic             Coordinates (Angstroms)
 Number     Number       Type             X           Y           Z
 ---------------------------------------------------------------------
      1          6           0        4.915951   -2.108940   -0.118840
      2          6           0        3.606874   -2.065473    0.372025
      3          6           0        2.905947   -0.856734    0.418930
      4          6           0        3.547522    0.294537   -0.035215
      5          6           0        4.850810    0.283591   -0.529797
      6          6           0        5.532654   -0.936336   -0.567393
      7          1           0        5.453036   -3.052263   -0.151662
      8          1           0        3.125424   -2.974557    0.721047
      9          1           0        1.891640   -0.794528    0.794069
     10          1           0        5.304294    1.206402   -0.870664
     11          1           0        6.549210   -0.967101   -0.949116
     12          7           0        2.815584    1.580097    0.009515
     13          8           0        3.403142    2.580361   -0.396544
     14          8           0        1.668191    1.563113    0.449785
     15          6           0       -5.425940    0.024178    0.235094
     16          6           0       -6.412403   -0.526756   -0.795123
     17          6           0       -7.870216   -0.258885   -0.419862
     18          1           0       -5.641731   -0.422435    1.215357
     19          1           0       -5.584978    1.106085    0.342702
     20          1           0       -6.250621   -1.607066   -0.901772
     21          1           0       -6.194116   -0.078924   -1.773087
     22          1           0       -8.054186    0.816836   -0.332800
     23          1           0       -8.111013   -0.719987    0.543466
     24          1           0       -8.558276   -0.661129   -1.169951
     25          6           0       -3.964536   -0.235790   -0.126073
     26          6           0       -2.978073    0.315144    0.904145
     27          6           0       -1.520260    0.047273    0.528884
     28          1           0       -3.805497   -1.317697   -0.233680
     29          1           0       -3.748745    0.210823   -1.106336
     30          1           0       -3.196360   -0.132688    1.882109
     31          1           0       -3.139855    1.395454    1.010792
     32          1           0       -1.279464    0.508376   -0.434445
     33          1           0       -1.336290   -1.028448    0.441822
     34          1           0       -0.832200    0.449517    1.278973
 ---------------------------------------------------------------------

 SCF Done:  E(RHF) =  -669.535766261     A.U. after   15 cycles
 E2 =    -0.2091085988D+01 EUMP2 =    -0.67162685224981D+03

 The electronic state is 1-A.
 Alpha  occ. eigenvalues --  -20.60805 -20.60799 -15.85847 -11.31187 -11.27763
 Alpha  occ. eigenvalues --  -11.27738 -11.27507 -11.26775 -11.26762 -11.21325
 Alpha  occ. eigenvalues --  -11.21035 -11.21011 -11.20923 -11.20836 -11.20263
 Alpha  occ. eigenvalues --   -1.59877  -1.39431  -1.19363  -1.08766  -1.08014
 Alpha  occ. eigenvalues --   -1.04762  -1.03072  -0.95629  -0.95487  -0.86532
 Alpha  occ. eigenvalues --   -0.86161  -0.82438  -0.79155  -0.77836  -0.77469
 Alpha  occ. eigenvalues --   -0.72078  -0.71193  -0.70473  -0.65021  -0.64768
 Alpha  occ. eigenvalues --   -0.64648  -0.62109  -0.60472  -0.58875  -0.57114
 Alpha  occ. eigenvalues --   -0.55271  -0.54808  -0.53095  -0.52863  -0.52159
 Alpha  occ. eigenvalues --   -0.51944  -0.49476  -0.48827  -0.48807  -0.47460
 Alpha  occ. eigenvalues --   -0.46198  -0.45372  -0.45301  -0.44818  -0.43298
 Alpha  occ. eigenvalues --   -0.37348  -0.36365
 Alpha virt. eigenvalues --    0.05035   0.11286   0.16526   0.21131   0.23257
 Alpha virt. eigenvalues --    0.24536   0.26309   0.27081   0.27690   0.27903
 Alpha virt. eigenvalues --    0.29205   0.30558   0.31654   0.31872   0.32334

 Mulliken charges:
               1
     1  C   -0.170491
     2  C   -0.219662
     3  C   -0.172550
     4  C    0.157034
     5  C   -0.170752
     6  C   -0.218813
     7  H    0.225561
     8  H    0.223701
     9  H    0.281152
    10  H    0.275474
    11  H    0.223382
    12  N    0.492195
    13  O   -0.460281
    14  O   -0.464360
    15  C   -0.297931
    16  C   -0.299241
    17  C   -0.475479
    18  H    0.148340
    19  H    0.150401
    20  H    0.150399
    21  H    0.152050
    22  H    0.155539
    23  H    0.154473
    24  H    0.159214
    25  C   -0.297904
    26  C   -0.300670
    27  C   -0.478207
    28  H    0.146005
    29  H    0.150313
    30  H    0.147860
    31  H    0.155432
    32  H    0.162288
    33  H    0.139965
    34  H    0.175564
 Sum of Mulliken charges =  -0.00000

 Dipole moment (field-independent basis, Debye):
    X=              2.7201    Y=             -4.4008    Z=             -0.1532  Tot=              5.1759
 Quadrupole moment (field-independent basis, Debye-Ang):
   XX=            -75.4096   YY=            -96.0984   ZZ=            -94.5722
   XY=            -13.5908   XZ=             -2.3395   YZ=             -1.3758

 Normal termination of Gaussian 16 at Wed May  5 18:53:39 2021.
