 Gaussian 16, Revision A.03,
 Gaussian 16:  EM64L-G16RevA.03 25-Dec-2016

 -------------
 #p 6-31g* mp2
 -------------

 ------------------------------------------------------
 Input file generated by CHIRIPA (05-May-2021 14:53:18)
 ------------------------------------------------------
 Symbolic Z-matrix:
 Charge =  0 Multiplicity = 1

                         Standard orientation:
 ---------------------------------------------------------------------
 Center     Atomic      Atomic             Coordinates (Angstroms)
 Number     Number       Type             X           Y           Z
 ---------------------------------------------------------------------
      1          6           0       -3.513612   -0.020119   -0.338725
      2          6           0       -2.753528    1.300340   -0.209709
      3          6           0       -1.265616    1.159940   -0.532507
      4          1           0       -3.060256   -0.763757    0.330914
      5          1           0       -3.393970   -0.405682   -1.360695
      6          1           0       -2.875713    1.683994    0.811318
      7          1           0       -3.208866    2.040975   -0.879591
      8          1           0       -1.125959    0.800348   -1.557100
      9          1           0       -0.790914    0.441339    0.143416
     10          1           0       -0.741510    2.115695   -0.433993
     11          6           0       -5.002304    0.104073   -0.019195
     12          6           0       -5.762388   -1.216387   -0.148212
     13          6           0       -7.250300   -1.075986    0.174587
     14          1           0       -5.121946    0.489636    1.002774
     15          1           0       -5.455660    0.847710   -0.688834
     16          1           0       -5.307050   -1.957022    0.521671
     17          1           0       -5.640203   -1.600041   -1.169238
     18          1           0       -7.725002   -0.357386   -0.501337
     19          1           0       -7.389957   -0.716395    1.199180
     20          1           0       -7.774406   -2.031742    0.076072
     21          6           0        2.050688    2.092079    0.612109
     22          6           0        1.855409    0.964780    1.416834
     23          6           0        2.556891   -0.217910    1.164415
     24          6           0        3.449873   -0.238219    0.094153
     25          6           0        3.666271    0.868302   -0.725647
     26          6           0        2.953903    2.040333   -0.454683
     27          1           0        1.501531    3.006681    0.815398
     28          1           0        1.154599    1.002076    2.246003
     29          1           0        2.424980   -1.105306    1.771494
     30          1           0        4.371611    0.800672   -1.545001
     31          1           0        3.107579    2.914270   -1.081311
     32          7           0        4.198264   -1.484638   -0.182889
     33          8           0        4.979293   -1.476821   -1.131872
     34          8           0        3.989650   -2.445797    0.554194
 ---------------------------------------------------------------------

 SCF Done:  E(RHF) =  -669.534218064     A.U. after   15 cycles
 E2 =    -0.2092449733D+01 EUMP2 =    -0.67162666779764D+03

 The electronic state is 1-A.
 Alpha  occ. eigenvalues --  -20.60742 -20.60737 -15.85797 -11.31156 -11.27735
 Alpha  occ. eigenvalues --  -11.27731 -11.27471 -11.26747 -11.26732 -11.22076
 Alpha  occ. eigenvalues --  -11.21843 -11.21764 -11.21679 -11.21543 -11.21280
 Alpha  occ. eigenvalues --   -1.59818  -1.39372  -1.19341  -1.08802  -1.08726
 Alpha  occ. eigenvalues --   -1.04751  -1.03893  -0.96350  -0.95567  -0.87365
 Alpha  occ. eigenvalues --   -0.86142  -0.82408  -0.79960  -0.78588  -0.77449
 Alpha  occ. eigenvalues --   -0.72016  -0.71141  -0.70469  -0.65427  -0.64996
 Alpha  occ. eigenvalues --   -0.64756  -0.62103  -0.61294  -0.59749  -0.57959
 Alpha  occ. eigenvalues --   -0.55659  -0.55266  -0.53469  -0.52858  -0.52782
 Alpha  occ. eigenvalues --   -0.52607  -0.50257  -0.48775  -0.48770  -0.48270
 Alpha  occ. eigenvalues --   -0.46993  -0.46129  -0.46054  -0.44779  -0.44164
 Alpha  occ. eigenvalues --   -0.37223  -0.36315
 Alpha virt. eigenvalues --    0.05061   0.11284   0.16445   0.20712   0.22670
 Alpha virt. eigenvalues --    0.24107   0.26240   0.26805   0.27036   0.27407
 Alpha virt. eigenvalues --    0.28747   0.30152   0.31182   0.31668   0.32472

 Mulliken charges:
               1
     1  C   -0.298488
     2  C   -0.300487
     3  C   -0.473783
     4  H    0.149489
     5  H    0.151688
     6  H    0.147768
     7  H    0.152242
     8  H    0.158669
     9  H    0.156943
    10  H    0.150280
    11  C   -0.298307
    12  C   -0.299969
    13  C   -0.475873
    14  H    0.148605
    15  H    0.149969
    16  H    0.152461
    17  H    0.153055
    18  H    0.155328
    19  H    0.154911
    20  H    0.161413
    21  C   -0.165449
    22  C   -0.215911
    23  C   -0.172526
    24  C    0.158823
    25  C   -0.170554
    26  C   -0.219562
    27  H    0.225071
    28  H    0.223258
    29  H    0.275276
    30  H    0.275515
    31  H    0.223279
    32  N    0.488109
    33  O   -0.460573
    34  O   -0.460668
 Sum of Mulliken charges =  -0.00000

 Dipole moment (field-independent basis, Debye):
    X=             -2.6639    Y=              4.3642    Z=              0.9424  Tot=              5.1991
 Quadrupole moment (field-independent basis, Debye-Ang):
   XX=           -113.6798   YY=            -96.4991   ZZ=            -90.9656
   XY=             17.1986   XZ=              1.6006   YZ=             -1.9907

 Normal termination of Gaussian 16 at Thu May  6 12:20:36 2021.
