 Gaussian 16, Revision A.03,
 Gaussian 16:  EM64L-G16RevA.03 25-Dec-2016

 -------------
 #p 6-31g* mp2
 -------------

 ------------------------------------------------------
 Input file generated by CHIRIPA (05-May-2021 14:51:09)
 ------------------------------------------------------
 Symbolic Z-matrix:
 Charge =  0 Multiplicity = 1

                         Standard orientation:
 ---------------------------------------------------------------------
 Center     Atomic      Atomic             Coordinates (Angstroms)
 Number     Number       Type             X           Y           Z
 ---------------------------------------------------------------------
      1          6           0        3.275823    0.828780   -0.394630
      2          6           0        3.191962    1.777586    0.801496
      3          6           0        3.865638    3.124273    0.536182
      4          1           0        4.331283    0.667709   -0.653485
      5          1           0        2.809606    1.307505   -1.266902
      6          1           0        3.656967    1.296657    1.671607
      7          1           0        2.136585    1.936266    1.057654
      8          1           0        3.397032    3.628333   -0.315248
      9          1           0        4.926052    2.985090    0.302194
     10          1           0        3.793901    3.786988    1.404238
     11          6           0        2.606800   -0.521663   -0.144751
     12          6           0        2.690662   -1.470469   -1.340877
     13          6           0        2.016986   -2.817155   -1.075563
     14          1           0        3.073018   -1.000388    0.727521
     15          1           0        1.551341   -0.360592    0.114104
     16          1           0        3.746038   -1.629149   -1.597035
     17          1           0        2.225657   -0.989540   -2.210988
     18          1           0        0.956572   -2.677973   -0.841575
     19          1           0        2.485592   -3.321216   -0.224133
     20          1           0        2.088723   -3.479871   -1.943619
     21          6           0       -3.228160    0.202608   -0.342107
     22          6           0       -4.340110    1.194882   -0.000134
     23          6           0       -4.903874    1.899450   -1.234456
     24          1           0       -2.420122    0.732868   -0.864451
     25          1           0       -3.617633   -0.545387   -1.046528
     26          1           0       -3.949043    1.939976    0.704506
     27          1           0       -5.145509    0.662233    0.521627
     28          1           0       -5.319988    1.170706   -1.937579
     29          1           0       -4.116724    2.455708   -1.753660
     30          1           0       -5.697385    2.604213   -0.967043
     31          6           0       -2.654464   -0.509725    0.881487
     32          6           0       -1.542514   -1.501999    0.539516
     33          6           0       -0.978750   -2.206567    1.773837
     34          1           0       -2.264990    0.238270    1.585909
     35          1           0       -3.462501   -1.039986    1.403832
     36          1           0       -0.737115   -0.969351    0.017755
     37          1           0       -1.933581   -2.247093   -0.165125
     38          1           0       -1.765900   -2.762825    2.293041
     39          1           0       -0.562636   -1.477823    2.476959
     40          1           0       -0.185239   -2.911330    1.506424
 ---------------------------------------------------------------------

 SCF Done:  E(RHF) =  -470.732582442     A.U. after   11 cycles
 E2 =    -0.1584130217D+01 EUMP2 =    -0.47231671265879D+03

 The electronic state is 1-A.
 Alpha  occ. eigenvalues --  -11.21636 -11.21633 -11.21629 -11.21595 -11.21445
 Alpha  occ. eigenvalues --  -11.21410 -11.21386 -11.21345 -11.21098 -11.21094
 Alpha  occ. eigenvalues --  -11.21040 -11.21010  -1.08492  -1.08421  -1.03607
 Alpha  occ. eigenvalues --   -1.03493  -0.96029  -0.95957  -0.87036  -0.86981
 Alpha  occ. eigenvalues --   -0.79684  -0.79563  -0.78367  -0.78181  -0.65257
 Alpha  occ. eigenvalues --   -0.64950  -0.61112  -0.60826  -0.59506  -0.59232
 Alpha  occ. eigenvalues --   -0.57777  -0.57434  -0.55306  -0.55244  -0.52738
 Alpha  occ. eigenvalues --   -0.52672  -0.52520  -0.52261  -0.49962  -0.49906
 Alpha  occ. eigenvalues --   -0.47997  -0.47891  -0.46866  -0.46543  -0.46041
 Alpha  occ. eigenvalues --   -0.45778  -0.45755  -0.45294  -0.43810  -0.43788
 Alpha virt. eigenvalues --    0.20767   0.23198   0.23424   0.24944   0.25749
 Alpha virt. eigenvalues --    0.26597   0.26866   0.27560   0.28217   0.29423
 Alpha virt. eigenvalues --    0.30840   0.31131   0.31529   0.31788   0.32161

 Mulliken charges:
               1
     1  C   -0.297776
     2  C   -0.299501
     3  C   -0.475695
     4  H    0.149869
     5  H    0.149154
     6  H    0.152173
     7  H    0.151107
     8  H    0.155113
     9  H    0.155363
    10  H    0.160257
    11  C   -0.306033
    12  C   -0.298999
    13  C   -0.484040
    14  H    0.149872
    15  H    0.156616
    16  H    0.151950
    17  H    0.151435
    18  H    0.165486
    19  H    0.154538
    20  H    0.159946
    21  C   -0.298328
    22  C   -0.299683
    23  C   -0.475719
    24  H    0.148999
    25  H    0.149740
    26  H    0.151953
    27  H    0.152144
    28  H    0.155271
    29  H    0.155078
    30  H    0.160404
    31  C   -0.297706
    32  C   -0.307632
    33  C   -0.478617
    34  H    0.149455
    35  H    0.150065
    36  H    0.156568
    37  H    0.152211
    38  H    0.155209
    39  H    0.155430
    40  H    0.164323
 Sum of Mulliken charges =  -0.00000

 Dipole moment (field-independent basis, Debye):
    X=             -0.0147    Y=             -0.0120    Z=              0.0105  Tot=              0.0217
 Quadrupole moment (field-independent basis, Debye-Ang):
   XX=            -83.9796   YY=            -85.4882   ZZ=            -85.3027
   XY=              0.0753   XZ=              0.0426   YZ=              0.4272

 Normal termination of Gaussian 16 at Wed May  5 21:22:09 2021.
