 Gaussian 16, Revision A.03,
 Gaussian 16:  EM64L-G16RevA.03 25-Dec-2016

 -------------
 #p 6-31g* mp2
 -------------

 ------------------------------------------------------
 Input file generated by CHIRIPA (05-May-2021 14:57:26)
 ------------------------------------------------------
 Symbolic Z-matrix:
 Charge =  0 Multiplicity = 1

                         Standard orientation:
 ---------------------------------------------------------------------
 Center     Atomic      Atomic             Coordinates (Angstroms)
 Number     Number       Type             X           Y           Z
 ---------------------------------------------------------------------
      1          6           0       -1.390415   -2.011884    0.912033
      2          6           0       -2.330838   -2.106261   -0.119092
      3          6           0       -3.110912   -1.001035   -0.471950
      4          6           0       -2.923544    0.188409    0.230478
      5          6           0       -1.994822    0.313888    1.262477
      6          6           0       -1.225699   -0.804239    1.598317
      7          1           0       -0.788688   -2.875461    1.179532
      8          1           0       -2.460910   -3.042860   -0.653795
      9          1           0       -3.846230   -1.046349   -1.266098
     10          1           0       -1.887826    1.260949    1.777303
     11          1           0       -0.496117   -0.728036    2.399533
     12          7           0       -3.743576    1.365292   -0.134069
     13          8           0       -3.559369    2.401870    0.500131
     14          8           0       -4.554998    1.228869   -1.047097
     15          6           0        4.143567    2.047837    0.308198
     16          6           0        3.179706    2.119070   -0.702949
     17          6           0        2.422998    0.993792   -1.043085
     18          6           0        2.657379   -0.191885   -0.348446
     19          6           0        3.610415   -0.294531    0.663719
     20          6           0        4.355472    0.843387    0.987108
     21          1           0        4.726870    2.926889    0.565920
     22          1           0        3.012987    3.053135   -1.231885
     23          1           0        1.670383    1.020989   -1.821706
     24          1           0        3.753946   -1.239633    1.173226
     25          1           0        5.103345    0.785138    1.772816
     26          7           0        1.862454   -1.389857   -0.699668
     27          8           0        2.088078   -2.422636   -0.072694
     28          8           0        1.028821   -1.273364   -1.595281
 ---------------------------------------------------------------------

 SCF Done:  E(RHF) =  -868.339778272     A.U. after   16 cycles
 E2 =    -0.2600591477D+01 EUMP2 =    -0.87094036974954D+03

 The electronic state is 1-A.
 Alpha  occ. eigenvalues --  -20.61527 -20.61443 -20.60236 -20.60217 -15.86492
 Alpha  occ. eigenvalues --  -15.85276 -11.31686 -11.30372 -11.28261 -11.28181
 Alpha  occ. eigenvalues --  -11.27918 -11.27217 -11.27150 -11.27017 -11.26894
 Alpha  occ. eigenvalues --  -11.26471 -11.25910 -11.25744  -1.60544  -1.59313
 Alpha  occ. eigenvalues --   -1.40104  -1.38874  -1.19836  -1.18517  -1.09263
 Alpha  occ. eigenvalues --   -1.07927  -1.05205  -1.03902  -0.96131  -0.94812
 Alpha  occ. eigenvalues --   -0.86609  -0.85299  -0.82968  -0.81674  -0.78040
 Alpha  occ. eigenvalues --   -0.76786  -0.72742  -0.71878  -0.71500  -0.70931
 Alpha  occ. eigenvalues --   -0.70636  -0.69534  -0.65486  -0.65196  -0.64165
 Alpha  occ. eigenvalues --   -0.63904  -0.62549  -0.61280  -0.55705  -0.54294
 Alpha  occ. eigenvalues --   -0.53551  -0.53285  -0.52218  -0.51996  -0.49510
 Alpha  occ. eigenvalues --   -0.49473  -0.48270  -0.48231  -0.45541  -0.44341
 Alpha  occ. eigenvalues --   -0.37815  -0.36806  -0.36372  -0.35492
 Alpha virt. eigenvalues --    0.04432   0.05781   0.10849   0.12151   0.15992
 Alpha virt. eigenvalues --    0.17351   0.21049   0.22381   0.26976   0.27910
 Alpha virt. eigenvalues --    0.28110   0.29368   0.30654   0.31982   0.32138

 Mulliken charges:
               1
     1  C   -0.163177
     2  C   -0.208774
     3  C   -0.170357
     4  C    0.156562
     5  C   -0.172415
     6  C   -0.228967
     7  H    0.237508
     8  H    0.225487
     9  H    0.273215
    10  H    0.270076
    11  H    0.218578
    12  N    0.488048
    13  O   -0.465615
    14  O   -0.461941
    15  C   -0.170320
    16  C   -0.218544
    17  C   -0.169861
    18  C    0.157955
    19  C   -0.173892
    20  C   -0.218877
    21  H    0.227921
    22  H    0.227420
    23  H    0.278564
    24  H    0.273357
    25  H    0.224238
    26  N    0.489437
    27  O   -0.470722
    28  O   -0.454904
 Sum of Mulliken charges =  -0.00000

 Dipole moment (field-independent basis, Debye):
    X=              5.8853    Y=             -0.0719    Z=              2.3136  Tot=              6.3241
 Quadrupole moment (field-independent basis, Debye-Ang):
   XX=           -106.2403   YY=           -105.6265   ZZ=           -101.0551
   XY=             24.6693   XZ=              3.2354   YZ=             -2.4386

 Normal termination of Gaussian 16 at Thu May  6 18:07:26 2021.
