 Gaussian 16, Revision A.03,
 Gaussian 16:  EM64L-G16RevA.03 25-Dec-2016

 -------------
 #p 6-31g* mp2
 -------------

 ------------------------------------------------------
 Input file generated by CHIRIPA (05-May-2021 14:57:20)
 ------------------------------------------------------
 Symbolic Z-matrix:
 Charge =  0 Multiplicity = 1

                         Standard orientation:
 ---------------------------------------------------------------------
 Center     Atomic      Atomic             Coordinates (Angstroms)
 Number     Number       Type             X           Y           Z
 ---------------------------------------------------------------------
      1          6           0        3.155274   -2.052037    0.264323
      2          6           0        2.275477   -1.555540    1.231777
      3          6           0        1.897191   -0.209664    1.223606
      4          6           0        2.420157    0.615292    0.228999
      5          6           0        3.298594    0.150446   -0.748527
      6          6           0        3.663129   -1.198963   -0.721005
      7          1           0        3.443795   -3.098917    0.278186
      8          1           0        1.879499   -2.215737    1.998189
      9          1           0        1.217734    0.201024    1.960553
     10          1           0        3.676777    0.832910   -1.499951
     11          1           0        4.346564   -1.581791   -1.473603
     12          7           0        2.026961    2.041981    0.210105
     13          8           0        2.501664    2.748214   -0.676759
     14          8           0        1.251516    2.426971    1.082519
     15          6           0       -0.907884   -2.319479   -0.575308
     16          6           0       -0.588802   -1.058328   -1.089317
     17          6           0       -1.455138    0.023386   -0.905195
     18          6           0       -2.637427   -0.192670   -0.198934
     19          6           0       -2.983383   -1.437159    0.325330
     20          6           0       -2.102051   -2.504543    0.129134
     21          1           0       -0.229068   -3.154215   -0.723028
     22          1           0        0.337912   -0.911676   -1.636803
     23          1           0       -1.232863    1.010340   -1.292410
     24          1           0       -3.914477   -1.552482    0.866793
     25          1           0       -2.352449   -3.482857    0.529443
     26          7           0       -3.562516    0.944906    0.002379
     27          8           0       -4.597950    0.728500    0.628223
     28          8           0       -3.234651    2.031407   -0.469489
 ---------------------------------------------------------------------

 SCF Done:  E(RHF) =  -868.335695169     A.U. after   16 cycles
 E2 =    -0.2604710565D+01 EUMP2 =    -0.87094040573434D+03

 The electronic state is 1-A.
 Alpha  occ. eigenvalues --  -20.61324 -20.61285 -20.60524 -20.60475 -15.86361
 Alpha  occ. eigenvalues --  -15.85560 -11.31918 -11.31122 -11.28570 -11.28456
 Alpha  occ. eigenvalues --  -11.28348 -11.27726 -11.27641 -11.27618 -11.27540
 Alpha  occ. eigenvalues --  -11.27508 -11.26834 -11.26697  -1.60387  -1.59574
 Alpha  occ. eigenvalues --   -1.39928  -1.39120  -1.20171  -1.19312  -1.09518
 Alpha  occ. eigenvalues --   -1.08685  -1.05568  -1.04741  -0.96301  -0.95483
 Alpha  occ. eigenvalues --   -0.86949  -0.86127  -0.83108  -0.82310  -0.78117
 Alpha  occ. eigenvalues --   -0.77316  -0.72559  -0.71786  -0.71740  -0.71238
 Alpha  occ. eigenvalues --   -0.70899  -0.70432  -0.65782  -0.65542  -0.64960
 Alpha  occ. eigenvalues --   -0.64768  -0.62879  -0.62086  -0.56069  -0.55273
 Alpha  occ. eigenvalues --   -0.54283  -0.53629  -0.52958  -0.52573  -0.49341
 Alpha  occ. eigenvalues --   -0.49311  -0.48555  -0.48516  -0.45278  -0.44482
 Alpha  occ. eigenvalues --   -0.38276  -0.37916  -0.36858  -0.35938
 Alpha virt. eigenvalues --    0.04360   0.05158   0.10432   0.11302   0.15712
 Alpha virt. eigenvalues --    0.16784   0.20545   0.21433   0.26554   0.27102
 Alpha virt. eigenvalues --    0.27382   0.28393   0.30270   0.30847   0.31924

 Mulliken charges:
               1
     1  C   -0.178151
     2  C   -0.217020
     3  C   -0.163871
     4  C    0.154753
     5  C   -0.178019
     6  C   -0.221168
     7  H    0.225958
     8  H    0.224962
     9  H    0.280322
    10  H    0.278215
    11  H    0.225795
    12  N    0.485758
    13  O   -0.459243
    14  O   -0.453180
    15  C   -0.172612
    16  C   -0.217641
    17  C   -0.174688
    18  C    0.159208
    19  C   -0.172497
    20  C   -0.221359
    21  H    0.218985
    22  H    0.225864
    23  H    0.281974
    24  H    0.275363
    25  H    0.220543
    26  N    0.487942
    27  O   -0.462573
    28  O   -0.453621
 Sum of Mulliken charges =  -0.00000

 Dipole moment (field-independent basis, Debye):
    X=              4.7016    Y=             -8.7334    Z=             -0.5250  Tot=              9.9324
 Quadrupole moment (field-independent basis, Debye-Ang):
   XX=           -112.7485   YY=           -108.8042   ZZ=           -100.7830
   XY=              0.9496   XZ=             -2.5213   YZ=             -2.6561

 Normal termination of Gaussian 16 at Thu May  6 00:06:47 2021.
