 Gaussian 16, Revision A.03,
 Gaussian 16:  EM64L-G16RevA.03 25-Dec-2016

 -------------
 #p 6-31g* mp2
 -------------

 ------------------------------------------------------
 Input file generated by CHIRIPA (05-May-2021 14:51:13)
 ------------------------------------------------------
 Symbolic Z-matrix:
 Charge =  0 Multiplicity = 1

                         Standard orientation:
 ---------------------------------------------------------------------
 Center     Atomic      Atomic             Coordinates (Angstroms)
 Number     Number       Type             X           Y           Z
 ---------------------------------------------------------------------
      1          6           0       -4.114265    0.208415    0.353487
      2          6           0       -5.237319    0.351850   -0.674210
      3          6           0       -6.469271    1.059209   -0.108761
      4          1           0       -4.490689   -0.346955    1.223437
      5          1           0       -3.830698    1.205476    0.717977
      6          1           0       -5.517735   -0.645083   -1.037674
      7          1           0       -4.858123    0.906777   -1.541898
      8          1           0       -6.211021    2.065427    0.236830
      9          1           0       -6.874381    0.504749    0.743918
     10          1           0       -7.259706    1.151030   -0.860187
     11          6           0       -2.875893   -0.496766   -0.196861
     12          6           0       -1.752839   -0.640201    0.830835
     13          6           0       -0.520887   -1.347560    0.265386
     14          1           0       -3.159460   -1.493828   -0.561352
     15          1           0       -2.499469    0.058604   -1.066812
     16          1           0       -2.132035   -1.195128    1.698523
     17          1           0       -1.472423    0.356732    1.194300
     18          1           0       -0.115777   -0.793100   -0.587293
     19          1           0       -0.779137   -2.353778   -0.080205
     20          1           0        0.269548   -1.439381    1.016812
     21          6           0        3.947626    0.756621   -0.137839
     22          6           0        3.217014    2.076798    0.109794
     23          6           0        4.135662    3.292876   -0.012823
     24          1           0        4.777432    0.664572    0.576230
     25          1           0        4.398291    0.777330   -1.139771
     26          1           0        2.766693    2.053056    1.110426
     27          1           0        2.388733    2.165625   -0.604821
     28          1           0        4.574916    3.344434   -1.014321
     29          1           0        4.955024    3.231225    0.710673
     30          1           0        3.592876    4.225904    0.168014
     31          6           0        3.042531   -0.468269   -0.018786
     32          6           0        3.773144   -1.788447   -0.266419
     33          6           0        2.854497   -3.004525   -0.143802
     34          1           0        2.591866   -0.488978    0.983146
     35          1           0        2.212725   -0.376220   -0.732855
     36          1           0        4.601425   -1.877275    0.448197
     37          1           0        4.223465   -1.764706   -1.267051
     38          1           0        2.035135   -2.942875   -0.867298
     39          1           0        2.415241   -3.056083    0.857696
     40          1           0        3.397282   -3.937554   -0.324640
 ---------------------------------------------------------------------

 SCF Done:  E(RHF) =  -470.731336936     A.U. after   11 cycles
 E2 =    -0.1584136987D+01 EUMP2 =    -0.47231547392257D+03

 The electronic state is 1-A.
 Alpha  occ. eigenvalues --  -11.21593 -11.21583 -11.21533 -11.21519 -11.21372
 Alpha  occ. eigenvalues --  -11.21334 -11.21312 -11.21244 -11.21066 -11.21058
 Alpha  occ. eigenvalues --  -11.20962 -11.20905  -1.08419  -1.08357  -1.03541
 Alpha  occ. eigenvalues --   -1.03430  -0.95937  -0.95928  -0.86970  -0.86947
 Alpha  occ. eigenvalues --   -0.79732  -0.79420  -0.78278  -0.78086  -0.65071
 Alpha  occ. eigenvalues --   -0.64984  -0.60938  -0.60854  -0.59519  -0.59104
 Alpha  occ. eigenvalues --   -0.57562  -0.57543  -0.55318  -0.55141  -0.52742
 Alpha  occ. eigenvalues --   -0.52553  -0.52413  -0.52334  -0.49979  -0.49776
 Alpha  occ. eigenvalues --   -0.47933  -0.47829  -0.46678  -0.46542  -0.45868
 Alpha  occ. eigenvalues --   -0.45706  -0.45675  -0.45379  -0.43740  -0.43606
 Alpha virt. eigenvalues --    0.21874   0.23106   0.23654   0.24661   0.24970
 Alpha virt. eigenvalues --    0.26571   0.26746   0.27691   0.27862   0.29777
 Alpha virt. eigenvalues --    0.30012   0.31282   0.31649   0.31894   0.32378

 Mulliken charges:
               1
     1  C   -0.298134
     2  C   -0.299570
     3  C   -0.475670
     4  H    0.149580
     5  H    0.149437
     6  H    0.151864
     7  H    0.151776
     8  H    0.155138
     9  H    0.155154
    10  H    0.160160
    11  C   -0.298547
    12  C   -0.301173
    13  C   -0.476049
    14  H    0.149359
    15  H    0.149170
    16  H    0.151238
    17  H    0.151602
    18  H    0.155236
    19  H    0.153863
    20  H    0.165142
    21  C   -0.297778
    22  C   -0.299339
    23  C   -0.475591
    24  H    0.149156
    25  H    0.149044
    26  H    0.151655
    27  H    0.151001
    28  H    0.155154
    29  H    0.155254
    30  H    0.160013
    31  C   -0.300700
    32  C   -0.299594
    33  C   -0.476968
    34  H    0.149211
    35  H    0.154465
    36  H    0.151164
    37  H    0.151244
    38  H    0.159079
    39  H    0.154835
    40  H    0.159117
 Sum of Mulliken charges =  -0.00000

 Dipole moment (field-independent basis, Debye):
    X=              0.0067    Y=             -0.0183    Z=             -0.0041  Tot=              0.0199
 Quadrupole moment (field-independent basis, Debye-Ang):
   XX=            -86.1443   YY=            -85.2375   ZZ=            -83.7696
   XY=              0.2827   XZ=              0.3858   YZ=             -0.4080

 Normal termination of Gaussian 16 at Wed May  5 18:21:59 2021.
