 Gaussian 16, Revision A.03,
 Gaussian 16:  EM64L-G16RevA.03 25-Dec-2016

 -------------
 #p 6-31g* mp2
 -------------

 ------------------------------------------------------
 Input file generated by CHIRIPA (05-May-2021 14:51:11)
 ------------------------------------------------------
 Symbolic Z-matrix:
 Charge =  0 Multiplicity = 1

                         Standard orientation:
 ---------------------------------------------------------------------
 Center     Atomic      Atomic             Coordinates (Angstroms)
 Number     Number       Type             X           Y           Z
 ---------------------------------------------------------------------
      1          6           0       -3.458093    0.014324    0.224118
      2          6           0       -3.646709    0.563612   -1.190340
      3          6           0       -5.118339    0.751689   -1.560105
      4          1           0       -3.985076   -0.945713    0.311091
      5          1           0       -3.932972    0.697686    0.941683
      6          1           0       -3.170416   -0.119874   -1.904908
      7          1           0       -3.119056    1.522360   -1.274013
      8          1           0       -5.602675    1.450239   -0.870143
      9          1           0       -5.654327   -0.201326   -1.504622
     10          1           0       -5.230092    1.145175   -2.575261
     11          6           0       -1.992278   -0.179152    0.608410
     12          6           0       -1.803662   -0.728441    2.022868
     13          6           0       -0.332032   -0.916518    2.392633
     14          1           0       -1.517399   -0.862515   -0.109155
     15          1           0       -1.465295    0.780884    0.521437
     16          1           0       -2.331315   -1.687189    2.106541
     17          1           0       -2.279954   -0.044954    2.737436
     18          1           0        0.203956    0.036498    2.337150
     19          1           0        0.152304   -1.615068    1.702671
     20          1           0       -0.220279   -1.310004    3.407789
     21          6           0        2.326072   -0.567988   -0.382848
     22          6           0        3.028902   -1.746081   -1.058208
     23          6           0        2.218036   -3.040162   -0.983068
     24          1           0        2.130877   -0.819533    0.668613
     25          1           0        1.345642   -0.415382   -0.854934
     26          1           0        4.008296   -1.895544   -0.585910
     27          1           0        3.222619   -1.491629   -2.108134
     28          1           0        1.246263   -2.914775   -1.471468
     29          1           0        2.036403   -3.320986    0.059404
     30          1           0        2.738972   -3.869305   -1.471952
     31          6           0        3.124299    0.732817   -0.449680
     32          6           0        2.421469    1.910910    0.225680
     33          6           0        3.232335    3.204990    0.150540
     34          1           0        4.104728    0.580211    0.022405
     35          1           0        3.319494    0.984362   -1.501141
     36          1           0        2.227752    1.656457    1.275606
     37          1           0        1.442075    2.060373   -0.246618
     38          1           0        3.413968    3.485815   -0.891932
     39          1           0        4.204108    3.079604    0.638940
     40          1           0        2.711399    4.034134    0.639424
 ---------------------------------------------------------------------

 SCF Done:  E(RHF) =  -470.732433477     A.U. after   11 cycles
 E2 =    -0.1584432552D+01 EUMP2 =    -0.47231686602905D+03

 The electronic state is 1-A.
 Alpha  occ. eigenvalues --  -11.21613 -11.21603 -11.21571 -11.21560 -11.21391
 Alpha  occ. eigenvalues --  -11.21338 -11.21330 -11.21211 -11.21102 -11.21078
 Alpha  occ. eigenvalues --  -11.21073 -11.20977  -1.08441  -1.08365  -1.03532
 Alpha  occ. eigenvalues --   -1.03501  -0.95997  -0.95932  -0.87019  -0.86953
 Alpha  occ. eigenvalues --   -0.79658  -0.79552  -0.78406  -0.77994  -0.65047
 Alpha  occ. eigenvalues --   -0.65029  -0.60980  -0.60863  -0.59356  -0.59310
 Alpha  occ. eigenvalues --   -0.57682  -0.57486  -0.55276  -0.55228  -0.52693
 Alpha  occ. eigenvalues --   -0.52659  -0.52513  -0.52293  -0.49971  -0.49857
 Alpha  occ. eigenvalues --   -0.48091  -0.47864  -0.46681  -0.46507  -0.46144
 Alpha  occ. eigenvalues --   -0.45686  -0.45594  -0.45158  -0.43771  -0.43748
 Alpha virt. eigenvalues --    0.21098   0.22695   0.23208   0.24083   0.24790
 Alpha virt. eigenvalues --    0.26007   0.26744   0.27528   0.28823   0.29588
 Alpha virt. eigenvalues --    0.30217   0.30838   0.31785   0.31901   0.32384

 Mulliken charges:
               1
     1  C   -0.298271
     2  C   -0.299573
     3  C   -0.475667
     4  H    0.149695
     5  H    0.149568
     6  H    0.151509
     7  H    0.151664
     8  H    0.155263
     9  H    0.155262
    10  H    0.160177
    11  C   -0.300468
    12  C   -0.299568
    13  C   -0.482431
    14  H    0.150568
    15  H    0.150925
    16  H    0.151733
    17  H    0.151559
    18  H    0.158461
    19  H    0.160524
    20  H    0.158857
    21  C   -0.305836
    22  C   -0.299280
    23  C   -0.477401
    24  H    0.158424
    25  H    0.151708
    26  H    0.151658
    27  H    0.151490
    28  H    0.154469
    29  H    0.155653
    30  H    0.160660
    31  C   -0.297844
    32  C   -0.302855
    33  C   -0.475593
    34  H    0.149151
    35  H    0.149162
    36  H    0.153535
    37  H    0.152557
    38  H    0.155341
    39  H    0.155320
    40  H    0.159894
 Sum of Mulliken charges =  -0.00000

 Dipole moment (field-independent basis, Debye):
    X=              0.0078    Y=             -0.0055    Z=              0.0139  Tot=              0.0168
 Quadrupole moment (field-independent basis, Debye-Ang):
   XX=            -85.8894   YY=            -84.9227   ZZ=            -84.1276
   XY=             -0.3769   XZ=              0.0554   YZ=              0.1894

 Normal termination of Gaussian 16 at Wed May  5 21:29:34 2021.
