 Gaussian 16, Revision A.03,
 Gaussian 16:  EM64L-G16RevA.03 25-Dec-2016

 -------------
 #p 6-31g* mp2
 -------------

 ------------------------------------------------------
 Input file generated by CHIRIPA (05-May-2021 14:53:12)
 ------------------------------------------------------
 Symbolic Z-matrix:
 Charge =  0 Multiplicity = 1

                         Standard orientation:
 ---------------------------------------------------------------------
 Center     Atomic      Atomic             Coordinates (Angstroms)
 Number     Number       Type             X           Y           Z
 ---------------------------------------------------------------------
      1          6           0       -3.272801    0.813012    0.384243
      2          6           0       -2.541922    2.138808    0.169612
      3          6           0       -2.951745    3.210172    1.180561
      4          1           0       -4.356093    0.984283    0.320295
      5          1           0       -3.072889    0.452848    1.402925
      6          1           0       -2.742033    2.495670   -0.848828
      7          1           0       -1.460238    1.964327    0.233888
      8          1           0       -2.736325    2.878923    2.201575
      9          1           0       -4.025403    3.413285    1.112707
     10          1           0       -2.417217    4.149661    1.008803
     11          6           0       -2.873760   -0.268019   -0.618685
     12          6           0       -3.604639   -1.593815   -0.404055
     13          6           0       -3.194816   -2.665179   -1.415003
     14          1           0       -3.073672    0.092145   -1.637367
     15          1           0       -1.790468   -0.439290   -0.554738
     16          1           0       -4.686323   -1.419334   -0.468330
     17          1           0       -3.404527   -1.950677    0.614386
     18          1           0       -2.121158   -2.868292   -1.347149
     19          1           0       -3.410236   -2.333930   -2.436017
     20          1           0       -3.729344   -3.604668   -1.243245
     21          6           0        3.618963    1.183383   -1.620997
     22          6           0        2.277815    0.841052   -1.822623
     23          6           0        1.593019    0.067846   -0.880416
     24          6           0        2.283252   -0.347874    0.257145
     25          6           0        3.619377   -0.023146    0.486519
     26          6           0        4.284291    0.750954   -0.469101
     27          1           0        4.143207    1.784376   -2.358136
     28          1           0        1.758584    1.175485   -2.716266
     29          1           0        0.554663   -0.211596   -1.011371
     30          1           0        4.110318   -0.371259    1.387192
     31          1           0        5.325835    1.015301   -0.309881
     32          7           0        1.568814   -1.166906    1.261716
     33          8           0        2.199414   -1.520716    2.255597
     34          8           0        0.391764   -1.439545    1.036197
 ---------------------------------------------------------------------

 SCF Done:  E(RHF) =  -669.536022164     A.U. after   15 cycles
 E2 =    -0.2092519931D+01 EUMP2 =    -0.67162854209488D+03

 The electronic state is 1-A.
 Alpha  occ. eigenvalues --  -20.60954 -20.60937 -15.85986 -11.31282 -11.27841
 Alpha  occ. eigenvalues --  -11.27823 -11.27572 -11.26848 -11.26833 -11.21404
 Alpha  occ. eigenvalues --  -11.20985 -11.20941 -11.20880 -11.20866 -11.20515
 Alpha  occ. eigenvalues --   -1.60014  -1.39572  -1.19448  -1.08857  -1.07990
 Alpha  occ. eigenvalues --   -1.04840  -1.03111  -0.95709  -0.95561  -0.86590
 Alpha  occ. eigenvalues --   -0.86244  -0.82538  -0.79198  -0.77919  -0.77521
 Alpha  occ. eigenvalues --   -0.72217  -0.71327  -0.70561  -0.65118  -0.64894
 Alpha  occ. eigenvalues --   -0.64529  -0.62190  -0.60481  -0.58954  -0.57192
 Alpha  occ. eigenvalues --   -0.55351  -0.54828  -0.53173  -0.52945  -0.52283
 Alpha  occ. eigenvalues --   -0.52004  -0.49516  -0.48971  -0.48956  -0.47521
 Alpha  occ. eigenvalues --   -0.46208  -0.45368  -0.45225  -0.44948  -0.43364
 Alpha  occ. eigenvalues --   -0.37426  -0.36434
 Alpha virt. eigenvalues --    0.04909   0.11163   0.16433   0.20625   0.23270
 Alpha virt. eigenvalues --    0.24522   0.25309   0.27383   0.27763   0.28391
 Alpha virt. eigenvalues --    0.29516   0.31096   0.31606   0.32158   0.32271

 Mulliken charges:
               1
     1  C   -0.297274
     2  C   -0.300172
     3  C   -0.475544
     4  H    0.147652
     5  H    0.158150
     6  H    0.147110
     7  H    0.148972
     8  H    0.158313
     9  H    0.154961
    10  H    0.157355
    11  C   -0.313133
    12  C   -0.297463
    13  C   -0.477803
    14  H    0.141065
    15  H    0.166184
    16  H    0.148285
    17  H    0.162151
    18  H    0.160384
    19  H    0.149026
    20  H    0.159941
    21  C   -0.170167
    22  C   -0.222828
    23  C   -0.173251
    24  C    0.153866
    25  C   -0.169812
    26  C   -0.218938
    27  H    0.226081
    28  H    0.225229
    29  H    0.288148
    30  H    0.275772
    31  H    0.223795
    32  N    0.490065
    33  O   -0.458838
    34  O   -0.467281
 Sum of Mulliken charges =  -0.00000

 Dipole moment (field-independent basis, Debye):
    X=              2.6428    Y=              2.7785    Z=             -3.3690  Tot=              5.1044
 Quadrupole moment (field-independent basis, Debye-Ang):
   XX=            -79.6340   YY=            -98.4178   ZZ=            -95.6305
   XY=              5.8785   XZ=             -4.9198   YZ=              0.8658

 Normal termination of Gaussian 16 at Thu May  6 00:56:20 2021.
