 Gaussian 16, Revision A.03,
 Gaussian 16:  EM64L-G16RevA.03 25-Dec-2016

 -------------
 #p 6-31g* mp2
 -------------

 ------------------------------------------------------
 Input file generated by CHIRIPA (05-May-2021 14:51:10)
 ------------------------------------------------------
 Symbolic Z-matrix:
 Charge =  0 Multiplicity = 1

                         Standard orientation:
 ---------------------------------------------------------------------
 Center     Atomic      Atomic             Coordinates (Angstroms)
 Number     Number       Type             X           Y           Z
 ---------------------------------------------------------------------
      1          6           0        4.089192    0.532158    0.057243
      2          6           0        2.885169    0.563488   -0.884740
      3          6           0        1.848685    1.613895   -0.484563
      4          1           0        3.741171    0.334750    1.080403
      5          1           0        4.559411    1.525152    0.073155
      6          1           0        2.418185   -0.429644   -0.899935
      7          1           0        3.236115    0.760655   -1.905807
      8          1           0        2.293153    2.614414   -0.487683
      9          1           0        1.470576    1.417352    0.523904
     10          1           0        0.996543    1.619075   -1.171357
     11          6           0        5.134108   -0.512890   -0.329736
     12          6           0        6.338131   -0.544219    0.612247
     13          6           0        7.374614   -1.594626    0.212070
     14          1           0        4.663889   -1.505883   -0.345648
     15          1           0        5.482128   -0.315481   -1.352896
     16          1           0        5.987184   -0.741387    1.633314
     17          1           0        6.805114    0.448913    0.627442
     18          1           0        7.752724   -1.398083   -0.796397
     19          1           0        6.930146   -2.595146    0.215191
     20          1           0        8.226757   -1.599806    0.898864
     21          6           0       -5.279552   -0.249238    0.418962
     22          6           0       -6.191116   -0.882295   -0.632834
     23          6           0       -7.523521   -1.356684   -0.051936
     24          1           0       -5.093366   -0.977767    1.219915
     25          1           0       -5.801061    0.599229    0.883210
     26          1           0       -5.667512   -1.728461   -1.095931
     27          1           0       -6.374998   -0.152238   -1.431471
     28          1           0       -8.069738   -0.518868    0.393388
     29          1           0       -7.358233   -2.104046    0.730835
     30          1           0       -8.159583   -1.805899   -0.821021
     31          6           0       -3.943747    0.229969   -0.146470
     32          6           0       -3.032184    0.863026    0.905327
     33          6           0       -1.699778    1.337415    0.324428
     34          1           0       -3.422237   -0.618498   -0.610717
     35          1           0       -4.129933    0.958498   -0.947422
     36          1           0       -2.848301    0.132970    1.703965
     37          1           0       -3.555787    1.709192    1.368424
     38          1           0       -1.865066    2.084777   -0.458342
     39          1           0       -1.153561    0.499599   -0.120895
     40          1           0       -1.063717    1.786629    1.093514
 ---------------------------------------------------------------------

 SCF Done:  E(RHF) =  -470.732593452     A.U. after   11 cycles
 E2 =    -0.1582570715D+01 EUMP2 =    -0.47231516416709D+03

 The electronic state is 1-A.
 Alpha  occ. eigenvalues --  -11.21591 -11.21579 -11.21542 -11.21528 -11.21385
 Alpha  occ. eigenvalues --  -11.21367 -11.21325 -11.21306 -11.21064 -11.21055
 Alpha  occ. eigenvalues --  -11.20981 -11.20892  -1.08409  -1.08382  -1.03529
 Alpha  occ. eigenvalues --   -1.03446  -0.96033  -0.95840  -0.87115  -0.86794
 Alpha  occ. eigenvalues --   -0.79679  -0.79426  -0.78229  -0.78189  -0.65051
 Alpha  occ. eigenvalues --   -0.65006  -0.60970  -0.60817  -0.59360  -0.59267
 Alpha  occ. eigenvalues --   -0.57665  -0.57433  -0.55369  -0.55098  -0.52921
 Alpha  occ. eigenvalues --   -0.52583  -0.52285  -0.52176  -0.50003  -0.49719
 Alpha  occ. eigenvalues --   -0.47964  -0.47761  -0.46653  -0.46513  -0.45762
 Alpha  occ. eigenvalues --   -0.45741  -0.45692  -0.45660  -0.43836  -0.43591
 Alpha virt. eigenvalues --    0.22336   0.23012   0.23597   0.24811   0.26551
 Alpha virt. eigenvalues --    0.26641   0.26987   0.27200   0.27675   0.29332
 Alpha virt. eigenvalues --    0.29783   0.30940   0.31423   0.31879   0.32356

 Mulliken charges:
               1
     1  C   -0.298337
     2  C   -0.300284
     3  C   -0.477544
     4  H    0.149413
     5  H    0.149457
     6  H    0.151029
     7  H    0.151445
     8  H    0.153584
     9  H    0.157073
    10  H    0.164512
    11  C   -0.298180
    12  C   -0.299595
    13  C   -0.475667
    14  H    0.149303
    15  H    0.149583
    16  H    0.151831
    17  H    0.151893
    18  H    0.155150
    19  H    0.155094
    20  H    0.160162
    21  C   -0.298166
    22  C   -0.299598
    23  C   -0.475682
    24  H    0.149527
    25  H    0.149522
    26  H    0.151835
    27  H    0.151906
    28  H    0.155177
    29  H    0.155130
    30  H    0.160202
    31  C   -0.298390
    32  C   -0.301254
    33  C   -0.474368
    34  H    0.149233
    35  H    0.149487
    36  H    0.151345
    37  H    0.151534
    38  H    0.154358
    39  H    0.156401
    40  H    0.161879
 Sum of Mulliken charges =  -0.00000

 Dipole moment (field-independent basis, Debye):
    X=             -0.0108    Y=              0.0189    Z=             -0.0012  Tot=              0.0219
 Quadrupole moment (field-independent basis, Debye-Ang):
   XX=            -86.4248   YY=            -84.1179   ZZ=            -84.5269
   XY=              0.1398   XZ=              0.2357   YZ=             -0.6135

 Normal termination of Gaussian 16 at Thu May  6 00:37:26 2021.
