 Gaussian 16, Revision A.03,
 Gaussian 16:  EM64L-G16RevA.03 25-Dec-2016

 -------------
 #p 6-31g* mp2
 -------------

 ------------------------------------------------------
 Input file generated by CHIRIPA (05-May-2021 14:57:24)
 ------------------------------------------------------
 Symbolic Z-matrix:
 Charge =  0 Multiplicity = 1

                         Standard orientation:
 ---------------------------------------------------------------------
 Center     Atomic      Atomic             Coordinates (Angstroms)
 Number     Number       Type             X           Y           Z
 ---------------------------------------------------------------------
      1          6           0        1.273945    1.151900    1.125971
      2          6           0        1.546734   -0.158016    1.533678
      3          6           0        2.684737   -0.823885    1.068797
      4          6           0        3.532200   -0.146777    0.193227
      5          6           0        3.287669    1.158314   -0.231308
      6          6           0        2.143750    1.804734    0.246330
      7          1           0        0.387619    1.661609    1.492057
      8          1           0        0.873003   -0.667483    2.216742
      9          1           0        2.919971   -1.837989    1.368259
     10          1           0        3.977937    1.640180   -0.913037
     11          1           0        1.934420    2.822032   -0.071996
     12          7           0        4.740084   -0.841408   -0.305675
     13          8           0        5.470947   -0.222928   -1.076362
     14          8           0        4.933090   -1.991187    0.083421
     15          6           0       -1.586381    1.778335   -0.791348
     16          6           0       -1.525192    0.523752   -1.406814
     17          6           0       -2.487629   -0.451335   -1.128481
     18          6           0       -3.501994   -0.136507   -0.225577
     19          6           0       -3.590054    1.104254    0.403745
     20          6           0       -2.616800    2.064078    0.110378
     21          1           0       -0.834536    2.529877   -1.013403
     22          1           0       -0.726090    0.299053   -2.107521
     23          1           0       -2.464166   -1.430717   -1.590733
     24          1           0       -4.398592    1.298878    1.097866
     25          1           0       -2.666826    3.037552    0.589848
     26          7           0       -4.526609   -1.160709    0.077039
     27          8           0       -5.410174   -0.858550    0.876195
     28          8           0       -4.426735   -2.246243   -0.490656
 ---------------------------------------------------------------------

 SCF Done:  E(RHF) =  -868.336422491     A.U. after   16 cycles
 E2 =    -0.2602046059D+01 EUMP2 =    -0.87093846855011D+03

 The electronic state is 1-A.
 Alpha  occ. eigenvalues --  -20.61390 -20.61379 -20.61242 -20.61231 -15.86446
 Alpha  occ. eigenvalues --  -15.86301 -11.31951 -11.31755 -11.28570 -11.28484
 Alpha  occ. eigenvalues --  -11.28428 -11.28350 -11.28332 -11.28107 -11.27645
 Alpha  occ. eigenvalues --  -11.27503 -11.27472 -11.27288  -1.60462  -1.60316
 Alpha  occ. eigenvalues --   -1.40010  -1.39866  -1.20160  -1.19966  -1.09571
 Alpha  occ. eigenvalues --   -1.09311  -1.05557  -1.05390  -0.96379  -0.96116
 Alpha  occ. eigenvalues --   -0.86952  -0.86785  -0.83161  -0.82973  -0.78160
 Alpha  occ. eigenvalues --   -0.78014  -0.72657  -0.72515  -0.71793  -0.71648
 Alpha  occ. eigenvalues --   -0.71416  -0.70954  -0.65797  -0.65626  -0.65542
 Alpha  occ. eigenvalues --   -0.65387  -0.62877  -0.62730  -0.56124  -0.55934
 Alpha  occ. eigenvalues --   -0.54094  -0.53634  -0.53476  -0.53464  -0.49429
 Alpha  occ. eigenvalues --   -0.49405  -0.49281  -0.49263  -0.45384  -0.45252
 Alpha  occ. eigenvalues --   -0.38703  -0.37516  -0.37050  -0.36980
 Alpha virt. eigenvalues --    0.04109   0.04762   0.10357   0.10538   0.15544
 Alpha virt. eigenvalues --    0.16273   0.19369   0.21678   0.25332   0.26439
 Alpha virt. eigenvalues --    0.27620   0.28941   0.29479   0.31198   0.31985

 Mulliken charges:
               1
     1  C   -0.165228
     2  C   -0.220455
     3  C   -0.170358
     4  C    0.157151
     5  C   -0.171007
     6  C   -0.227915
     7  H    0.226224
     8  H    0.227927
     9  H    0.278489
    10  H    0.276243
    11  H    0.217091
    12  N    0.488027
    13  O   -0.460237
    14  O   -0.458196
    15  C   -0.174638
    16  C   -0.214437
    17  C   -0.171891
    18  C    0.157888
    19  C   -0.171181
    20  C   -0.225635
    21  H    0.222701
    22  H    0.229162
    23  H    0.279022
    24  H    0.277460
    25  H    0.223001
    26  N    0.487788
    27  O   -0.459252
    28  O   -0.457743
 Sum of Mulliken charges =  -0.00000

 Dipole moment (field-independent basis, Debye):
    X=             -0.7159    Y=              5.7997    Z=              0.6789  Tot=              5.8830
 Quadrupole moment (field-independent basis, Debye-Ang):
   XX=           -159.7573   YY=           -102.1573   ZZ=           -101.1033
   XY=             -4.4331   XZ=              6.1757   YZ=             -0.6807

 Normal termination of Gaussian 16 at Thu May  6 11:21:34 2021.
