 Gaussian 16, Revision A.03,
 Gaussian 16:  EM64L-G16RevA.03 25-Dec-2016

 -------------
 #p 6-31g* mp2
 -------------

 ------------------------------------------------------
 Input file generated by CHIRIPA (05-May-2021 14:53:12)
 ------------------------------------------------------
 Symbolic Z-matrix:
 Charge =  0 Multiplicity = 1

                         Standard orientation:
 ---------------------------------------------------------------------
 Center     Atomic      Atomic             Coordinates (Angstroms)
 Number     Number       Type             X           Y           Z
 ---------------------------------------------------------------------
      1          6           0       -1.912177    1.454942   -0.100307
      2          6           0       -1.061199    1.710065   -1.344788
      3          6           0       -0.120429    2.904451   -1.182960
      4          1           0       -2.497531    2.356417    0.126956
      5          1           0       -1.249795    1.287185    0.760217
      6          1           0       -1.724982    1.875921   -2.202985
      7          1           0       -0.477947    0.807812   -1.569227
      8          1           0        0.565136    2.744024   -0.344590
      9          1           0       -0.688984    3.818201   -0.981949
     10          1           0        0.478391    3.068828   -2.084212
     11          6           0       -2.857773    0.264082   -0.246699
     12          6           0       -3.708751    0.008958    0.997782
     13          6           0       -4.649521   -1.185427    0.835954
     14          1           0       -3.520154    0.431839   -1.107224
     15          1           0       -2.272419   -0.637393   -0.473962
     16          1           0       -4.292003    0.911211    1.222220
     17          1           0       -3.044968   -0.156897    1.855978
     18          1           0       -4.080966   -2.099178    0.634942
     19          1           0       -5.335086   -1.025001   -0.002417
     20          1           0       -5.248341   -1.349805    1.737206
     21          6           0        3.073589    0.891082    1.703792
     22          6           0        2.001602    0.123062    2.170169
     23          6           0        1.323681   -0.746052    1.310162
     24          6           0        1.746252   -0.822557   -0.016062
     25          6           0        2.810664   -0.070421   -0.510641
     26          6           0        3.473994    0.792063    0.367233
     27          1           0        3.594548    1.563656    2.378807
     28          1           0        1.688456    0.197913    3.207658
     29          1           0        0.490576   -1.352153    1.644819
     30          1           0        3.099787   -0.166623   -1.550146
     31          1           0        4.306178    1.387309    0.002271
     32          7           0        1.036291   -1.739141   -0.935970
     33          8           0        1.428025   -1.788318   -2.099914
     34          8           0        0.101534   -2.391027   -0.475633
 ---------------------------------------------------------------------

 SCF Done:  E(RHF) =  -669.536319057     A.U. after   15 cycles
 E2 =    -0.2094889055D+01 EUMP2 =    -0.67163120811200D+03

 The electronic state is 1-A.
 Alpha  occ. eigenvalues --  -20.61055 -20.61042 -15.86057 -11.31356 -11.27929
 Alpha  occ. eigenvalues --  -11.27916 -11.27657 -11.26935 -11.26921 -11.21331
 Alpha  occ. eigenvalues --  -11.21226 -11.21065 -11.20942 -11.20727 -11.20580
 Alpha  occ. eigenvalues --   -1.60102  -1.39658  -1.19536  -1.08943  -1.08040
 Alpha  occ. eigenvalues --   -1.04924  -1.03192  -0.95786  -0.95628  -0.86650
 Alpha  occ. eigenvalues --   -0.86323  -0.82617  -0.79265  -0.77838  -0.77667
 Alpha  occ. eigenvalues --   -0.72286  -0.71442  -0.70635  -0.65190  -0.64926
 Alpha  occ. eigenvalues --   -0.64658  -0.62268  -0.60618  -0.59006  -0.57239
 Alpha  occ. eigenvalues --   -0.55425  -0.54939  -0.53212  -0.53010  -0.52359
 Alpha  occ. eigenvalues --   -0.52048  -0.49583  -0.49051  -0.49043  -0.47573
 Alpha  occ. eigenvalues --   -0.46341  -0.45458  -0.45364  -0.44809  -0.43421
 Alpha  occ. eigenvalues --   -0.37482  -0.36490
 Alpha virt. eigenvalues --    0.04803   0.11090   0.16270   0.20958   0.22823
 Alpha virt. eigenvalues --    0.24356   0.26345   0.27196   0.27824   0.28141
 Alpha virt. eigenvalues --    0.28690   0.30955   0.31334   0.32044   0.32086

 Mulliken charges:
               1
     1  C   -0.299615
     2  C   -0.299406
     3  C   -0.477824
     4  H    0.147130
     5  H    0.143729
     6  H    0.154433
     7  H    0.151898
     8  H    0.154252
     9  H    0.153573
    10  H    0.158238
    11  C   -0.309295
    12  C   -0.296762
    13  C   -0.476985
    14  H    0.149060
    15  H    0.169693
    16  H    0.148869
    17  H    0.144150
    18  H    0.162589
    19  H    0.155217
    20  H    0.156674
    21  C   -0.170929
    22  C   -0.219131
    23  C   -0.170813
    24  C    0.156817
    25  C   -0.170326
    26  C   -0.217812
    27  H    0.226745
    28  H    0.224628
    29  H    0.276366
    30  H    0.276427
    31  H    0.224658
    32  N    0.490340
    33  O   -0.457557
    34  O   -0.459033
 Sum of Mulliken charges =  -0.00000

 Dipole moment (field-independent basis, Debye):
    X=              2.6686    Y=              3.0415    Z=              3.1586  Tot=              5.1332
 Quadrupole moment (field-independent basis, Debye-Ang):
   XX=            -84.5776   YY=           -100.9401   ZZ=            -92.2418
   XY=              3.8912   XZ=              3.7864   YZ=             -3.9697

 Normal termination of Gaussian 16 at Thu May  6 05:44:16 2021.
