 Gaussian 16, Revision A.03,
 Gaussian 16:  EM64L-G16RevA.03 25-Dec-2016

 -------------
 #p 6-31g* mp2
 -------------

 ------------------------------------------------------
 Input file generated by CHIRIPA (05-May-2021 14:55:21)
 ------------------------------------------------------
 Symbolic Z-matrix:
 Charge =  0 Multiplicity = 1

                         Standard orientation:
 ---------------------------------------------------------------------
 Center     Atomic      Atomic             Coordinates (Angstroms)
 Number     Number       Type             X           Y           Z
 ---------------------------------------------------------------------
      1          6           0        2.179300    2.306319   -0.550731
      2          6           0        1.290845    1.308913   -0.135579
      3          6           0        1.753966    0.022903    0.158097
      4          6           0        3.118017   -0.232057    0.025245
      5          6           0        4.028146    0.740431   -0.386124
      6          6           0        3.542711    2.019400   -0.674460
      7          1           0        1.810870    3.302588   -0.776791
      8          1           0        0.231480    1.528880   -0.038603
      9          1           0        1.088160   -0.768008    0.481485
     10          1           0        5.078667    0.491039   -0.473460
     11          1           0        4.235003    2.792033   -0.996663
     12          7           0        3.620114   -1.589771    0.333320
     13          8           0        4.826494   -1.788963    0.208396
     14          8           0        2.797770   -2.429047    0.693879
     15          6           0       -3.669066   -0.719832   -0.023890
     16          6           0       -4.808768   -1.660669   -0.416179
     17          6           0       -4.360850   -3.118493   -0.525322
     18          1           0       -2.862293   -0.802522   -0.764986
     19          1           0       -3.246468   -1.047391    0.936063
     20          1           0       -5.229998   -1.330613   -1.374429
     21          1           0       -5.613004   -1.575587    0.325834
     22          1           0       -3.959529   -3.470782    0.430416
     23          1           0       -3.574348   -3.224416   -1.279508
     24          1           0       -5.191197   -3.773609   -0.806758
     25          6           0       -4.101214    0.741050    0.089246
     26          6           0       -2.961512    1.681889    0.481535
     27          6           0       -3.409430    3.139712    0.590679
     28          1           0       -4.523812    1.068610   -0.870707
     29          1           0       -4.907988    0.823741    0.830342
     30          1           0       -2.157277    1.596807   -0.260477
     31          1           0       -2.540283    1.351833    1.439785
     32          1           0       -4.195932    3.245635    1.344864
     33          1           0       -3.810751    3.492001   -0.365060
     34          1           0       -2.579083    3.794828    0.872114
 ---------------------------------------------------------------------

 SCF Done:  E(RHF) =  -669.535657441     A.U. after   15 cycles
 E2 =    -0.2091084897D+01 EUMP2 =    -0.67162674233754D+03

 The electronic state is 1-A.
 Alpha  occ. eigenvalues --  -20.60714 -20.60709 -15.85766 -11.31119 -11.27691
 Alpha  occ. eigenvalues --  -11.27669 -11.27424 -11.26708 -11.26640 -11.22631
 Alpha  occ. eigenvalues --  -11.22083 -11.21978 -11.21949 -11.21913 -11.21269
 Alpha  occ. eigenvalues --   -1.59790  -1.39343  -1.19288  -1.09084  -1.08687
 Alpha  occ. eigenvalues --   -1.04687  -1.04154  -0.96564  -0.95524  -0.87584
 Alpha  occ. eigenvalues --   -0.86089  -0.82358  -0.80273  -0.78875  -0.77399
 Alpha  occ. eigenvalues --   -0.71985  -0.71113  -0.70401  -0.65724  -0.64938
 Alpha  occ. eigenvalues --   -0.64694  -0.62068  -0.61521  -0.59972  -0.58182
 Alpha  occ. eigenvalues --   -0.55829  -0.55195  -0.53284  -0.53023  -0.53002
 Alpha  occ. eigenvalues --   -0.52770  -0.50500  -0.48765  -0.48740  -0.48520
 Alpha  occ. eigenvalues --   -0.47296  -0.46400  -0.46299  -0.44751  -0.44400
 Alpha  occ. eigenvalues --   -0.37274  -0.36291
 Alpha virt. eigenvalues --    0.05125   0.11346   0.16609   0.19987   0.22613
 Alpha virt. eigenvalues --    0.23698   0.25215   0.26200   0.27141   0.28444
 Alpha virt. eigenvalues --    0.29197   0.30050   0.30926   0.31285   0.32249

 Mulliken charges:
               1
     1  C   -0.173090
     2  C   -0.227525
     3  C   -0.174131
     4  C    0.158834
     5  C   -0.171382
     6  C   -0.218447
     7  H    0.225622
     8  H    0.236893
     9  H    0.276194
    10  H    0.275296
    11  H    0.223035
    12  N    0.488082
    13  O   -0.460769
    14  O   -0.460491
    15  C   -0.299812
    16  C   -0.300184
    17  C   -0.476521
    18  H    0.147847
    19  H    0.150626
    20  H    0.152510
    21  H    0.153078
    22  H    0.157334
    23  H    0.156712
    24  H    0.161848
    25  C   -0.297115
    26  C   -0.307638
    27  C   -0.475645
    28  H    0.151540
    29  H    0.153181
    30  H    0.145535
    31  H    0.153621
    32  H    0.160197
    33  H    0.157529
    34  H    0.157239
 Sum of Mulliken charges =  -0.00000

 Dipole moment (field-independent basis, Debye):
    X=             -2.0069    Y=              4.7426    Z=             -1.0643  Tot=              5.2585
 Quadrupole moment (field-independent basis, Debye-Ang):
   XX=           -100.6590   YY=            -98.1071   ZZ=            -94.4203
   XY=             17.2805   XZ=             -4.9628   YZ=             -0.2620

 Normal termination of Gaussian 16 at Thu May  6 14:08:25 2021.
