 Gaussian 16, Revision A.03,
 Gaussian 16:  EM64L-G16RevA.03 25-Dec-2016

 -------------
 #p 6-31g* mp2
 -------------

 ------------------------------------------------------
 Input file generated by CHIRIPA (05-May-2021 14:51:10)
 ------------------------------------------------------
 Symbolic Z-matrix:
 Charge =  0 Multiplicity = 1

                         Standard orientation:
 ---------------------------------------------------------------------
 Center     Atomic      Atomic             Coordinates (Angstroms)
 Number     Number       Type             X           Y           Z
 ---------------------------------------------------------------------
      1          6           0       -2.342967   -0.983692    0.387722
      2          6           0       -1.665492   -2.057196   -0.464687
      3          6           0       -0.617813   -2.854984    0.312293
      4          1           0       -1.578039   -0.300720    0.781905
      5          1           0       -2.814896   -1.460266    1.258099
      6          1           0       -1.196161   -1.578902   -1.333928
      7          1           0       -2.432140   -2.737581   -0.857043
      8          1           0       -1.075154   -3.358302    1.170262
      9          1           0        0.167848   -2.193040    0.690668
     10          1           0       -0.146045   -3.616850   -0.316082
     11          6           0       -3.392858   -0.177698   -0.375054
     12          6           0       -4.070333    0.895807    0.477355
     13          6           0       -5.118012    1.693594   -0.299625
     14          1           0       -2.920929    0.298876   -1.245430
     15          1           0       -4.157786   -0.860670   -0.769237
     16          1           0       -3.303685    1.576191    0.869711
     17          1           0       -4.539664    0.417512    1.346596
     18          1           0       -5.903673    1.031650   -0.678000
     19          1           0       -4.660671    2.196912   -1.157594
     20          1           0       -5.589780    2.455460    0.328750
     21          6           0        3.054596    1.292079   -0.212522
     22          6           0        2.114909    2.355012    0.357699
     23          6           0        2.501372    3.773079   -0.063641
     24          1           0        4.081403    1.506208    0.114218
     25          1           0        3.054379    1.362672   -1.309067
     26          1           0        2.115838    2.281526    1.452785
     27          1           0        1.090192    2.138218    0.029721
     28          1           0        2.482067    3.869736   -1.154002
     29          1           0        3.513542    4.013858    0.277148
     30          1           0        1.816464    4.517012    0.355076
     31          6           0        2.681229   -0.130690    0.199854
     32          6           0        3.620916   -1.193622   -0.370367
     33          6           0        3.234453   -2.611689    0.050973
     34          1           0        2.681446   -0.201283    1.296399
     35          1           0        1.654421   -0.344818   -0.126886
     36          1           0        4.645633   -0.976829   -0.042389
     37          1           0        3.619987   -1.120136   -1.465453
     38          1           0        2.222283   -2.852469   -0.289816
     39          1           0        3.253758   -2.708347    1.141334
     40          1           0        3.919361   -3.355622   -0.367745
 ---------------------------------------------------------------------

 SCF Done:  E(RHF) =  -470.732015642     A.U. after   11 cycles
 E2 =    -0.1584040991D+01 EUMP2 =    -0.47231605663301D+03

 The electronic state is 1-A.
 Alpha  occ. eigenvalues --  -11.21658 -11.21627 -11.21612 -11.21577 -11.21444
 Alpha  occ. eigenvalues --  -11.21423 -11.21385 -11.21364 -11.21112 -11.21080
 Alpha  occ. eigenvalues --  -11.21012 -11.20899  -1.08478  -1.08429  -1.03590
 Alpha  occ. eigenvalues --   -1.03491  -0.96047  -0.95931  -0.87091  -0.86926
 Alpha  occ. eigenvalues --   -0.79724  -0.79499  -0.78333  -0.78206  -0.65222
 Alpha  occ. eigenvalues --   -0.64967  -0.61138  -0.60780  -0.59396  -0.59342
 Alpha  occ. eigenvalues --   -0.57630  -0.57578  -0.55404  -0.55166  -0.52824
 Alpha  occ. eigenvalues --   -0.52664  -0.52413  -0.52284  -0.50088  -0.49806
 Alpha  occ. eigenvalues --   -0.48002  -0.47817  -0.46797  -0.46510  -0.45969
 Alpha  occ. eigenvalues --   -0.45764  -0.45751  -0.45392  -0.43795  -0.43773
 Alpha virt. eigenvalues --    0.20470   0.23279   0.23502   0.24681   0.25829
 Alpha virt. eigenvalues --    0.26820   0.27003   0.27322   0.28668   0.29398
 Alpha virt. eigenvalues --    0.29925   0.31323   0.31626   0.31693   0.32329

 Mulliken charges:
               1
     1  C   -0.299756
     2  C   -0.300222
     3  C   -0.483887
     4  H    0.150693
     5  H    0.149907
     6  H    0.150922
     7  H    0.152269
     8  H    0.155541
     9  H    0.164424
    10  H    0.160582
    11  C   -0.298198
    12  C   -0.299720
    13  C   -0.475705
    14  H    0.149119
    15  H    0.149768
    16  H    0.152100
    17  H    0.152027
    18  H    0.155193
    19  H    0.155120
    20  H    0.160335
    21  C   -0.297938
    22  C   -0.299828
    23  C   -0.475716
    24  H    0.150128
    25  H    0.149570
    26  H    0.152123
    27  H    0.151043
    28  H    0.155255
    29  H    0.155476
    30  H    0.160330
    31  C   -0.303180
    32  C   -0.298892
    33  C   -0.483114
    34  H    0.149435
    35  H    0.152903
    36  H    0.151664
    37  H    0.151340
    38  H    0.165589
    39  H    0.154182
    40  H    0.159115
 Sum of Mulliken charges =  -0.00000

 Dipole moment (field-independent basis, Debye):
    X=             -0.0146    Y=             -0.0081    Z=              0.0159  Tot=              0.0230
 Quadrupole moment (field-independent basis, Debye-Ang):
   XX=            -84.6918   YY=            -85.9095   ZZ=            -84.2561
   XY=              0.9718   XZ=             -0.0245   YZ=              0.3822

 Normal termination of Gaussian 16 at Wed May  5 16:42:50 2021.
