 Gaussian 16, Revision A.03,
 Gaussian 16:  EM64L-G16RevA.03 25-Dec-2016

 -------------
 #p 6-31g* mp2
 -------------

 ------------------------------------------------------
 Input file generated by CHIRIPA (05-May-2021 14:51:10)
 ------------------------------------------------------
 Symbolic Z-matrix:
 Charge =  0 Multiplicity = 1

                         Standard orientation:
 ---------------------------------------------------------------------
 Center     Atomic      Atomic             Coordinates (Angstroms)
 Number     Number       Type             X           Y           Z
 ---------------------------------------------------------------------
      1          6           0        3.930201   -0.638450    0.022742
      2          6           0        5.295924   -1.279415   -0.226154
      3          6           0        5.338470   -2.754441    0.174201
      4          1           0        3.673520   -0.738755    1.086226
      5          1           0        3.164889   -1.193548   -0.537221
      6          1           0        6.058627   -0.722430    0.333014
      7          1           0        5.549470   -1.177403   -1.289133
      8          1           0        4.598776   -3.328972   -0.392692
      9          1           0        5.110826   -2.871415    1.238671
     10          1           0        6.323870   -3.192752   -0.012159
     11          6           0        3.871915    0.836033   -0.372520
     12          6           0        2.506192    1.476998   -0.123624
     13          6           0        2.463647    2.952023   -0.523979
     14          1           0        4.637227    1.391131    0.187443
     15          1           0        4.128596    0.936338   -1.436004
     16          1           0        2.252646    1.374986    0.939355
     17          1           0        1.743489    0.920013   -0.682792
     18          1           0        2.691290    3.068997   -1.588449
     19          1           0        3.203340    3.526555    0.042914
     20          1           0        1.478246    3.390334   -0.337619
     21          6           0       -3.160154   -0.241700    0.293509
     22          6           0       -2.372303    0.984863    0.754830
     23          6           0       -0.891639    0.683056    0.987945
     24          1           0       -3.060463   -1.037363    1.044458
     25          1           0       -2.713561   -0.628548   -0.632935
     26          1           0       -2.821093    1.370106    1.679380
     27          1           0       -2.474038    1.777766    0.002786
     28          1           0       -0.422974    0.319819    0.067612
     29          1           0       -0.772001   -0.090157    1.753731
     30          1           0       -0.347364    1.573695    1.317167
     31          6           0       -4.641962    0.044117    0.056270
     32          6           0       -5.429814   -1.182446   -0.405052
     33          6           0       -6.910478   -0.880639   -0.638166
     34          1           0       -5.088555    0.430965    0.982714
     35          1           0       -4.741653    0.839780   -0.694680
     36          1           0       -5.328078   -1.975349    0.346992
     37          1           0       -4.981023   -1.567688   -1.329601
     38          1           0       -7.030115   -0.107426   -1.403953
     39          1           0       -7.379142   -0.517402    0.282167
     40          1           0       -7.454752   -1.771278   -0.967388
 ---------------------------------------------------------------------

 SCF Done:  E(RHF) =  -470.732238090     A.U. after   11 cycles
 E2 =    -0.1583175793D+01 EUMP2 =    -0.47231541388296D+03

 The electronic state is 1-A.
 Alpha  occ. eigenvalues --  -11.21595 -11.21566 -11.21554 -11.21466 -11.21390
 Alpha  occ. eigenvalues --  -11.21345 -11.21331 -11.21279 -11.21067 -11.21045
 Alpha  occ. eigenvalues --  -11.21029 -11.20968  -1.08419  -1.08366  -1.03548
 Alpha  occ. eigenvalues --   -1.03437  -0.95998  -0.95892  -0.87015  -0.86915
 Alpha  occ. eigenvalues --   -0.79739  -0.79396  -0.78268  -0.78123  -0.65070
 Alpha  occ. eigenvalues --   -0.64987  -0.60999  -0.60813  -0.59508  -0.59146
 Alpha  occ. eigenvalues --   -0.57635  -0.57475  -0.55285  -0.55177  -0.52717
 Alpha  occ. eigenvalues --   -0.52553  -0.52459  -0.52289  -0.50003  -0.49814
 Alpha  occ. eigenvalues --   -0.47998  -0.47749  -0.46732  -0.46445  -0.45849
 Alpha  occ. eigenvalues --   -0.45725  -0.45678  -0.45469  -0.43781  -0.43661
 Alpha virt. eigenvalues --    0.21898   0.23066   0.23515   0.25039   0.25650
 Alpha virt. eigenvalues --    0.26623   0.26835   0.27295   0.27899   0.29217
 Alpha virt. eigenvalues --    0.29935   0.31059   0.31514   0.31923   0.32343

 Mulliken charges:
               1
     1  C   -0.298026
     2  C   -0.299541
     3  C   -0.475643
     4  H    0.149802
     5  H    0.148987
     6  H    0.151855
     7  H    0.151760
     8  H    0.155087
     9  H    0.155141
    10  H    0.160098
    11  C   -0.298115
    12  C   -0.301002
    13  C   -0.477293
    14  H    0.148919
    15  H    0.148887
    16  H    0.153951
    17  H    0.154936
    18  H    0.154803
    19  H    0.154920
    20  H    0.160376
    21  C   -0.298432
    22  C   -0.300371
    23  C   -0.477054
    24  H    0.149619
    25  H    0.149177
    26  H    0.151415
    27  H    0.151410
    28  H    0.157896
    29  H    0.154293
    30  H    0.162267
    31  C   -0.298195
    32  C   -0.299603
    33  C   -0.475687
    34  H    0.149520
    35  H    0.149564
    36  H    0.151925
    37  H    0.151811
    38  H    0.155151
    39  H    0.155181
    40  H    0.160211
 Sum of Mulliken charges =  -0.00000

 Dipole moment (field-independent basis, Debye):
    X=             -0.0016    Y=             -0.0038    Z=              0.0117  Tot=              0.0124
 Quadrupole moment (field-independent basis, Debye-Ang):
   XX=            -86.1767   YY=            -85.9064   ZZ=            -83.0226
   XY=              0.3912   XZ=             -0.1350   YZ=              0.3055

 Normal termination of Gaussian 16 at Thu May  6 02:13:09 2021.
