 Gaussian 16, Revision A.03,
 Gaussian 16:  EM64L-G16RevA.03 25-Dec-2016

 -------------
 #p 6-31g* mp2
 -------------

 ------------------------------------------------------
 Input file generated by CHIRIPA (05-May-2021 14:53:14)
 ------------------------------------------------------
 Symbolic Z-matrix:
 Charge =  0 Multiplicity = 1

                         Standard orientation:
 ---------------------------------------------------------------------
 Center     Atomic      Atomic             Coordinates (Angstroms)
 Number     Number       Type             X           Y           Z
 ---------------------------------------------------------------------
      1          6           0        4.580743    0.396328    0.404641
      2          6           0        3.238801    0.597606   -0.300103
      3          6           0        2.238730    1.385466    0.546613
      4          1           0        4.413023   -0.125473    1.356764
      5          1           0        5.005456    1.377890    0.656732
      6          1           0        2.817399   -0.384012   -0.552024
      7          1           0        3.409756    1.118818   -1.250749
      8          1           0        2.634638    2.377523    0.786781
      9          1           0        2.038916    0.866155    1.489476
     10          1           0        1.286399    1.517715    0.023701
     11          6           0        5.591058   -0.389593   -0.429218
     12          6           0        6.933000   -0.590871    0.275525
     13          6           0        7.933071   -1.378732   -0.571190
     14          1           0        5.166345   -1.371155   -0.681309
     15          1           0        5.758777    0.132208   -1.381342
     16          1           0        6.762045   -1.112083    1.226171
     17          1           0        7.354401    0.390746    0.527446
     18          1           0        8.132885   -0.859420   -1.514054
     19          1           0        7.537162   -2.370788   -0.811359
     20          1           0        8.885401   -1.510980   -0.048279
     21          6           0       -1.913008    1.429388    0.274549
     22          6           0       -2.699344    1.540456   -0.876911
     23          6           0       -3.843082    0.752033   -1.034396
     24          6           0       -4.172547   -0.141073   -0.016014
     25          6           0       -3.409398   -0.274773    1.142873
     26          6           0       -2.269916    0.523725    1.278996
     27          1           0       -1.026179    2.045767    0.388591
     28          1           0       -2.424582    2.242952   -1.658608
     29          1           0       -4.469746    0.817688   -1.915533
     30          1           0       -3.708761   -0.984050    1.904927
     31          1           0       -1.661115    0.435338    2.174314
     32          7           0       -5.381118   -0.981074   -0.171429
     33          8           0       -5.649878   -1.760308    0.740272
     34          8           0       -6.036752   -0.844327   -1.202002
 ---------------------------------------------------------------------

 SCF Done:  E(RHF) =  -669.535511072     A.U. after   15 cycles
 E2 =    -0.2090787682D+01 EUMP2 =    -0.67162629875369D+03

 The electronic state is 1-A.
 Alpha  occ. eigenvalues --  -20.60741 -20.60736 -15.85795 -11.31158 -11.27725
 Alpha  occ. eigenvalues --  -11.27720 -11.27429 -11.26738 -11.26725 -11.22398
 Alpha  occ. eigenvalues --  -11.22188 -11.22019 -11.22007 -11.21861 -11.21405
 Alpha  occ. eigenvalues --   -1.59817  -1.39371  -1.19327  -1.09028  -1.08720
 Alpha  occ. eigenvalues --   -1.04730  -1.04170  -0.96646  -0.95556  -0.87672
 Alpha  occ. eigenvalues --   -0.86124  -0.82391  -0.80241  -0.78802  -0.77439
 Alpha  occ. eigenvalues --   -0.72013  -0.71140  -0.70451  -0.65651  -0.64977
 Alpha  occ. eigenvalues --   -0.64734  -0.62078  -0.61557  -0.60076  -0.58243
 Alpha  occ. eigenvalues --   -0.55921  -0.55278  -0.53332  -0.53096  -0.52980
 Alpha  occ. eigenvalues --   -0.52819  -0.50573  -0.48773  -0.48768  -0.48549
 Alpha  occ. eigenvalues --   -0.47249  -0.46357  -0.46253  -0.44777  -0.44418
 Alpha  occ. eigenvalues --   -0.37293  -0.36336
 Alpha virt. eigenvalues --    0.05067   0.11317   0.16471   0.20519   0.22433
 Alpha virt. eigenvalues --    0.23896   0.26039   0.26284   0.26732   0.27332
 Alpha virt. eigenvalues --    0.28518   0.30081   0.30952   0.31430   0.32393

 Mulliken charges:
               1
     1  C   -0.299173
     2  C   -0.299086
     3  C   -0.480483
     4  H    0.150254
     5  H    0.150180
     6  H    0.155101
     7  H    0.153513
     8  H    0.157535
     9  H    0.154745
    10  H    0.153383
    11  C   -0.298850
    12  C   -0.300051
    13  C   -0.476043
    14  H    0.150832
    15  H    0.150367
    16  H    0.152436
    17  H    0.152225
    18  H    0.155626
    19  H    0.155994
    20  H    0.161407
    21  C   -0.173340
    22  C   -0.219694
    23  C   -0.170908
    24  C    0.158602
    25  C   -0.171129
    26  C   -0.219675
    27  H    0.231241
    28  H    0.223287
    29  H    0.275451
    30  H    0.275413
    31  H    0.223824
    32  N    0.488059
    33  O   -0.460530
    34  O   -0.460513
 Sum of Mulliken charges =  -0.00000

 Dipole moment (field-independent basis, Debye):
    X=              4.4544    Y=              2.9246    Z=              0.5360  Tot=              5.3556
 Quadrupole moment (field-independent basis, Debye-Ang):
   XX=           -130.7503   YY=            -94.9490   ZZ=            -91.0552
   XY=            -12.7720   XZ=             -1.2443   YZ=             -2.9682

 Normal termination of Gaussian 16 at Thu May  6 07:25:11 2021.
