 Gaussian 16, Revision A.03,
 Gaussian 16:  EM64L-G16RevA.03 25-Dec-2016

 -------------
 #p 6-31g* mp2
 -------------

 ------------------------------------------------------
 Input file generated by CHIRIPA (05-May-2021 14:53:17)
 ------------------------------------------------------
 Symbolic Z-matrix:
 Charge =  0 Multiplicity = 1

                         Standard orientation:
 ---------------------------------------------------------------------
 Center     Atomic      Atomic             Coordinates (Angstroms)
 Number     Number       Type             X           Y           Z
 ---------------------------------------------------------------------
      1          6           0       -4.484987    0.347113    0.341732
      2          6           0       -5.106041   -0.755774   -0.516125
      3          6           0       -6.488185   -1.182406   -0.020689
      4          1           0       -4.411841   -0.002596    1.380624
      5          1           0       -5.156653    1.216693    0.351203
      6          1           0       -4.432754   -1.622503   -0.525102
      7          1           0       -5.177541   -0.403469   -1.553133
      8          1           0       -7.179182   -0.333251   -0.028280
      9          1           0       -6.430163   -1.559211    1.005592
     10          1           0       -6.913661   -1.971651   -0.648322
     11          6           0       -3.103113    0.784319   -0.140972
     12          6           0       -2.482060    1.887206    0.716885
     13          6           0       -1.099916    2.313838    0.221449
     14          1           0       -2.431447   -0.085261   -0.150443
     15          1           0       -3.176260    1.134028   -1.179864
     16          1           0       -2.410559    1.534901    1.753893
     17          1           0       -3.155347    2.753935    0.725862
     18          1           0       -1.157937    2.690643   -0.804832
     19          1           0       -0.408918    1.464682    0.229040
     20          1           0       -0.674440    3.103082    0.849083
     21          6           0        4.853490    1.230181   -0.086308
     22          6           0        3.604379    1.582896   -0.607685
     23          6           0        2.550314    0.664476   -0.608504
     24          6           0        2.781442   -0.603623   -0.077659
     25          6           0        4.014524   -0.984975    0.449003
     26          6           0        5.054222   -0.050370    0.439445
     27          1           0        5.666733    1.949917   -0.089703
     28          1           0        3.445608    2.576672   -1.016641
     29          1           0        1.573199    0.911124   -1.005782
     30          1           0        4.142451   -1.983169    0.849826
     31          1           0        6.023241   -0.327062    0.845020
     32          7           0        1.673156   -1.584479   -0.073033
     33          8           0        1.902399   -2.695301    0.400419
     34          8           0        0.596223   -1.223878   -0.542949
 ---------------------------------------------------------------------

 SCF Done:  E(RHF) =  -669.536095188     A.U. after   15 cycles
 E2 =    -0.2091995950D+01 EUMP2 =    -0.67162809113835D+03

 The electronic state is 1-A.
 Alpha  occ. eigenvalues --  -20.60957 -20.60947 -15.85978 -11.31245 -11.27814
 Alpha  occ. eigenvalues --  -11.27765 -11.27543 -11.26813 -11.26789 -11.21136
 Alpha  occ. eigenvalues --  -11.20908 -11.20825 -11.20710 -11.20542 -11.20499
 Alpha  occ. eigenvalues --   -1.60011  -1.39569  -1.19415  -1.08830  -1.07777
 Alpha  occ. eigenvalues --   -1.04802  -1.02992  -0.95685  -0.95454  -0.86510
 Alpha  occ. eigenvalues --   -0.86195  -0.82512  -0.79073  -0.77643  -0.77481
 Alpha  occ. eigenvalues --   -0.72201  -0.71320  -0.70530  -0.65072  -0.64820
 Alpha  occ. eigenvalues --   -0.64388  -0.62176  -0.60378  -0.58822  -0.57061
 Alpha  occ. eigenvalues --   -0.55327  -0.54739  -0.53140  -0.52926  -0.52194
 Alpha  occ. eigenvalues --   -0.51857  -0.49437  -0.48959  -0.48915  -0.47372
 Alpha  occ. eigenvalues --   -0.46075  -0.45175  -0.45094  -0.44774  -0.43211
 Alpha  occ. eigenvalues --   -0.37396  -0.36391
 Alpha virt. eigenvalues --    0.04908   0.11187   0.16415   0.21207   0.23560
 Alpha virt. eigenvalues --    0.24715   0.26481   0.27314   0.27753   0.28410
 Alpha virt. eigenvalues --    0.29266   0.30870   0.31675   0.32019   0.32336

 Mulliken charges:
               1
     1  C   -0.297945
     2  C   -0.300298
     3  C   -0.475425
     4  H    0.149371
     5  H    0.145579
     6  H    0.158164
     7  H    0.150225
     8  H    0.152785
     9  H    0.154899
    10  H    0.159314
    11  C   -0.305666
    12  C   -0.296827
    13  C   -0.487518
    14  H    0.171393
    15  H    0.145808
    16  H    0.152409
    17  H    0.148695
    18  H    0.150002
    19  H    0.166496
    20  H    0.154876
    21  C   -0.170457
    22  C   -0.220015
    23  C   -0.172060
    24  C    0.156876
    25  C   -0.170694
    26  C   -0.218654
    27  H    0.225839
    28  H    0.224449
    29  H    0.281617
    30  H    0.275489
    31  H    0.223578
    32  N    0.490098
    33  O   -0.458728
    34  O   -0.463676
 Sum of Mulliken charges =  -0.00000

 Dipole moment (field-independent basis, Debye):
    X=              4.0577    Y=              3.2662    Z=             -0.0225  Tot=              5.2089
 Quadrupole moment (field-independent basis, Debye-Ang):
   XX=            -72.9620   YY=            -97.1388   ZZ=            -94.3311
   XY=              4.7836   XZ=              1.6744   YZ=             -2.3591

 Normal termination of Gaussian 16 at Thu May  6 15:38:56 2021.
