 Gaussian 16, Revision A.03,
 Gaussian 16:  EM64L-G16RevA.03 25-Dec-2016

 -------------
 #p 6-31g* mp2
 -------------

 ------------------------------------------------------
 Input file generated by CHIRIPA (05-May-2021 14:51:09)
 ------------------------------------------------------
 Symbolic Z-matrix:
 Charge =  0 Multiplicity = 1

                         Standard orientation:
 ---------------------------------------------------------------------
 Center     Atomic      Atomic             Coordinates (Angstroms)
 Number     Number       Type             X           Y           Z
 ---------------------------------------------------------------------
      1          6           0        3.299498   -0.647780   -0.503242
      2          6           0        3.473973   -1.890303    0.370645
      3          6           0        3.096656   -3.181690   -0.355818
      4          1           0        2.255821   -0.588566   -0.841145
      5          1           0        3.915120   -0.754389   -1.407144
      6          1           0        2.859275   -1.780769    1.273288
      7          1           0        4.517311   -1.946462    0.706664
      8          1           0        3.717933   -3.318057   -1.246896
      9          1           0        2.050476   -3.151422   -0.677053
     10          1           0        3.228900   -4.057399    0.287226
     11          6           0        3.672717    0.651100    0.209041
     12          6           0        3.498242    1.893623   -0.664846
     13          6           0        3.875558    3.185009    0.061617
     14          1           0        3.057095    0.757709    1.112943
     15          1           0        4.716394    0.591886    0.546944
     16          1           0        2.454904    1.949782   -1.000865
     17          1           0        4.112940    1.784088   -1.567489
     18          1           0        4.921739    3.154742    0.382852
     19          1           0        3.254282    3.321377    0.952695
     20          1           0        3.743315    4.060719   -0.581427
     21          6           0       -2.799146   -0.290692   -0.020160
     22          6           0       -1.707272    0.133179    0.962759
     23          6           0       -0.338660   -0.453039    0.614845
     24          1           0       -2.862141   -1.387354   -0.037796
     25          1           0       -2.512069    0.022239   -1.033598
     26          1           0       -1.996974   -0.179238    1.974235
     27          1           0       -1.647001    1.228964    0.978200
     28          1           0       -0.024032   -0.130998   -0.383103
     29          1           0       -0.375994   -1.547202    0.618593
     30          1           0        0.426991   -0.137253    1.330330
     31          6           0       -4.173069    0.287373    0.314362
     32          6           0       -5.264942   -0.136499   -0.668558
     33          6           0       -6.633554    0.449718   -0.320645
     34          1           0       -4.460146   -0.025559    1.327799
     35          1           0       -4.110075    1.384033    0.331998
     36          1           0       -5.325213   -1.232284   -0.683999
     37          1           0       -4.975240    0.175917   -1.680035
     38          1           0       -6.596222    1.543881   -0.324391
     39          1           0       -6.948184    0.127679    0.677303
     40          1           0       -7.399206    0.133932   -1.036128
 ---------------------------------------------------------------------

 SCF Done:  E(RHF) =  -470.732693701     A.U. after   11 cycles
 E2 =    -0.1583787872D+01 EUMP2 =    -0.47231648157316D+03

 The electronic state is 1-A.
 Alpha  occ. eigenvalues --  -11.21690 -11.21640 -11.21557 -11.21482 -11.21469
 Alpha  occ. eigenvalues --  -11.21406 -11.21304 -11.21205 -11.21182 -11.21101
 Alpha  occ. eigenvalues --  -11.21042 -11.20983  -1.08502  -1.08330  -1.03610
 Alpha  occ. eigenvalues --   -1.03446  -0.96076  -0.95888  -0.87101  -0.86904
 Alpha  occ. eigenvalues --   -0.79689  -0.79509  -0.78317  -0.78140  -0.65154
 Alpha  occ. eigenvalues --   -0.64964  -0.61013  -0.60848  -0.59421  -0.59266
 Alpha  occ. eigenvalues --   -0.57684  -0.57504  -0.55496  -0.55067  -0.52745
 Alpha  occ. eigenvalues --   -0.52608  -0.52505  -0.52315  -0.50055  -0.49795
 Alpha  occ. eigenvalues --   -0.48052  -0.47811  -0.46753  -0.46529  -0.45933
 Alpha  occ. eigenvalues --   -0.45787  -0.45673  -0.45378  -0.43835  -0.43690
 Alpha virt. eigenvalues --    0.20486   0.22950   0.23935   0.24622   0.25400
 Alpha virt. eigenvalues --    0.26017   0.26590   0.27685   0.27815   0.29692
 Alpha virt. eigenvalues --    0.30531   0.31407   0.31761   0.32030   0.32312

 Mulliken charges:
               1
     1  C   -0.303755
     2  C   -0.299976
     3  C   -0.476688
     4  H    0.158368
     5  H    0.148457
     6  H    0.153014
     7  H    0.151091
     8  H    0.154788
     9  H    0.156009
    10  H    0.159563
    11  C   -0.299329
    12  C   -0.299914
    13  C   -0.475617
    14  H    0.149856
    15  H    0.149324
    16  H    0.151576
    17  H    0.151842
    18  H    0.155187
    19  H    0.154927
    20  H    0.159924
    21  C   -0.298714
    22  C   -0.300442
    23  C   -0.480546
    24  H    0.149841
    25  H    0.149646
    26  H    0.152249
    27  H    0.152203
    28  H    0.156591
    29  H    0.156571
    30  H    0.163280
    31  C   -0.298311
    32  C   -0.299702
    33  C   -0.475751
    34  H    0.149687
    35  H    0.149777
    36  H    0.152049
    37  H    0.152017
    38  H    0.155246
    39  H    0.155249
    40  H    0.160412
 Sum of Mulliken charges =  -0.00000

 Dipole moment (field-independent basis, Debye):
    X=             -0.0694    Y=             -0.0014    Z=              0.0033  Tot=              0.0695
 Quadrupole moment (field-independent basis, Debye-Ang):
   XX=            -85.1728   YY=            -85.3564   ZZ=            -84.5251
   XY=              0.2402   XZ=             -0.3926   YZ=             -0.8974

 Normal termination of Gaussian 16 at Wed May  5 22:57:49 2021.
