 Gaussian 16, Revision A.03,
 Gaussian 16:  EM64L-G16RevA.03 25-Dec-2016

 -------------
 #p 6-31g* mp2
 -------------

 ------------------------------------------------------
 Input file generated by CHIRIPA (05-May-2021 14:57:24)
 ------------------------------------------------------
 Symbolic Z-matrix:
 Charge =  0 Multiplicity = 1

                         Standard orientation:
 ---------------------------------------------------------------------
 Center     Atomic      Atomic             Coordinates (Angstroms)
 Number     Number       Type             X           Y           Z
 ---------------------------------------------------------------------
      1          6           0       -6.119100    1.480041   -0.631020
      2          6           0       -6.145195    0.115833   -0.938878
      3          6           0       -5.067808   -0.708853   -0.601720
      4          6           0       -3.975526   -0.133475    0.045697
      5          6           0       -3.919782    1.222130    0.365884
      6          6           0       -5.008434    2.027870    0.019232
      7          1           0       -6.960416    2.113318   -0.896620
      8          1           0       -7.006430   -0.312352   -1.443831
      9          1           0       -5.061765   -1.768145   -0.828176
     10          1           0       -3.047323    1.620154    0.869679
     11          1           0       -4.985417    3.087000    0.259563
     12          7           0       -2.828981   -0.996504    0.407657
     13          8           0       -1.878446   -0.465270    0.977666
     14          8           0       -2.902563   -2.187840    0.114497
     15          6           0        2.028237   -1.048549    0.863188
     16          6           0        2.599171    0.032329    1.543083
     17          6           0        3.782622    0.616311    1.081610
     18          6           0        4.371014    0.091759   -0.068142
     19          6           0        3.826543   -0.984195   -0.767544
     20          6           0        2.642662   -1.552473   -0.287926
     21          1           0        1.108737   -1.496101    1.228719
     22          1           0        2.124200    0.425762    2.437319
     23          1           0        4.246119    1.453930    1.588545
     24          1           0        4.323188   -1.354481   -1.656166
     25          1           0        2.201520   -2.391809   -0.817977
     26          7           0        5.624109    0.701682   -0.566288
     27          8           0        6.122924    0.221057   -1.581581
     28          8           0        6.083742    1.648817    0.067991
 ---------------------------------------------------------------------

 SCF Done:  E(RHF) =  -868.340658807     A.U. after   16 cycles
 E2 =    -0.2598013934D+01 EUMP2 =    -0.87093867274168D+03

 The electronic state is 1-A.
 Alpha  occ. eigenvalues --  -20.61811 -20.61805 -20.60051 -20.60046 -15.86824
 Alpha  occ. eigenvalues --  -15.85100 -11.31886 -11.30223 -11.28420 -11.28410
 Alpha  occ. eigenvalues --  -11.28097 -11.27360 -11.27350 -11.26809 -11.26798
 Alpha  occ. eigenvalues --  -11.26230 -11.25663 -11.25642  -1.60869  -1.59134
 Alpha  occ. eigenvalues --   -1.40429  -1.38694  -1.20028  -1.18364  -1.09480
 Alpha  occ. eigenvalues --   -1.07746  -1.05384  -1.03750  -0.96368  -0.94626
 Alpha  occ. eigenvalues --   -0.86796  -0.85125  -0.83212  -0.81491  -0.78290
 Alpha  occ. eigenvalues --   -0.76619  -0.73072  -0.72160  -0.71321  -0.71130
 Alpha  occ. eigenvalues --   -0.70458  -0.69317  -0.65684  -0.65383  -0.63990
 Alpha  occ. eigenvalues --   -0.63726  -0.62735  -0.61120  -0.55895  -0.54049
 Alpha  occ. eigenvalues --   -0.53728  -0.53470  -0.52077  -0.51820  -0.49828
 Alpha  occ. eigenvalues --   -0.49794  -0.48091  -0.48053  -0.45896  -0.44156
 Alpha  occ. eigenvalues --   -0.37987  -0.36972  -0.36238  -0.35388
 Alpha virt. eigenvalues --    0.04224   0.05937   0.10687   0.12295   0.15783
 Alpha virt. eigenvalues --    0.17519   0.20860   0.22654   0.26790   0.27723
 Alpha virt. eigenvalues --    0.28324   0.29691   0.30473   0.31901   0.32444

 Mulliken charges:
               1
     1  C   -0.169626
     2  C   -0.218520
     3  C   -0.170360
     4  C    0.157740
     5  C   -0.170175
     6  C   -0.218429
     7  H    0.228150
     8  H    0.225574
     9  H    0.276108
    10  H    0.274971
    11  H    0.225673
    12  N    0.490016
    13  O   -0.468802
    14  O   -0.459773
    15  C   -0.171145
    16  C   -0.221231
    17  C   -0.172688
    18  C    0.156438
    19  C   -0.172271
    20  C   -0.221782
    21  H    0.248262
    22  H    0.222615
    23  H    0.271456
    24  H    0.272084
    25  H    0.224356
    26  N    0.488352
    27  O   -0.463263
    28  O   -0.463731
 Sum of Mulliken charges =  -0.00000

 Dipole moment (field-independent basis, Debye):
    X=             -9.0819    Y=              0.8263    Z=              0.5053  Tot=              9.1334
 Quadrupole moment (field-independent basis, Debye-Ang):
   XX=           -111.9713   YY=           -101.2227   ZZ=           -102.6620
   XY=            -20.0466   XZ=             14.3977   YZ=              5.1773

 Normal termination of Gaussian 16 at Thu May  6 03:29:02 2021.
