 Gaussian 16, Revision A.03,
 Gaussian 16:  EM64L-G16RevA.03 25-Dec-2016

 -------------
 #p 6-31g* mp2
 -------------

 ------------------------------------------------------
 Input file generated by CHIRIPA (05-May-2021 14:53:15)
 ------------------------------------------------------
 Symbolic Z-matrix:
 Charge =  0 Multiplicity = 1

                         Standard orientation:
 ---------------------------------------------------------------------
 Center     Atomic      Atomic             Coordinates (Angstroms)
 Number     Number       Type             X           Y           Z
 ---------------------------------------------------------------------
      1          6           0       -4.231690    0.036480    0.680547
      2          6           0       -2.770943    0.091165    0.231978
      3          6           0       -1.802298    0.298989    1.396594
      4          1           0       -4.482372    0.968119    1.206048
      5          1           0       -4.353863   -0.776327    1.409802
      6          1           0       -2.651850    0.902739   -0.497255
      7          1           0       -2.523765   -0.840633   -0.292685
      8          1           0       -1.891841   -0.515882    2.122244
      9          1           0       -2.020653    1.237396    1.916512
     10          1           0       -0.763665    0.335023    1.053371
     11          6           0       -5.212140   -0.170851   -0.472476
     12          6           0       -6.672886   -0.225535   -0.023907
     13          6           0       -7.641531   -0.433359   -1.188522
     14          1           0       -5.089967    0.641956   -1.201731
     15          1           0       -4.961458   -1.102490   -0.997977
     16          1           0       -6.920065    0.706263    0.500756
     17          1           0       -6.791980   -1.037109    0.705326
     18          1           0       -7.423176   -1.371766   -1.708441
     19          1           0       -7.551989    0.381511   -1.914173
     20          1           0       -8.680165   -0.469393   -0.845300
     21          6           0        2.791655    2.410213   -0.038417
     22          6           0        3.940805    2.111927   -0.778013
     23          6           0        4.446928    0.809073   -0.808973
     24          6           0        3.775747   -0.175448   -0.085421
     25          6           0        2.628703    0.090344    0.660860
     26          6           0        2.140421    1.400250    0.677397
     27          1           0        2.405416    3.425040   -0.019969
     28          1           0        4.448629    2.894267   -1.334883
     29          1           0        5.334692    0.550444   -1.373247
     30          1           0        2.144251   -0.710710    1.205870
     31          1           0        1.247781    1.628999    1.252647
     32          7           0        4.302114   -1.558454   -0.110563
     33          8           0        3.692423   -2.407938    0.535418
     34          8           0        5.314404   -1.766783   -0.775774
 ---------------------------------------------------------------------

 SCF Done:  E(RHF) =  -669.535492988     A.U. after   15 cycles
 E2 =    -0.2091058864D+01 EUMP2 =    -0.67162655185129D+03

 The electronic state is 1-A.
 Alpha  occ. eigenvalues --  -20.60749 -20.60744 -15.85803 -11.31172 -11.27748
 Alpha  occ. eigenvalues --  -11.27734 -11.27482 -11.26762 -11.26715 -11.22150
 Alpha  occ. eigenvalues --  -11.21892 -11.21854 -11.21801 -11.21679 -11.21271
 Alpha  occ. eigenvalues --   -1.59825  -1.39378  -1.19346  -1.08825  -1.08738
 Alpha  occ. eigenvalues --   -1.04752  -1.03965  -0.96439  -0.95573  -0.87468
 Alpha  occ. eigenvalues --   -0.86143  -0.82409  -0.80031  -0.78608  -0.77454
 Alpha  occ. eigenvalues --   -0.72021  -0.71148  -0.70453  -0.65450  -0.65000
 Alpha  occ. eigenvalues --   -0.64769  -0.62154  -0.61354  -0.59802  -0.58026
 Alpha  occ. eigenvalues --   -0.55715  -0.55251  -0.53319  -0.53052  -0.52889
 Alpha  occ. eigenvalues --   -0.52651  -0.50364  -0.48780  -0.48776  -0.48341
 Alpha  occ. eigenvalues --   -0.47041  -0.46160  -0.46064  -0.44783  -0.44218
 Alpha  occ. eigenvalues --   -0.37325  -0.36342
 Alpha virt. eigenvalues --    0.05058   0.11287   0.16446   0.20585   0.22619
 Alpha virt. eigenvalues --    0.23911   0.26093   0.26294   0.27128   0.28142
 Alpha virt. eigenvalues --    0.28639   0.30561   0.30990   0.31536   0.32238

 Mulliken charges:
               1
     1  C   -0.299116
     2  C   -0.298716
     3  C   -0.482778
     4  H    0.149127
     5  H    0.151374
     6  H    0.151511
     7  H    0.156434
     8  H    0.160374
     9  H    0.153672
    10  H    0.154663
    11  C   -0.298724
    12  C   -0.299967
    13  C   -0.475951
    14  H    0.149339
    15  H    0.151474
    16  H    0.151674
    17  H    0.152864
    18  H    0.156166
    19  H    0.155100
    20  H    0.161028
    21  C   -0.171450
    22  C   -0.218551
    23  C   -0.170906
    24  C    0.158421
    25  C   -0.172195
    26  C   -0.221620
    27  H    0.225726
    28  H    0.223365
    29  H    0.275605
    30  H    0.276256
    31  H    0.228561
    32  N    0.488144
    33  O   -0.460354
    34  O   -0.460552
 Sum of Mulliken charges =  -0.00000

 Dipole moment (field-independent basis, Debye):
    X=             -1.9883    Y=              4.8423    Z=              0.0611  Tot=              5.2350
 Quadrupole moment (field-independent basis, Debye-Ang):
   XX=           -106.4612   YY=            -95.5830   ZZ=            -94.0927
   XY=             20.1262   XZ=             -2.6909   YZ=             -1.7565

 Normal termination of Gaussian 16 at Thu May  6 18:48:27 2021.
