 Gaussian 16, Revision A.03,
 Gaussian 16:  EM64L-G16RevA.03 25-Dec-2016

 -------------
 #p 6-31g* mp2
 -------------

 ------------------------------------------------------
 Input file generated by CHIRIPA (05-May-2021 14:55:20)
 ------------------------------------------------------
 Symbolic Z-matrix:
 Charge =  0 Multiplicity = 1

                         Standard orientation:
 ---------------------------------------------------------------------
 Center     Atomic      Atomic             Coordinates (Angstroms)
 Number     Number       Type             X           Y           Z
 ---------------------------------------------------------------------
      1          6           0        5.023524    1.631209    0.604825
      2          6           0        3.735879    2.086813    0.303302
      3          6           0        2.771710    1.208476   -0.200138
      4          6           0        3.131052   -0.124893   -0.390637
      5          6           0        4.405510   -0.609088   -0.099774
      6          6           0        5.353648    0.287082    0.402681
      7          1           0        5.766287    2.320448    0.995527
      8          1           0        3.476686    3.130141    0.459282
      9          1           0        1.767399    1.534484   -0.441996
     10          1           0        4.634230   -1.654800   -0.265887
     11          1           0        6.352868   -0.069546    0.635965
     12          7           0        2.118815   -1.064188   -0.923085
     13          8           0        2.460434   -2.234102   -1.081945
     14          8           0        1.002973   -0.612709   -1.171477
     15          6           0       -3.466872   -0.027506    0.506742
     16          6           0       -2.999517   -1.063694    1.529425
     17          6           0       -1.487913   -1.029821    1.756807
     18          1           0       -2.947405   -0.201375   -0.445554
     19          1           0       -3.168701    0.973793    0.847169
     20          1           0       -3.299694   -2.062612    1.187853
     21          1           0       -3.520299   -0.887457    2.479341
     22          1           0       -1.175079   -0.045902    2.121003
     23          1           0       -0.953221   -1.227734    0.822176
     24          1           0       -1.175563   -1.778553    2.491449
     25          6           0       -4.975702   -0.049075    0.268638
     26          6           0       -5.443058    0.987113   -0.754043
     27          6           0       -6.954662    0.953240   -0.981427
     28          1           0       -5.273875   -1.050374   -0.071788
     29          1           0       -5.495170    0.124794    1.220935
     30          1           0       -4.922276    0.810876   -1.703961
     31          1           0       -5.142881    1.986031   -0.412472
     32          1           0       -7.489354    1.151153   -0.046795
     33          1           0       -7.267496   -0.030679   -1.345622
     34          1           0       -7.267012    1.701972   -1.716068
 ---------------------------------------------------------------------

 SCF Done:  E(RHF) =  -669.536395835     A.U. after   15 cycles
 E2 =    -0.2090897730D+01 EUMP2 =    -0.67162729356516D+03

 The electronic state is 1-A.
 Alpha  occ. eigenvalues --  -20.60942 -20.60934 -15.85962 -11.31261 -11.27825
 Alpha  occ. eigenvalues --  -11.27818 -11.27564 -11.26830 -11.26820 -11.21092
 Alpha  occ. eigenvalues --  -11.20780 -11.20768 -11.20652 -11.20582 -11.20006
 Alpha  occ. eigenvalues --   -1.59994  -1.39552  -1.19429  -1.08839  -1.07741
 Alpha  occ. eigenvalues --   -1.04824  -1.02830  -0.95685  -0.95272  -0.86292
 Alpha  occ. eigenvalues --   -0.86225  -0.82520  -0.78915  -0.77587  -0.77526
 Alpha  occ. eigenvalues --   -0.72190  -0.71301  -0.70541  -0.65087  -0.64829
 Alpha  occ. eigenvalues --   -0.64369  -0.62171  -0.60221  -0.58668  -0.56884
 Alpha  occ. eigenvalues --   -0.55333  -0.54547  -0.53155  -0.52916  -0.51988
 Alpha  occ. eigenvalues --   -0.51696  -0.49238  -0.48949  -0.48916  -0.47236
 Alpha  occ. eigenvalues --   -0.45971  -0.45172  -0.45047  -0.44730  -0.43095
 Alpha  occ. eigenvalues --   -0.37407  -0.36423
 Alpha virt. eigenvalues --    0.04921   0.11231   0.16396   0.21345   0.23544
 Alpha virt. eigenvalues --    0.25028   0.27247   0.27360   0.27962   0.28325
 Alpha virt. eigenvalues --    0.28861   0.30941   0.32134   0.32267   0.32581

 Mulliken charges:
               1
     1  C   -0.170521
     2  C   -0.218640
     3  C   -0.170345
     4  C    0.158705
     5  C   -0.170716
     6  C   -0.218621
     7  H    0.225880
     8  H    0.223750
     9  H    0.276227
    10  H    0.275730
    11  H    0.223688
    12  N    0.488385
    13  O   -0.458817
    14  O   -0.459992
    15  C   -0.299429
    16  C   -0.298097
    17  C   -0.486359
    18  H    0.159222
    19  H    0.144402
    20  H    0.152500
    21  H    0.146764
    22  H    0.145727
    23  H    0.180152
    24  H    0.155161
    25  C   -0.297892
    26  C   -0.299308
    27  C   -0.475316
    28  H    0.149867
    29  H    0.147010
    30  H    0.153677
    31  H    0.149492
    32  H    0.153796
    33  H    0.155337
    34  H    0.158584
 Sum of Mulliken charges =  -0.00000

 Dipole moment (field-independent basis, Debye):
    X=              3.8100    Y=              3.2497    Z=              1.7211  Tot=              5.2952
 Quadrupole moment (field-independent basis, Debye-Ang):
   XX=            -72.3158   YY=            -92.6227   ZZ=            -97.0477
   XY=              7.4536   XZ=              4.7499   YZ=             -0.9857

 Normal termination of Gaussian 16 at Thu May  6 17:28:31 2021.
