 Gaussian 16, Revision A.03,
 Gaussian 16:  EM64L-G16RevA.03 25-Dec-2016

 -------------
 #p 6-31g* mp2
 -------------

 ------------------------------------------------------
 Input file generated by CHIRIPA (05-May-2021 14:53:16)
 ------------------------------------------------------
 Symbolic Z-matrix:
 Charge =  0 Multiplicity = 1

                         Standard orientation:
 ---------------------------------------------------------------------
 Center     Atomic      Atomic             Coordinates (Angstroms)
 Number     Number       Type             X           Y           Z
 ---------------------------------------------------------------------
      1          6           0        3.300464    0.289080    0.581044
      2          6           0        3.789732   -0.949162   -0.170858
      3          6           0        4.665249   -1.857649    0.692806
      4          1           0        4.168256    0.854346    0.947591
      5          1           0        2.736677   -0.028710    1.469047
      6          1           0        4.351250   -0.629138   -1.057931
      7          1           0        2.920678   -1.511445   -0.535822
      8          1           0        4.111253   -2.205208    1.570810
      9          1           0        5.549953   -1.317889    1.045734
     10          1           0        5.003984   -2.736625    0.135562
     11          6           0        2.423996    1.207097   -0.269119
     12          6           0        1.934727    2.445339    0.482784
     13          6           0        1.059210    3.353826   -0.380880
     14          1           0        2.987782    1.524888   -1.157122
     15          1           0        1.556204    0.641831   -0.635665
     16          1           0        2.803782    3.007622    0.847747
     17          1           0        1.373209    2.125315    1.369857
     18          1           0        0.174506    2.814066   -0.733809
     19          1           0        1.613207    3.701386   -1.258884
     20          1           0        0.720476    4.232802    0.176364
     21          6           0       -3.910871    1.184950    0.534178
     22          6           0       -2.893939    1.487295   -0.377392
     23          6           0       -1.960511    0.514760   -0.748114
     24          6           0       -2.074208   -0.755503   -0.185268
     25          6           0       -3.076035   -1.087447    0.725471
     26          6           0       -3.998518   -0.099191    1.081735
     27          1           0       -4.631729    1.946545    0.816547
     28          1           0       -2.823431    2.483729   -0.804233
     29          1           0       -1.163206    0.721726   -1.451599
     30          1           0       -3.120619   -2.089670    1.134105
     31          1           0       -4.787229   -0.336837    1.789904
     32          7           0       -1.091823   -1.793403   -0.570081
     33          8           0       -1.213689   -2.904969   -0.059977
     34          8           0       -0.218564   -1.475691   -1.374516
 ---------------------------------------------------------------------

 SCF Done:  E(RHF) =  -669.536212843     A.U. after   15 cycles
 E2 =    -0.2093410392D+01 EUMP2 =    -0.67162962323501D+03

 The electronic state is 1-A.
 Alpha  occ. eigenvalues --  -20.61076 -20.61067 -15.86076 -11.31348 -11.27904
 Alpha  occ. eigenvalues --  -11.27891 -11.27623 -11.26902 -11.26884 -11.21457
 Alpha  occ. eigenvalues --  -11.21324 -11.20793 -11.20713 -11.20573 -11.20244
 Alpha  occ. eigenvalues --   -1.60118  -1.39676  -1.19513  -1.08923  -1.07886
 Alpha  occ. eigenvalues --   -1.04902  -1.03058  -0.95775  -0.95549  -0.86585
 Alpha  occ. eigenvalues --   -0.86301  -0.82611  -0.79148  -0.77765  -0.77516
 Alpha  occ. eigenvalues --   -0.72301  -0.71423  -0.70624  -0.65171  -0.64914
 Alpha  occ. eigenvalues --   -0.64509  -0.62271  -0.60439  -0.58968  -0.57120
 Alpha  occ. eigenvalues --   -0.55408  -0.54864  -0.53222  -0.52989  -0.52282
 Alpha  occ. eigenvalues --   -0.51980  -0.49569  -0.49057  -0.49043  -0.47443
 Alpha  occ. eigenvalues --   -0.46150  -0.45480  -0.45158  -0.44583  -0.43271
 Alpha  occ. eigenvalues --   -0.37483  -0.36475
 Alpha virt. eigenvalues --    0.04767   0.11103   0.16189   0.20303   0.23395
 Alpha virt. eigenvalues --    0.24409   0.26051   0.27193   0.27717   0.28385
 Alpha virt. eigenvalues --    0.29575   0.30718   0.31615   0.32025   0.32441

 Mulliken charges:
               1
     1  C   -0.296506
     2  C   -0.306687
     3  C   -0.475189
     4  H    0.145533
     5  H    0.147248
     6  H    0.148382
     7  H    0.173432
     8  H    0.154752
     9  H    0.150363
    10  H    0.160629
    11  C   -0.310051
    12  C   -0.298796
    13  C   -0.475734
    14  H    0.147725
    15  H    0.165817
    16  H    0.152038
    17  H    0.150582
    18  H    0.143026
    19  H    0.157294
    20  H    0.158097
    21  C   -0.170645
    22  C   -0.218349
    23  C   -0.172124
    24  C    0.157510
    25  C   -0.170853
    26  C   -0.218460
    27  H    0.226456
    28  H    0.225735
    29  H    0.278366
    30  H    0.275859
    31  H    0.224103
    32  N    0.488682
    33  O   -0.457835
    34  O   -0.460401
 Sum of Mulliken charges =  -0.00000

 Dipole moment (field-independent basis, Debye):
    X=             -3.6398    Y=              3.4432    Z=              1.3041  Tot=              5.1773
 Quadrupole moment (field-independent basis, Debye-Ang):
   XX=            -79.9197   YY=            -99.0674   ZZ=            -94.2349
   XY=             -2.6703   XZ=             -4.7611   YZ=             -3.6825

 Normal termination of Gaussian 16 at Thu May  6 17:12:32 2021.
