 Gaussian 16, Revision A.03,
 Gaussian 16:  EM64L-G16RevA.03 25-Dec-2016

 -------------
 #p 6-31g* mp2
 -------------

 ------------------------------------------------------
 Input file generated by CHIRIPA (05-May-2021 14:51:09)
 ------------------------------------------------------
 Symbolic Z-matrix:
 Charge =  0 Multiplicity = 1

                         Standard orientation:
 ---------------------------------------------------------------------
 Center     Atomic      Atomic             Coordinates (Angstroms)
 Number     Number       Type             X           Y           Z
 ---------------------------------------------------------------------
      1          6           0        1.747556    1.145597    0.320658
      2          6           0        1.896117    2.661747    0.451825
      3          6           0        0.740164    3.304856    1.218623
      4          1           0        0.799030    0.918905   -0.185161
      5          1           0        1.680423    0.702593    1.323970
      6          1           0        1.964340    3.101620   -0.551406
      7          1           0        2.844490    2.884862    0.957220
      8          1           0        0.673292    2.893472    2.230993
      9          1           0       -0.211859    3.111462    0.713795
     10          1           0        0.866625    4.388898    1.300599
     11          6           0        2.895471    0.488262   -0.443495
     12          6           0        2.746911   -1.027888   -0.574662
     13          6           0        3.902863   -1.670997   -1.341460
     14          1           0        2.962605    0.931267   -1.446807
     15          1           0        3.843998    0.714954    0.062325
     16          1           0        1.798537   -1.251003   -1.080057
     17          1           0        2.678687   -1.467761    0.428569
     18          1           0        4.854887   -1.477603   -0.836632
     19          1           0        3.969736   -1.259613   -2.353829
     20          1           0        3.776403   -2.755039   -1.423436
     21          6           0       -3.025388   -0.547988   -0.063736
     22          6           0       -3.045345    0.734813   -0.895606
     23          6           0       -4.460573    1.260560   -1.137503
     24          1           0       -3.621725   -1.317197   -0.573287
     25          1           0       -3.517172   -0.359089    0.900558
     26          1           0       -2.552441    0.543927   -1.857492
     27          1           0       -2.448733    1.500999   -0.384109
     28          1           0       -4.958183    1.478731   -0.187036
     29          1           0       -5.062481    0.516221   -1.668791
     30          1           0       -4.451484    2.178064   -1.734130
     31          6           0       -1.617640   -1.085872    0.186572
     32          6           0       -1.597682   -2.368673    1.018443
     33          6           0       -0.182455   -2.894419    1.260340
     34          1           0       -1.125856   -1.274770   -0.777720
     35          1           0       -1.021303   -0.316662    0.696125
     36          1           0       -2.194295   -3.134858    0.506946
     37          1           0       -2.090587   -2.177786    1.980329
     38          1           0        0.419453   -2.150080    1.791628
     39          1           0        0.315155   -3.112591    0.309873
     40          1           0       -0.191543   -3.811923    1.856967
 ---------------------------------------------------------------------

 SCF Done:  E(RHF) =  -470.732132775     A.U. after   11 cycles
 E2 =    -0.1585379133D+01 EUMP2 =    -0.47231751190823D+03

 The electronic state is 1-A.
 Alpha  occ. eigenvalues --  -11.21651 -11.21591 -11.21559 -11.21498 -11.21382
 Alpha  occ. eigenvalues --  -11.21346 -11.21291 -11.21284 -11.21112 -11.21098
 Alpha  occ. eigenvalues --  -11.21025 -11.20982  -1.08469  -1.08350  -1.03546
 Alpha  occ. eigenvalues --   -1.03479  -0.95997  -0.95928  -0.87036  -0.86925
 Alpha  occ. eigenvalues --   -0.79696  -0.79490  -0.78576  -0.77875  -0.65067
 Alpha  occ. eigenvalues --   -0.65025  -0.60943  -0.60884  -0.59420  -0.59258
 Alpha  occ. eigenvalues --   -0.57732  -0.57424  -0.55298  -0.55207  -0.52681
 Alpha  occ. eigenvalues --   -0.52645  -0.52556  -0.52233  -0.49955  -0.49866
 Alpha  occ. eigenvalues --   -0.48172  -0.47704  -0.46727  -0.46633  -0.46435
 Alpha  occ. eigenvalues --   -0.45727  -0.45540  -0.44836  -0.43770  -0.43737
 Alpha virt. eigenvalues --    0.20704   0.21953   0.23529   0.23839   0.24690
 Alpha virt. eigenvalues --    0.25740   0.26669   0.27268   0.28518   0.30057
 Alpha virt. eigenvalues --    0.30777   0.31254   0.31346   0.31760   0.32283

 Mulliken charges:
               1
     1  C   -0.305123
     2  C   -0.298823
     3  C   -0.478929
     4  H    0.158521
     5  H    0.147992
     6  H    0.151997
     7  H    0.151770
     8  H    0.154733
     9  H    0.156825
    10  H    0.160787
    11  C   -0.298010
    12  C   -0.303476
    13  C   -0.475972
    14  H    0.148946
    15  H    0.149081
    16  H    0.154107
    17  H    0.155832
    18  H    0.155020
    19  H    0.154658
    20  H    0.159900
    21  C   -0.297518
    22  C   -0.303298
    23  C   -0.475489
    24  H    0.149461
    25  H    0.149620
    26  H    0.151381
    27  H    0.153902
    28  H    0.155538
    29  H    0.155435
    30  H    0.160237
    31  C   -0.305339
    32  C   -0.299621
    33  C   -0.477821
    34  H    0.148726
    35  H    0.158387
    36  H    0.151325
    37  H    0.151434
    38  H    0.156431
    39  H    0.158347
    40  H    0.159025
 Sum of Mulliken charges =  -0.00000

 Dipole moment (field-independent basis, Debye):
    X=             -0.0065    Y=             -0.0034    Z=              0.0044  Tot=              0.0085
 Quadrupole moment (field-independent basis, Debye-Ang):
   XX=            -86.1475   YY=            -85.1818   ZZ=            -83.6750
   XY=              0.8614   XZ=              0.6964   YZ=              0.1732

 Normal termination of Gaussian 16 at Thu May  6 03:43:54 2021.
