 Gaussian 16, Revision A.03,
 Gaussian 16:  EM64L-G16RevA.03 25-Dec-2016

 -------------
 #p 6-31g* mp2
 -------------

 ------------------------------------------------------
 Input file generated by CHIRIPA (05-May-2021 14:57:23)
 ------------------------------------------------------
 Symbolic Z-matrix:
 Charge =  0 Multiplicity = 1

                         Standard orientation:
 ---------------------------------------------------------------------
 Center     Atomic      Atomic             Coordinates (Angstroms)
 Number     Number       Type             X           Y           Z
 ---------------------------------------------------------------------
      1          6           0       -2.201471    2.002469    1.032556
      2          6           0       -1.903643    1.595099   -0.272001
      3          6           0       -2.603569    0.539179   -0.863343
      4          6           0       -3.599583   -0.089857   -0.117985
      5          6           0       -3.919531    0.292864    1.183725
      6          6           0       -3.206693    1.351200    1.754981
      7          1           0       -1.652737    2.823672    1.484123
      8          1           0       -1.123484    2.099048   -0.835413
      9          1           0       -2.393483    0.203377   -1.871569
     10          1           0       -4.702605   -0.228833    1.720425
     11          1           0       -3.440138    1.665428    2.768297
     12          7           0       -4.347398   -1.208991   -0.733380
     13          8           0       -5.220351   -1.746850   -0.055665
     14          8           0       -4.046422   -1.527119   -1.881790
     15          6           0        2.901056    2.243275   -0.738006
     16          6           0        4.087105    1.640359   -1.169631
     17          6           0        4.416029    0.345435   -0.757889
     18          6           0        3.531949   -0.320606    0.089509
     19          6           0        2.342797    0.253134    0.536756
     20          6           0        2.034216    1.548962    0.112312
     21          1           0        2.653441    3.249554   -1.062791
     22          1           0        4.762194    2.177192   -1.830017
     23          1           0        5.327644   -0.145113   -1.076854
     24          1           0        1.689741   -0.307074    1.194862
     25          1           0        1.112424    2.014702    0.449109
     26          7           0        3.869399   -1.691962    0.532125
     27          8           0        3.073718   -2.257583    1.278853
     28          8           0        4.923183   -2.175243    0.123941
 ---------------------------------------------------------------------

 SCF Done:  E(RHF) =  -868.336422267     A.U. after   16 cycles
 E2 =    -0.2600470654D+01 EUMP2 =    -0.87093689292018D+03

 The electronic state is 1-A.
 Alpha  occ. eigenvalues --  -20.61110 -20.61104 -20.61096 -20.61091 -15.86170
 Alpha  occ. eigenvalues --  -15.86157 -11.31732 -11.31671 -11.28339 -11.28292
 Alpha  occ. eigenvalues --  -11.28291 -11.28252 -11.28199 -11.28106 -11.27476
 Alpha  occ. eigenvalues --  -11.27403 -11.27367 -11.27292  -1.60179  -1.60169
 Alpha  occ. eigenvalues --   -1.39728  -1.39718  -1.19941  -1.19878  -1.09328
 Alpha  occ. eigenvalues --   -1.09255  -1.05382  -1.05293  -0.96114  -0.96058
 Alpha  occ. eigenvalues --   -0.86837  -0.86657  -0.82936  -0.82884  -0.77978
 Alpha  occ. eigenvalues --   -0.77855  -0.72389  -0.72371  -0.71502  -0.71494
 Alpha  occ. eigenvalues --   -0.71087  -0.71000  -0.65699  -0.65564  -0.65535
 Alpha  occ. eigenvalues --   -0.65115  -0.62812  -0.62520  -0.55927  -0.55839
 Alpha  occ. eigenvalues --   -0.53777  -0.53626  -0.53526  -0.53255  -0.49169
 Alpha  occ. eigenvalues --   -0.49138  -0.49126  -0.49116  -0.45090  -0.45089
 Alpha  occ. eigenvalues --   -0.37988  -0.37879  -0.37067  -0.36786
 Alpha virt. eigenvalues --    0.04572   0.04665   0.10387   0.10815   0.15908
 Alpha virt. eigenvalues --    0.16184   0.19020   0.21878   0.25335   0.26803
 Alpha virt. eigenvalues --    0.27803   0.28571   0.30085   0.31074   0.31708

 Mulliken charges:
               1
     1  C   -0.175639
     2  C   -0.220975
     3  C   -0.169769
     4  C    0.159608
     5  C   -0.169410
     6  C   -0.217622
     7  H    0.221841
     8  H    0.218794
     9  H    0.278380
    10  H    0.278590
    11  H    0.225981
    12  N    0.488149
    13  O   -0.458022
    14  O   -0.458265
    15  C   -0.172341
    16  C   -0.218106
    17  C   -0.169671
    18  C    0.159069
    19  C   -0.170459
    20  C   -0.221614
    21  H    0.223690
    22  H    0.225196
    23  H    0.277806
    24  H    0.278325
    25  H    0.215645
    26  N    0.488070
    27  O   -0.458468
    28  O   -0.458784
 Sum of Mulliken charges =  -0.00000

 Dipole moment (field-independent basis, Debye):
    X=              1.3692    Y=              8.5223    Z=              0.5979  Tot=              8.6523
 Quadrupole moment (field-independent basis, Debye-Ang):
   XX=           -126.3243   YY=           -110.3157   ZZ=           -101.3254
   XY=              3.6065   XZ=            -19.2022   YZ=             -0.3708

 Normal termination of Gaussian 16 at Wed May  5 17:52:06 2021.
