 Gaussian 16, Revision A.03,
 Gaussian 16:  EM64L-G16RevA.03 25-Dec-2016

 -------------
 #p 6-31g* mp2
 -------------

 ------------------------------------------------------
 Input file generated by CHIRIPA (05-May-2021 14:57:22)
 ------------------------------------------------------
 Symbolic Z-matrix:
 Charge =  0 Multiplicity = 1

                         Standard orientation:
 ---------------------------------------------------------------------
 Center     Atomic      Atomic             Coordinates (Angstroms)
 Number     Number       Type             X           Y           Z
 ---------------------------------------------------------------------
      1          6           0       -5.663544    1.031208   -0.751372
      2          6           0       -5.799743    0.078549    0.263720
      3          6           0       -4.685088   -0.621976    0.734205
      4          6           0       -3.443670   -0.343447    0.164473
      5          6           0       -3.275687    0.599805   -0.848121
      6          6           0       -4.404171    1.288342   -1.303080
      7          1           0       -6.534807    1.570736   -1.110826
      8          1           0       -6.776557   -0.123211    0.694038
      9          1           0       -4.762041   -1.364704    1.518967
     10          1           0       -2.288962    0.779158   -1.257542
     11          1           0       -4.295411    2.027643   -2.091528
     12          7           0       -2.256315   -1.078716    0.654336
     13          8           0       -1.173590   -0.814950    0.135904
     14          8           0       -2.430873   -1.904863    1.547448
     15          6           0        2.993364    2.545384    0.659046
     16          6           0        4.273378    2.053085    0.934229
     17          6           0        4.642223    0.767389    0.527432
     18          6           0        3.701814   -0.002324   -0.155548
     19          6           0        2.418828    0.459923   -0.444625
     20          6           0        2.071798    1.748637   -0.028291
     21          1           0        2.715309    3.545317    0.978760
     22          1           0        4.991133    2.669621    1.467855
     23          1           0        5.626396    0.361346    0.727317
     24          1           0        1.725001   -0.178163   -0.978355
     25          1           0        1.077013    2.128351   -0.243380
     26          7           0        4.080746   -1.365032   -0.591253
     27          8           0        3.233952   -2.023315   -1.191453
     28          8           0        5.217373   -1.749035   -0.324310
 ---------------------------------------------------------------------

 SCF Done:  E(RHF) =  -868.338111395     A.U. after   16 cycles
 E2 =    -0.2599160890D+01 EUMP2 =    -0.87093727228457D+03

 The electronic state is 1-A.
 Alpha  occ. eigenvalues --  -20.61256 -20.61211 -20.59912 -20.59877 -15.86291
 Alpha  occ. eigenvalues --  -15.84951 -11.31627 -11.30300 -11.28240 -11.28150
 Alpha  occ. eigenvalues --  -11.27900 -11.27210 -11.27160 -11.26965 -11.26791
 Alpha  occ. eigenvalues --  -11.26746 -11.25996 -11.25923  -1.60292  -1.58973
 Alpha  occ. eigenvalues --   -1.39855  -1.38524  -1.19788  -1.18510  -1.09181
 Alpha  occ. eigenvalues --   -1.07930  -1.05191  -1.03907  -0.96026  -0.94749
 Alpha  occ. eigenvalues --   -0.86589  -0.85323  -0.82869  -0.81577  -0.77927
 Alpha  occ. eigenvalues --   -0.76600  -0.72517  -0.71609  -0.71175  -0.70897
 Alpha  occ. eigenvalues --   -0.70292  -0.69642  -0.65445  -0.65191  -0.64173
 Alpha  occ. eigenvalues --   -0.63942  -0.62548  -0.61238  -0.55678  -0.54478
 Alpha  occ. eigenvalues --   -0.53514  -0.53285  -0.52250  -0.52015  -0.49269
 Alpha  occ. eigenvalues --   -0.49233  -0.47944  -0.47915  -0.45263  -0.43931
 Alpha  occ. eigenvalues --   -0.37754  -0.36793  -0.36539  -0.35494
 Alpha virt. eigenvalues --    0.04616   0.05932   0.10860   0.12143   0.16122
 Alpha virt. eigenvalues --    0.17388   0.20603   0.22107   0.26060   0.27266
 Alpha virt. eigenvalues --    0.28660   0.29111   0.30804   0.31398   0.33074

 Mulliken charges:
               1
     1  C   -0.170597
     2  C   -0.218184
     3  C   -0.170403
     4  C    0.159332
     5  C   -0.171007
     6  C   -0.218100
     7  H    0.226978
     8  H    0.225205
     9  H    0.277356
    10  H    0.269062
    11  H    0.223522
    12  N    0.492123
    13  O   -0.469461
    14  O   -0.454545
    15  C   -0.171235
    16  C   -0.219554
    17  C   -0.171123
    18  C    0.156547
    19  C   -0.164893
    20  C   -0.217657
    21  H    0.221050
    22  H    0.219887
    23  H    0.273278
    24  H    0.287341
    25  H    0.218263
    26  N    0.488094
    27  O   -0.456639
    28  O   -0.464641
 Sum of Mulliken charges =  -0.00000

 Dipole moment (field-independent basis, Debye):
    X=             -5.9034    Y=              7.1959    Z=             -0.1755  Tot=              9.3093
 Quadrupole moment (field-independent basis, Debye-Ang):
   XX=            -80.7706   YY=           -106.8323   ZZ=           -104.1507
   XY=             12.3348   XZ=             10.9453   YZ=             -1.4909

 Normal termination of Gaussian 16 at Thu May  6 19:31:52 2021.
