 Gaussian 16, Revision A.03,
 Gaussian 16:  EM64L-G16RevA.03 25-Dec-2016

 -------------
 #p 6-31g* mp2
 -------------

 ------------------------------------------------------
 Input file generated by CHIRIPA (05-May-2021 14:55:25)
 ------------------------------------------------------
 Symbolic Z-matrix:
 Charge =  0 Multiplicity = 1

                         Standard orientation:
 ---------------------------------------------------------------------
 Center     Atomic      Atomic             Coordinates (Angstroms)
 Number     Number       Type             X           Y           Z
 ---------------------------------------------------------------------
      1          6           0        2.657265   -2.106863    1.041686
      2          6           0        3.239640   -1.702056   -0.163922
      3          6           0        3.134936   -0.375559   -0.592862
      4          6           0        2.437516    0.523728    0.212234
      5          6           0        1.846356    0.150975    1.418417
      6          6           0        1.963704   -1.180689    1.827622
      7          1           0        2.743512   -3.139325    1.367232
      8          1           0        3.778861   -2.419163   -0.776329
      9          1           0        3.576153   -0.035199   -1.521786
     10          1           0        1.315080    0.888711    2.007407
     11          1           0        1.510413   -1.492240    2.764376
     12          7           0        2.319977    1.930766   -0.231419
     13          8           0        1.700276    2.703715    0.496013
     14          8           0        2.849777    2.234011   -1.298186
     15          6           0       -3.867033   -0.453733   -0.129872
     16          6           0       -4.517485    0.864469    0.291130
     17          6           0       -5.962186    0.687710    0.759520
     18          1           0       -4.461702   -0.908298   -0.934039
     19          1           0       -3.896214   -1.155321    0.715302
     20          1           0       -4.485845    1.563833   -0.554153
     21          1           0       -3.921092    1.316042    1.094257
     22          1           0       -6.008546    0.010530    1.618519
     23          1           0       -6.576507    0.259730   -0.039256
     24          1           0       -6.407851    1.642439    1.055724
     25          6           0       -2.422598   -0.293354   -0.600633
     26          6           0       -1.772146   -1.611555   -1.021635
     27          6           0       -0.327445   -1.434796   -1.490026
     28          1           0       -2.393418    0.408234   -1.445807
     29          1           0       -1.827930    0.161211    0.203534
     30          1           0       -2.368539   -2.063129   -1.824762
     31          1           0       -1.803786   -2.310921   -0.176353
     32          1           0        0.286875   -1.006817   -0.691249
     33          1           0       -0.281085   -0.757617   -2.349025
     34          1           0        0.118219   -2.389525   -1.786229
 ---------------------------------------------------------------------

 SCF Done:  E(RHF) =  -669.533941997     A.U. after   15 cycles
 E2 =    -0.2094506053D+01 EUMP2 =    -0.67162844804972D+03

 The electronic state is 1-A.
 Alpha  occ. eigenvalues --  -20.60800 -20.60795 -15.85855 -11.31234 -11.27845
 Alpha  occ. eigenvalues --  -11.27806 -11.27587 -11.26890 -11.26848 -11.21570
 Alpha  occ. eigenvalues --  -11.21486 -11.21343 -11.21273 -11.20995 -11.20866
 Alpha  occ. eigenvalues --   -1.59874  -1.39427  -1.19473  -1.08831  -1.08359
 Alpha  occ. eigenvalues --   -1.04861  -1.03452  -0.95908  -0.95654  -0.86926
 Alpha  occ. eigenvalues --   -0.86245  -0.82488  -0.79528  -0.78172  -0.77532
 Alpha  occ. eigenvalues --   -0.72074  -0.71204  -0.70545  -0.65095  -0.65007
 Alpha  occ. eigenvalues --   -0.64852  -0.62199  -0.60904  -0.59278  -0.57559
 Alpha  occ. eigenvalues --   -0.55478  -0.55346  -0.53455  -0.52939  -0.52566
 Alpha  occ. eigenvalues --   -0.52024  -0.49647  -0.48836  -0.48826  -0.47775
 Alpha  occ. eigenvalues --   -0.46481  -0.45687  -0.45625  -0.44825  -0.43720
 Alpha  occ. eigenvalues --   -0.37422  -0.36467
 Alpha virt. eigenvalues --    0.04995   0.11134   0.16476   0.21299   0.22932
 Alpha virt. eigenvalues --    0.24417   0.26540   0.27195   0.27526   0.28117
 Alpha virt. eigenvalues --    0.28402   0.30864   0.31535   0.31919   0.32053

 Mulliken charges:
               1
     1  C   -0.170575
     2  C   -0.214084
     3  C   -0.170465
     4  C    0.159944
     5  C   -0.177501
     6  C   -0.216213
     7  H    0.226164
     8  H    0.224095
     9  H    0.276117
    10  H    0.275861
    11  H    0.224066
    12  N    0.488645
    13  O   -0.460589
    14  O   -0.460207
    15  C   -0.298052
    16  C   -0.299686
    17  C   -0.475684
    18  H    0.149568
    19  H    0.146440
    20  H    0.154478
    21  H    0.152452
    22  H    0.153486
    23  H    0.154933
    24  H    0.161072
    25  C   -0.298492
    26  C   -0.298228
    27  C   -0.482081
    28  H    0.153444
    29  H    0.148000
    30  H    0.151002
    31  H    0.146512
    32  H    0.166551
    33  H    0.155876
    34  H    0.153151
 Sum of Mulliken charges =  -0.00000

 Dipole moment (field-independent basis, Debye):
    X=              0.5466    Y=             -4.8927    Z=              1.5693  Tot=              5.1672
 Quadrupole moment (field-independent basis, Debye-Ang):
   XX=            -92.8814   YY=           -100.4924   ZZ=            -90.2110
   XY=            -13.0756   XZ=              2.1492   YZ=              0.4269

 Normal termination of Gaussian 16 at Wed May  5 17:42:30 2021.
