 Gaussian 16, Revision A.03,
 Gaussian 16:  EM64L-G16RevA.03 25-Dec-2016

 -------------
 #p 6-31g* mp2
 -------------

 ------------------------------------------------------
 Input file generated by CHIRIPA (05-May-2021 14:57:24)
 ------------------------------------------------------
 Symbolic Z-matrix:
 Charge =  0 Multiplicity = 1

                         Standard orientation:
 ---------------------------------------------------------------------
 Center     Atomic      Atomic             Coordinates (Angstroms)
 Number     Number       Type             X           Y           Z
 ---------------------------------------------------------------------
      1          6           0        2.526484    2.735757    0.618905
      2          6           0        3.130593    2.355634   -0.584041
      3          6           0        3.385685    1.008169   -0.855729
      4          6           0        3.021987    0.062973    0.102195
      5          6           0        2.418685    0.410218    1.309977
      6          6           0        2.173081    1.763550    1.560415
      7          1           0        2.332008    3.784779    0.821705
      8          1           0        3.406123    3.108495   -1.317068
      9          1           0        3.852120    0.686112   -1.778841
     10          1           0        2.155323   -0.363113    2.021326
     11          1           0        1.703792    2.055847    2.495495
     12          7           0        3.287019   -1.366634   -0.174181
     13          8           0        2.957061   -2.180068    0.686103
     14          8           0        3.819692   -1.646655   -1.245855
     15          6           0       -0.947799   -1.795695   -0.188172
     16          6           0       -1.979970   -2.040524    0.723530
     17          6           0       -3.109689   -1.217542    0.754854
     18          6           0       -3.174609   -0.153855   -0.143836
     19          6           0       -2.162739    0.115911   -1.063965
     20          6           0       -1.042311   -0.720155   -1.077443
     21          1           0       -0.073814   -2.440089   -0.205573
     22          1           0       -1.909275   -2.875072    1.415323
     23          1           0       -3.923330   -1.384284    1.450272
     24          1           0       -2.261714    0.955528   -1.741213
     25          1           0       -0.242240   -0.527627   -1.786572
     26          7           0       -4.365674    0.724326   -0.120122
     27          8           0       -4.398805    1.654936   -0.922309
     28          8           0       -5.243549    0.465405    0.700203
 ---------------------------------------------------------------------

 SCF Done:  E(RHF) =  -868.339836232     A.U. after   16 cycles
 E2 =    -0.2599752654D+01 EUMP2 =    -0.87093958888593D+03

 The electronic state is 1-A.
 Alpha  occ. eigenvalues --  -20.61846 -20.61819 -20.60758 -20.60750 -15.86853
 Alpha  occ. eigenvalues --  -15.85808 -11.31962 -11.31064 -11.28499 -11.28480
 Alpha  occ. eigenvalues --  -11.28135 -11.27640 -11.27620 -11.27425 -11.27390
 Alpha  occ. eigenvalues --  -11.27182 -11.26573 -11.26544  -1.60911  -1.59837
 Alpha  occ. eigenvalues --   -1.40466  -1.39393  -1.20101  -1.19216  -1.09536
 Alpha  occ. eigenvalues --   -1.08601  -1.05450  -1.04608  -0.96412  -0.95456
 Alpha  occ. eigenvalues --   -0.86859  -0.85994  -0.83246  -0.82299  -0.78338
 Alpha  occ. eigenvalues --   -0.77392  -0.73065  -0.72264  -0.72023  -0.71176
 Alpha  occ. eigenvalues --   -0.71163  -0.70209  -0.65741  -0.65430  -0.64851
 Alpha  occ. eigenvalues --   -0.64590  -0.62797  -0.61963  -0.55931  -0.54984
 Alpha  occ. eigenvalues --   -0.53827  -0.53526  -0.52924  -0.52676  -0.49845
 Alpha  occ. eigenvalues --   -0.49803  -0.48789  -0.48772  -0.45908  -0.44824
 Alpha  occ. eigenvalues --   -0.38083  -0.37240  -0.36934  -0.36219
 Alpha virt. eigenvalues --    0.04137   0.05142   0.10578   0.11436   0.15691
 Alpha virt. eigenvalues --    0.16678   0.20821   0.21668   0.26755   0.27368
 Alpha virt. eigenvalues --    0.27629   0.28616   0.30534   0.31215   0.32086

 Mulliken charges:
               1
     1  C   -0.169562
     2  C   -0.219026
     3  C   -0.174504
     4  C    0.154389
     5  C   -0.168907
     6  C   -0.217267
     7  H    0.229992
     8  H    0.226225
     9  H    0.275936
    10  H    0.274994
    11  H    0.227459
    12  N    0.485433
    13  O   -0.464389
    14  O   -0.457388
    15  C   -0.178321
    16  C   -0.221382
    17  C   -0.172275
    18  C    0.157046
    19  C   -0.172136
    20  C   -0.219839
    21  H    0.242288
    22  H    0.225634
    23  H    0.274475
    24  H    0.273145
    25  H    0.223320
    26  N    0.488063
    27  O   -0.462328
    28  O   -0.461076
 Sum of Mulliken charges =  -0.00000

 Dipole moment (field-independent basis, Debye):
    X=              3.4840    Y=              2.0286    Z=              0.9655  Tot=              4.1456
 Quadrupole moment (field-independent basis, Debye-Ang):
   XX=           -137.3051   YY=           -101.8876   ZZ=            -98.3234
   XY=             26.7751   XZ=             -1.1656   YZ=             -2.3712

 Normal termination of Gaussian 16 at Fri May  7 08:01:01 2021.
