 Gaussian 16, Revision A.03,
 Gaussian 16:  EM64L-G16RevA.03 25-Dec-2016

 -------------
 #p 6-31g* mp2
 -------------

 ------------------------------------------------------
 Input file generated by CHIRIPA (05-May-2021 14:51:12)
 ------------------------------------------------------
 Symbolic Z-matrix:
 Charge =  0 Multiplicity = 1

                         Standard orientation:
 ---------------------------------------------------------------------
 Center     Atomic      Atomic             Coordinates (Angstroms)
 Number     Number       Type             X           Y           Z
 ---------------------------------------------------------------------
      1          6           0        2.564372    0.607740   -0.220463
      2          6           0        3.739944    1.575114   -0.078323
      3          6           0        3.458793    2.942727   -0.701525
      4          1           0        2.325707    0.484757   -1.285761
      5          1           0        1.675417    1.050313    0.249945
      6          1           0        4.626762    1.130248   -0.547645
      7          1           0        3.975961    1.695659    0.986750
      8          1           0        2.590133    3.410913   -0.227359
      9          1           0        3.244632    2.842288   -1.770472
     10          1           0        4.312271    3.618502   -0.588547
     11          6           0        2.830242   -0.763734    0.397680
     12          6           0        1.654670   -1.731108    0.255540
     13          6           0        1.935820   -3.098722    0.878742
     14          1           0        3.719196   -1.206307   -0.072728
     15          1           0        3.068906   -0.640751    1.462978
     16          1           0        1.418652   -1.851654   -0.809533
     17          1           0        0.767851   -1.286242    0.724862
     18          1           0        2.149981   -2.998283    1.947689
     19          1           0        2.804480   -3.566907    0.404576
     20          1           0        1.082342   -3.774496    0.765763
     21          6           0       -2.196904   -0.478036   -0.243061
     22          6           0       -2.855663   -1.836297   -0.486275
     23          6           0       -1.841627   -2.938485   -0.794013
     24          1           0       -1.607820   -0.199713   -1.127630
     25          1           0       -1.486349   -0.566940    0.590367
     26          1           0       -3.565782   -1.744525   -1.318096
     27          1           0       -3.443403   -2.111329    0.398901
     28          1           0       -1.139561   -3.059100    0.037346
     29          1           0       -1.262636   -2.690211   -1.689407
     30          1           0       -2.334115   -3.900902   -0.964513
     31          6           0       -3.197709    0.634031    0.065845
     32          6           0       -2.538950    1.992290    0.309058
     33          6           0       -3.552987    3.094480    0.616797
     34          1           0       -3.908265    0.722934   -0.767584
     35          1           0       -3.786793    0.355708    0.950412
     36          1           0       -1.951211    2.267323   -0.576117
     37          1           0       -1.828832    1.900518    1.140880
     38          1           0       -4.131977    2.846205    1.512190
     39          1           0       -4.255053    3.215094   -0.214562
     40          1           0       -3.060498    4.056896    0.787296
 ---------------------------------------------------------------------

 SCF Done:  E(RHF) =  -470.732124647     A.U. after   11 cycles
 E2 =    -0.1584644736D+01 EUMP2 =    -0.47231676938280D+03

 The electronic state is 1-A.
 Alpha  occ. eigenvalues --  -11.21619 -11.21584 -11.21574 -11.21489 -11.21391
 Alpha  occ. eigenvalues --  -11.21357 -11.21325 -11.21296 -11.21084 -11.21051
 Alpha  occ. eigenvalues --  -11.21023 -11.21004  -1.08452  -1.08361  -1.03577
 Alpha  occ. eigenvalues --   -1.03441  -0.96018  -0.95901  -0.87022  -0.86929
 Alpha  occ. eigenvalues --   -0.79716  -0.79467  -0.78420  -0.77996  -0.65156
 Alpha  occ. eigenvalues --   -0.64938  -0.61039  -0.60814  -0.59498  -0.59194
 Alpha  occ. eigenvalues --   -0.57802  -0.57346  -0.55268  -0.55223  -0.52713
 Alpha  occ. eigenvalues --   -0.52650  -0.52520  -0.52192  -0.49926  -0.49866
 Alpha  occ. eigenvalues --   -0.48067  -0.47723  -0.46832  -0.46488  -0.46155
 Alpha  occ. eigenvalues --   -0.45817  -0.45561  -0.45097  -0.43787  -0.43729
 Alpha virt. eigenvalues --    0.21311   0.22897   0.23438   0.24608   0.25084
 Alpha virt. eigenvalues --    0.25925   0.26589   0.27593   0.28938   0.30015
 Alpha virt. eigenvalues --    0.30447   0.30638   0.31279   0.31904   0.32072

 Mulliken charges:
               1
     1  C   -0.298677
     2  C   -0.299567
     3  C   -0.475687
     4  H    0.149098
     5  H    0.150416
     6  H    0.151843
     7  H    0.151776
     8  H    0.155346
     9  H    0.154936
    10  H    0.160111
    11  C   -0.298075
    12  C   -0.304901
    13  C   -0.479983
    14  H    0.149151
    15  H    0.148915
    16  H    0.153623
    17  H    0.157548
    18  H    0.154449
    19  H    0.155451
    20  H    0.163136
    21  C   -0.302036
    22  C   -0.299701
    23  C   -0.480915
    24  H    0.150574
    25  H    0.152983
    26  H    0.151684
    27  H    0.151382
    28  H    0.162549
    29  H    0.155323
    30  H    0.159312
    31  C   -0.297713
    32  C   -0.299865
    33  C   -0.475665
    34  H    0.149569
    35  H    0.149359
    36  H    0.152618
    37  H    0.150879
    38  H    0.155153
    39  H    0.155377
    40  H    0.160225
 Sum of Mulliken charges =  -0.00000

 Dipole moment (field-independent basis, Debye):
    X=             -0.0156    Y=             -0.0034    Z=             -0.0122  Tot=              0.0201
 Quadrupole moment (field-independent basis, Debye-Ang):
   XX=            -85.2077   YY=            -86.5943   ZZ=            -83.2023
   XY=              0.4346   XZ=             -0.1841   YZ=              0.2871

 Normal termination of Gaussian 16 at Thu May  6 03:56:07 2021.
