 Gaussian 16, Revision A.03,
 Gaussian 16:  EM64L-G16RevA.03 25-Dec-2016

 -------------
 #p 6-31g* mp2
 -------------

 ------------------------------------------------------
 Input file generated by CHIRIPA (05-May-2021 14:55:20)
 ------------------------------------------------------
 Symbolic Z-matrix:
 Charge =  0 Multiplicity = 1

                         Standard orientation:
 ---------------------------------------------------------------------
 Center     Atomic      Atomic             Coordinates (Angstroms)
 Number     Number       Type             X           Y           Z
 ---------------------------------------------------------------------
      1          6           0       -3.927916    2.418403    0.519532
      2          6           0       -2.557529    2.262765    0.286430
      3          6           0       -2.036904    1.018939   -0.082885
      4          6           0       -2.919339   -0.052657   -0.210487
      5          6           0       -4.289478    0.070644    0.014916
      6          6           0       -4.788001    1.323775    0.383271
      7          1           0       -4.323766    3.388251    0.806052
      8          1           0       -1.887217    3.111109    0.391497
      9          1           0       -0.980221    0.870421   -0.269382
     10          1           0       -4.932816   -0.793553   -0.097770
     11          1           0       -5.852704    1.441708    0.563668
     12          7           0       -2.379876   -1.374365   -0.600956
     13          8           0       -3.178293   -2.302801   -0.706661
     14          8           0       -1.168842   -1.456857   -0.793906
     15          6           0        4.049520    0.458345   -0.121579
     16          6           0        5.554023    0.726415   -0.070624
     17          6           0        5.936435    2.070147   -0.691865
     18          1           0        3.713149    0.489603   -1.166961
     19          1           0        3.521914    1.268316    0.400891
     20          1           0        6.078721   -0.084537   -0.591840
     21          1           0        5.886886    0.694325    0.974741
     22          1           0        5.439235    2.892496   -0.167332
     23          1           0        5.632158    2.109208   -1.742813
     24          1           0        7.016396    2.241393   -0.644758
     25          6           0        3.651597   -0.881198    0.495679
     26          6           0        2.147095   -1.149268    0.444724
     27          6           0        1.764683   -2.493000    1.065965
     28          1           0        4.179202   -1.691169   -0.026791
     29          1           0        3.987969   -0.912457    1.541061
     30          1           0        1.814231   -1.117179   -0.600641
     31          1           0        1.622397   -0.338316    0.965939
     32          1           0        2.068959   -2.532062    2.116913
     33          1           0        2.261883   -3.315349    0.541432
     34          1           0        0.684721   -2.664246    1.018858
 ---------------------------------------------------------------------

 SCF Done:  E(RHF) =  -669.536099967     A.U. after   15 cycles
 E2 =    -0.2091755518D+01 EUMP2 =    -0.67162785548501D+03

 The electronic state is 1-A.
 Alpha  occ. eigenvalues --  -20.60947 -20.60942 -15.85972 -11.31271 -11.27838
 Alpha  occ. eigenvalues --  -11.27819 -11.27574 -11.26841 -11.26828 -11.21349
 Alpha  occ. eigenvalues --  -11.21051 -11.20926 -11.20779 -11.20680 -11.19857
 Alpha  occ. eigenvalues --   -1.60008  -1.39564  -1.19441  -1.08851  -1.07921
 Alpha  occ. eigenvalues --   -1.04833  -1.02917  -0.95705  -0.95361  -0.86398
 Alpha  occ. eigenvalues --   -0.86233  -0.82531  -0.79038  -0.77771  -0.77510
 Alpha  occ. eigenvalues --   -0.72204  -0.71322  -0.70549  -0.65100  -0.64837
 Alpha  occ. eigenvalues --   -0.64560  -0.62179  -0.60324  -0.58773  -0.56926
 Alpha  occ. eigenvalues --   -0.55341  -0.54688  -0.53169  -0.52925  -0.52024
 Alpha  occ. eigenvalues --   -0.51800  -0.49358  -0.48975  -0.48941  -0.47318
 Alpha  occ. eigenvalues --   -0.46098  -0.45248  -0.45137  -0.44949  -0.43163
 Alpha  occ. eigenvalues --   -0.37421  -0.36434
 Alpha virt. eigenvalues --    0.04907   0.11211   0.16390   0.21043   0.23269
 Alpha virt. eigenvalues --    0.24590   0.26337   0.27196   0.27594   0.28638
 Alpha virt. eigenvalues --    0.28996   0.30637   0.31570   0.32002   0.32785

 Mulliken charges:
               1
     1  C   -0.170430
     2  C   -0.219092
     3  C   -0.172666
     4  C    0.157286
     5  C   -0.170649
     6  C   -0.218704
     7  H    0.225926
     8  H    0.224033
     9  H    0.279579
    10  H    0.275699
    11  H    0.223712
    12  N    0.491440
    13  O   -0.458941
    14  O   -0.462643
    15  C   -0.297224
    16  C   -0.298973
    17  C   -0.475297
    18  H    0.149478
    19  H    0.143534
    20  H    0.152790
    21  H    0.151260
    22  H    0.152658
    23  H    0.154840
    24  H    0.159663
    25  C   -0.298312
    26  C   -0.297040
    27  C   -0.479231
    28  H    0.149907
    29  H    0.146667
    30  H    0.164272
    31  H    0.139327
    32  H    0.145723
    33  H    0.153144
    34  H    0.178266
 Sum of Mulliken charges =  -0.00000

 Dipole moment (field-independent basis, Debye):
    X=             -2.1557    Y=              4.5483    Z=              1.2625  Tot=              5.1892
 Quadrupole moment (field-independent basis, Debye-Ang):
   XX=            -80.2901   YY=            -95.6001   ZZ=            -95.7738
   XY=            -12.2646   XZ=             -4.1431   YZ=             -0.0989

 Normal termination of Gaussian 16 at Thu May  6 09:18:35 2021.
