 Gaussian 16, Revision A.03,
 Gaussian 16:  EM64L-G16RevA.03 25-Dec-2016

 -------------
 #p 6-31g* mp2
 -------------

 ------------------------------------------------------
 Input file generated by CHIRIPA (05-May-2021 14:53:18)
 ------------------------------------------------------
 Symbolic Z-matrix:
 Charge =  0 Multiplicity = 1

                         Standard orientation:
 ---------------------------------------------------------------------
 Center     Atomic      Atomic             Coordinates (Angstroms)
 Number     Number       Type             X           Y           Z
 ---------------------------------------------------------------------
      1          6           0       -3.247037    0.002942    0.001444
      2          6           0       -4.043463   -0.785128   -1.039054
      3          6           0       -4.812188   -1.958473   -0.430681
      4          1           0       -2.545181   -0.674499    0.506831
      5          1           0       -3.933976    0.374707    0.774297
      6          1           0       -3.355420   -1.154124   -1.810452
      7          1           0       -4.743370   -0.105691   -1.542157
      8          1           0       -5.520877   -1.604381    0.324950
      9          1           0       -4.125041   -2.658771    0.055130
     10          1           0       -5.374475   -2.508008   -1.192064
     11          6           0       -2.473188    1.179109   -0.591444
     12          6           0       -1.676762    1.967179    0.449054
     13          6           0       -0.908038    3.140525   -0.159319
     14          1           0       -1.786250    0.807344   -1.364297
     15          1           0       -3.175044    1.856551   -1.096831
     16          1           0       -0.976855    1.287743    0.952157
     17          1           0       -2.364805    2.336176    1.220452
     18          1           0       -1.595185    3.840823   -0.645130
     19          1           0       -0.199349    2.786432   -0.914950
     20          1           0       -0.345751    3.690060    0.602064
     21          6           0        0.813724   -0.811534    2.285965
     22          6           0        0.984114   -1.852514    1.367353
     23          6           0        1.769107   -1.669974    0.224981
     24          6           0        2.371815   -0.427922    0.031751
     25          6           0        2.221099    0.628633    0.928560
     26          6           0        1.431670    0.423541    2.064028
     27          1           0        0.202200   -0.962094    3.170706
     28          1           0        0.505408   -2.812754    1.537133
     29          1           0        1.917825   -2.458748   -0.502437
     30          1           0        2.710934    1.574622    0.732133
     31          1           0        1.301104    1.233773    2.775730
     32          7           0        3.205200   -0.222738   -1.173973
     33          8           0        3.725517    0.880990   -1.321260
     34          8           0        3.322309   -1.169527   -1.948901
 ---------------------------------------------------------------------

 SCF Done:  E(RHF) =  -669.535092811     A.U. after   15 cycles
 E2 =    -0.2093701677D+01 EUMP2 =    -0.67162879448833D+03

 The electronic state is 1-A.
 Alpha  occ. eigenvalues --  -20.60871 -20.60865 -15.85925 -11.31333 -11.27900
 Alpha  occ. eigenvalues --  -11.27881 -11.27639 -11.26934 -11.26894 -11.21851
 Alpha  occ. eigenvalues --  -11.21688 -11.21667 -11.21527 -11.21395 -11.21263
 Alpha  occ. eigenvalues --   -1.59946  -1.39497  -1.19515  -1.08907  -1.08645
 Alpha  occ. eigenvalues --   -1.04921  -1.03755  -0.96220  -0.95721  -0.87234
 Alpha  occ. eigenvalues --   -0.86308  -0.82548  -0.79827  -0.78477  -0.77589
 Alpha  occ. eigenvalues --   -0.72141  -0.71271  -0.70597  -0.65299  -0.65158
 Alpha  occ. eigenvalues --   -0.64903  -0.62256  -0.61181  -0.59602  -0.57843
 Alpha  occ. eigenvalues --   -0.55525  -0.55395  -0.53284  -0.52996  -0.52901
 Alpha  occ. eigenvalues --   -0.52639  -0.50150  -0.48904  -0.48894  -0.48143
 Alpha  occ. eigenvalues --   -0.46855  -0.46009  -0.45930  -0.44893  -0.44015
 Alpha  occ. eigenvalues --   -0.37430  -0.36450
 Alpha virt. eigenvalues --    0.04923   0.11036   0.16379   0.20949   0.22757
 Alpha virt. eigenvalues --    0.23913   0.26377   0.26691   0.27139   0.28014
 Alpha virt. eigenvalues --    0.28696   0.30456   0.31335   0.31626   0.31946

 Mulliken charges:
               1
     1  C   -0.298406
     2  C   -0.300073
     3  C   -0.475126
     4  H    0.145359
     5  H    0.147909
     6  H    0.153616
     7  H    0.153553
     8  H    0.154944
     9  H    0.151295
    10  H    0.161869
    11  C   -0.297126
    12  C   -0.309815
    13  C   -0.476065
    14  H    0.152167
    15  H    0.150236
    16  H    0.159783
    17  H    0.147494
    18  H    0.157168
    19  H    0.159880
    20  H    0.153296
    21  C   -0.170239
    22  C   -0.218300
    23  C   -0.171192
    24  C    0.158134
    25  C   -0.168444
    26  C   -0.220653
    27  H    0.227398
    28  H    0.224369
    29  H    0.276198
    30  H    0.276955
    31  H    0.225664
    32  N    0.487956
    33  O   -0.459749
    34  O   -0.460056
 Sum of Mulliken charges =  -0.00000

 Dipole moment (field-independent basis, Debye):
    X=             -2.8252    Y=             -0.7667    Z=              4.2185  Tot=              5.1347
 Quadrupole moment (field-independent basis, Debye-Ang):
   XX=           -109.1218   YY=            -90.4206   ZZ=            -94.5921
   XY=             -0.4270   XZ=             10.6587   YZ=             -0.0846

 Normal termination of Gaussian 16 at Wed May  5 22:06:03 2021.
