 Gaussian 16, Revision A.03,
 Gaussian 16:  EM64L-G16RevA.03 25-Dec-2016

 -------------
 #p 6-31g* mp2
 -------------

 ------------------------------------------------------
 Input file generated by CHIRIPA (05-May-2021 14:55:25)
 ------------------------------------------------------
 Symbolic Z-matrix:
 Charge =  0 Multiplicity = 1

                         Standard orientation:
 ---------------------------------------------------------------------
 Center     Atomic      Atomic             Coordinates (Angstroms)
 Number     Number       Type             X           Y           Z
 ---------------------------------------------------------------------
      1          6           0        2.672012    2.763406    0.078352
      2          6           0        3.886418    2.159711    0.420829
      3          6           0        4.049733    0.776248    0.302900
      4          6           0        2.972929    0.023424   -0.162975
      5          6           0        1.750615    0.595535   -0.512154
      6          6           0        1.609858    1.980771   -0.386227
      7          1           0        2.553907    3.838801    0.173068
      8          1           0        4.713016    2.765024    0.781905
      9          1           0        4.978970    0.282977    0.561009
     10          1           0        0.944703   -0.034121   -0.869166
     11          1           0        0.665590    2.446892   -0.652936
     12          7           0        3.133883   -1.442125   -0.292054
     13          8           0        2.169951   -2.083202   -0.704960
     14          8           0        4.220922   -1.921993    0.022124
     15          6           0       -4.276507    0.217413    0.317493
     16          6           0       -5.553721    0.093808   -0.514029
     17          6           0       -6.554461    1.214494   -0.230525
     18          1           0       -4.539367    0.215036    1.384191
     19          1           0       -3.807091    1.189727    0.113415
     20          1           0       -6.019855   -0.878559   -0.309484
     21          1           0       -5.287774    0.096286   -1.578868
     22          1           0       -6.112275    2.191109   -0.452550
     23          1           0       -6.848515    1.210725    0.824045
     24          1           0       -7.460045    1.106639   -0.835625
     25          6           0       -3.266283   -0.895721    0.045260
     26          6           0       -1.989068   -0.772116    0.876783
     27          6           0       -0.988328   -1.892802    0.593279
     28          1           0       -3.735700   -1.868035    0.249338
     29          1           0       -3.003424   -0.893344   -1.021437
     30          1           0       -2.255015   -0.774594    1.941621
     31          1           0       -1.522935    0.200251    0.672237
     32          1           0       -0.694274   -1.889033   -0.461292
     33          1           0       -1.430515   -2.869417    0.815304
     34          1           0       -0.082744   -1.784947    1.198378
 ---------------------------------------------------------------------

 SCF Done:  E(RHF) =  -669.534890958     A.U. after   15 cycles
 E2 =    -0.2092759344D+01 EUMP2 =    -0.67162765030172D+03

 The electronic state is 1-A.
 Alpha  occ. eigenvalues --  -20.60807 -20.60793 -15.85840 -11.31198 -11.27779
 Alpha  occ. eigenvalues --  -11.27743 -11.27521 -11.26791 -11.26780 -11.21727
 Alpha  occ. eigenvalues --  -11.21604 -11.21535 -11.21422 -11.21219 -11.20567
 Alpha  occ. eigenvalues --   -1.59875  -1.39430  -1.19378  -1.08776  -1.08507
 Alpha  occ. eigenvalues --   -1.04781  -1.03534  -0.95962  -0.95592  -0.86946
 Alpha  occ. eigenvalues --   -0.86172  -0.82449  -0.79590  -0.78324  -0.77489
 Alpha  occ. eigenvalues --   -0.72073  -0.71198  -0.70493  -0.65188  -0.65033
 Alpha  occ. eigenvalues --   -0.64772  -0.62202  -0.60880  -0.59314  -0.57558
 Alpha  occ. eigenvalues --   -0.55383  -0.55140  -0.53106  -0.52866  -0.52580
 Alpha  occ. eigenvalues --   -0.52344  -0.49913  -0.48824  -0.48790  -0.47889
 Alpha  occ. eigenvalues --   -0.46643  -0.45848  -0.45805  -0.44849  -0.43699
 Alpha  occ. eigenvalues --   -0.37360  -0.36371
 Alpha virt. eigenvalues --    0.05011   0.11232   0.16455   0.20286   0.22917
 Alpha virt. eigenvalues --    0.24024   0.26056   0.26843   0.27552   0.28001
 Alpha virt. eigenvalues --    0.28937   0.30648   0.31544   0.31721   0.32104

 Mulliken charges:
               1
     1  C   -0.170367
     2  C   -0.218853
     3  C   -0.170418
     4  C    0.155157
     5  C   -0.170016
     6  C   -0.221446
     7  H    0.225722
     8  H    0.223513
     9  H    0.275634
    10  H    0.282990
    11  H    0.223741
    12  N    0.488519
    13  O   -0.460296
    14  O   -0.460288
    15  C   -0.296991
    16  C   -0.299650
    17  C   -0.475523
    18  H    0.150404
    19  H    0.144307
    20  H    0.153543
    21  H    0.151602
    22  H    0.153390
    23  H    0.155543
    24  H    0.160904
    25  C   -0.297793
    26  C   -0.303133
    27  C   -0.476201
    28  H    0.152595
    29  H    0.147650
    30  H    0.152652
    31  H    0.139040
    32  H    0.162513
    33  H    0.157755
    34  H    0.163802
 Sum of Mulliken charges =  -0.00000

 Dipole moment (field-independent basis, Debye):
    X=             -0.4947    Y=              5.0048    Z=              0.4498  Tot=              5.0492
 Quadrupole moment (field-independent basis, Debye-Ang):
   XX=            -94.3227   YY=            -94.9994   ZZ=            -94.6367
   XY=             16.9984   XZ=              3.0401   YZ=             -1.2013

 Normal termination of Gaussian 16 at Thu May  6 04:48:34 2021.
