 Gaussian 16, Revision A.03,
 Gaussian 16:  EM64L-G16RevA.03 25-Dec-2016

 -------------
 #p 6-31g* mp2
 -------------

 ------------------------------------------------------
 Input file generated by CHIRIPA (05-May-2021 14:51:11)
 ------------------------------------------------------
 Symbolic Z-matrix:
 Charge =  0 Multiplicity = 1

                         Standard orientation:
 ---------------------------------------------------------------------
 Center     Atomic      Atomic             Coordinates (Angstroms)
 Number     Number       Type             X           Y           Z
 ---------------------------------------------------------------------
      1          6           0       -2.070929   -1.124924    0.740037
      2          6           0       -1.004551   -2.204243    0.550578
      3          6           0       -0.552961   -2.827451    1.871741
      4          1           0       -1.676697   -0.340983    1.401068
      5          1           0       -2.937395   -1.561873    1.255505
      6          1           0       -0.140916   -1.765725    0.034387
      7          1           0       -1.401299   -2.985611   -0.110233
      8          1           0       -1.399708   -3.290696    2.388486
      9          1           0       -0.132164   -2.063880    2.533927
     10          1           0        0.209508   -3.596414    1.713007
     11          6           0       -2.532529   -0.492490   -0.571710
     12          6           0       -3.598907    0.586829   -0.382251
     13          6           0       -4.050497    1.210037   -1.703414
     14          1           0       -1.666063   -0.055541   -1.087178
     15          1           0       -2.926761   -1.276431   -1.232741
     16          1           0       -3.202159    1.368197    0.278560
     17          1           0       -4.462542    0.148311    0.133940
     18          1           0       -4.471294    0.446466   -2.365600
     19          1           0       -3.203750    1.673283   -2.220159
     20          1           0       -4.812966    1.979000   -1.544680
     21          6           0        2.222487    1.283156    0.509176
     22          6           0        1.065288    2.269296    0.346682
     23          6           0        0.919544    3.211797    1.541773
     24          1           0        2.069363    0.695637    1.424774
     25          1           0        3.156394    1.844598    0.650580
     26          1           0        0.134044    1.706168    0.204243
     27          1           0        1.221086    2.854403   -0.568737
     28          1           0        1.832794    3.798838    1.683046
     29          1           0        0.739576    2.644080    2.460419
     30          1           0        0.086420    3.908180    1.404603
     31          6           0        2.380971    0.334258   -0.677502
     32          6           0        3.538170   -0.651882   -0.515009
     33          6           0        3.683914   -1.594383   -1.710100
     34          1           0        1.447064   -0.227184   -0.818907
     35          1           0        2.534094    0.921777   -1.593100
     36          1           0        3.382372   -1.236989    0.400411
     37          1           0        4.469414   -0.088755   -0.372570
     38          1           0        3.863882   -1.026666   -2.628746
     39          1           0        2.770664   -2.181424   -1.851374
     40          1           0        4.517038   -2.290766   -1.572930
 ---------------------------------------------------------------------

 SCF Done:  E(RHF) =  -470.733277561     A.U. after   11 cycles
 E2 =    -0.1584400074D+01 EUMP2 =    -0.47231767763519D+03

 The electronic state is 1-A.
 Alpha  occ. eigenvalues --  -11.21679 -11.21663 -11.21634 -11.21629 -11.21462
 Alpha  occ. eigenvalues --  -11.21459 -11.21399 -11.21396 -11.21143 -11.21139
 Alpha  occ. eigenvalues --  -11.21090 -11.21079  -1.08530  -1.08447  -1.03592
 Alpha  occ. eigenvalues --   -1.03566  -0.96034  -0.96020  -0.87054  -0.87031
 Alpha  occ. eigenvalues --   -0.79683  -0.79607  -0.78391  -0.78217  -0.65474
 Alpha  occ. eigenvalues --   -0.64798  -0.61073  -0.60888  -0.59404  -0.59383
 Alpha  occ. eigenvalues --   -0.57640  -0.57633  -0.55382  -0.55255  -0.52725
 Alpha  occ. eigenvalues --   -0.52714  -0.52480  -0.52422  -0.50048  -0.49907
 Alpha  occ. eigenvalues --   -0.48031  -0.47910  -0.46850  -0.46563  -0.46241
 Alpha  occ. eigenvalues --   -0.45822  -0.45781  -0.45231  -0.43838  -0.43827
 Alpha virt. eigenvalues --    0.18499   0.22061   0.23847   0.24794   0.25173
 Alpha virt. eigenvalues --    0.26532   0.27293   0.27941   0.28298   0.29871
 Alpha virt. eigenvalues --    0.30957   0.31655   0.31732   0.31803   0.32610

 Mulliken charges:
               1
     1  C   -0.299192
     2  C   -0.307816
     3  C   -0.475443
     4  H    0.150228
     5  H    0.150153
     6  H    0.158652
     7  H    0.152468
     8  H    0.155717
     9  H    0.154681
    10  H    0.160404
    11  C   -0.301814
    12  C   -0.300287
    13  C   -0.475823
    14  H    0.152025
    15  H    0.150119
    16  H    0.152428
    17  H    0.152136
    18  H    0.155174
    19  H    0.155684
    20  H    0.160325
    21  C   -0.298108
    22  C   -0.305205
    23  C   -0.475662
    24  H    0.149580
    25  H    0.150144
    26  H    0.156177
    27  H    0.152275
    28  H    0.155707
    29  H    0.155005
    30  H    0.160394
    31  C   -0.306477
    32  C   -0.299826
    33  C   -0.476127
    34  H    0.156301
    35  H    0.150108
    36  H    0.152479
    37  H    0.152219
    38  H    0.155264
    39  H    0.155495
    40  H    0.160438
 Sum of Mulliken charges =  -0.00000

 Dipole moment (field-independent basis, Debye):
    X=              0.0015    Y=             -0.0007    Z=             -0.0073  Tot=              0.0075
 Quadrupole moment (field-independent basis, Debye-Ang):
   XX=            -83.9931   YY=            -84.6393   ZZ=            -85.9539
   XY=              1.3838   XZ=             -0.4114   YZ=             -0.3612

 Normal termination of Gaussian 16 at Wed May  5 23:04:34 2021.
