 Gaussian 16, Revision A.03,
 Gaussian 16:  EM64L-G16RevA.03 25-Dec-2016

 -------------
 #p 6-31g* mp2
 -------------

 ------------------------------------------------------
 Input file generated by CHIRIPA (05-May-2021 14:51:10)
 ------------------------------------------------------
 Symbolic Z-matrix:
 Charge =  0 Multiplicity = 1

                         Standard orientation:
 ---------------------------------------------------------------------
 Center     Atomic      Atomic             Coordinates (Angstroms)
 Number     Number       Type             X           Y           Z
 ---------------------------------------------------------------------
      1          6           0       -3.088897   -0.488537   -0.539594
      2          6           0       -4.376190    0.196028   -0.078907
      3          6           0       -5.169882    0.802832   -1.236334
      4          1           0       -2.463549    0.240994   -1.072201
      5          1           0       -3.339360   -1.274498   -1.265492
      6          1           0       -4.123491    0.979540    0.646949
      7          1           0       -4.998461   -0.535169    0.452832
      8          1           0       -5.450592    0.029196   -1.958339
      9          1           0       -4.570651    1.552512   -1.763119
     10          1           0       -6.086180    1.287039   -0.884482
     11          6           0       -2.284476   -1.100040    0.606137
     12          6           0       -0.997183   -1.784604    0.145451
     13          6           0       -0.203491   -2.391408    1.302878
     14          1           0       -2.034013   -0.314078    1.332036
     15          1           0       -2.909824   -1.829570    1.138745
     16          1           0       -0.374912   -1.053407   -0.386288
     17          1           0       -1.249883   -2.568117   -0.580405
     18          1           0       -0.802722   -3.141089    1.829663
     19          1           0        0.077219   -1.617773    2.024882
     20          1           0        0.712807   -2.875616    0.951026
     21          6           0        2.066148    1.214119   -0.181955
     22          6           0        1.448708    1.846575    1.065743
     23          6           0        0.208092    2.683401    0.752075
     24          1           0        2.327844    2.007009   -0.895947
     25          1           0        1.313352    0.584470   -0.676156
     26          1           0        2.202864    2.473751    1.558205
     27          1           0        1.188628    1.052102    1.776929
     28          1           0       -0.564011    2.066195    0.281420
     29          1           0        0.455988    3.495922    0.061454
     30          1           0       -0.217125    3.126165    1.658171
     31          6           0        3.307225    0.374458    0.115411
     32          6           0        3.924665   -0.257999   -1.132287
     33          6           0        5.165282   -1.094824   -0.818619
     34          1           0        4.060021    1.004108    0.609612
     35          1           0        3.045529   -0.418432    0.829403
     36          1           0        4.184745    0.536476   -1.843472
     37          1           0        3.170509   -0.885173   -1.624748
     38          1           0        4.917386   -1.907345   -0.127998
     39          1           0        5.937384   -0.477619   -0.347964
     40          1           0        5.590498   -1.537588   -1.724716
 ---------------------------------------------------------------------

 SCF Done:  E(RHF) =  -470.733212939     A.U. after   11 cycles
 E2 =    -0.1584480450D+01 EUMP2 =    -0.47231769338926D+03

 The electronic state is 1-A.
 Alpha  occ. eigenvalues --  -11.21661 -11.21660 -11.21616 -11.21607 -11.21450
 Alpha  occ. eigenvalues --  -11.21420 -11.21391 -11.21357 -11.21164 -11.21151
 Alpha  occ. eigenvalues --  -11.21074 -11.21074  -1.08510  -1.08428  -1.03597
 Alpha  occ. eigenvalues --   -1.03544  -0.96050  -0.95990  -0.87045  -0.87028
 Alpha  occ. eigenvalues --   -0.79666  -0.79608  -0.78355  -0.78205  -0.65442
 Alpha  occ. eigenvalues --   -0.64817  -0.61142  -0.60762  -0.59409  -0.59367
 Alpha  occ. eigenvalues --   -0.57651  -0.57612  -0.55497  -0.55127  -0.52722
 Alpha  occ. eigenvalues --   -0.52707  -0.52468  -0.52423  -0.50010  -0.49936
 Alpha  occ. eigenvalues --   -0.48029  -0.47886  -0.46887  -0.46583  -0.46060
 Alpha  occ. eigenvalues --   -0.45835  -0.45716  -0.45306  -0.43827  -0.43814
 Alpha virt. eigenvalues --    0.18355   0.21982   0.23979   0.24752   0.25206
 Alpha virt. eigenvalues --    0.26105   0.26615   0.28319   0.29185   0.29591
 Alpha virt. eigenvalues --    0.29956   0.31602   0.31717   0.32027   0.32383

 Mulliken charges:
               1
     1  C   -0.300215
     2  C   -0.299890
     3  C   -0.475799
     4  H    0.150442
     5  H    0.149860
     6  H    0.152619
     7  H    0.152000
     8  H    0.155093
     9  H    0.155515
    10  H    0.160396
    11  C   -0.299665
    12  C   -0.307249
    13  C   -0.477662
    14  H    0.151288
    15  H    0.150104
    16  H    0.158226
    17  H    0.152469
    18  H    0.155861
    19  H    0.156578
    20  H    0.160105
    21  C   -0.304342
    22  C   -0.301895
    23  C   -0.479555
    24  H    0.149957
    25  H    0.155088
    26  H    0.152578
    27  H    0.153690
    28  H    0.157617
    29  H    0.155699
    30  H    0.160417
    31  C   -0.299454
    32  C   -0.299825
    33  C   -0.475710
    34  H    0.149522
    35  H    0.151585
    36  H    0.151919
    37  H    0.151926
    38  H    0.155210
    39  H    0.155214
    40  H    0.160281
 Sum of Mulliken charges =  -0.00000

 Dipole moment (field-independent basis, Debye):
    X=             -0.0071    Y=             -0.0033    Z=              0.0047  Tot=              0.0091
 Quadrupole moment (field-independent basis, Debye-Ang):
   XX=            -85.3987   YY=            -83.9377   ZZ=            -85.2890
   XY=              1.8761   XZ=             -0.5767   YZ=              0.3809

 Normal termination of Gaussian 16 at Wed May  5 15:09:46 2021.
