 Gaussian 16, Revision A.03,
 Gaussian 16:  EM64L-G16RevA.03 25-Dec-2016

 -------------
 #p 6-31g* mp2
 -------------

 ------------------------------------------------------
 Input file generated by CHIRIPA (05-May-2021 14:53:15)
 ------------------------------------------------------
 Symbolic Z-matrix:
 Charge =  0 Multiplicity = 1

                         Standard orientation:
 ---------------------------------------------------------------------
 Center     Atomic      Atomic             Coordinates (Angstroms)
 Number     Number       Type             X           Y           Z
 ---------------------------------------------------------------------
      1          6           0        3.927628   -0.050858   -0.130137
      2          6           0        4.007181   -1.574524   -0.230625
      3          6           0        5.153734   -2.048981   -1.123990
      4          1           0        3.808137    0.370941   -1.137486
      5          1           0        4.880363    0.334217    0.258976
      6          1           0        3.054090   -1.956721   -0.618127
      7          1           0        4.126304   -1.992756    0.777099
      8          1           0        6.115051   -1.695572   -0.737246
      9          1           0        5.036745   -1.659332   -2.140400
     10          1           0        5.192137   -3.141251   -1.181713
     11          6           0        2.786394    0.438833    0.759535
     12          6           0        2.706840    1.962499    0.860023
     13          6           0        1.560288    2.436956    1.753389
     14          1           0        1.833658    0.053758    0.370423
     15          1           0        2.905884    0.017034    1.766884
     16          1           0        2.587717    2.380731   -0.147701
     17          1           0        3.659932    2.344696    1.247526
     18          1           0        1.677276    2.047308    2.769798
     19          1           0        0.598970    2.083547    1.366644
     20          1           0        1.521884    3.529226    1.811112
     21          6           0       -1.638772    1.819464   -1.475887
     22          6           0       -3.010267    1.777514   -1.204295
     23          6           0       -3.566313    0.690406   -0.523444
     24          6           0       -2.717784   -0.342103   -0.126945
     25          6           0       -1.347491   -0.329374   -0.382734
     26          6           0       -0.813216    0.767740   -1.064965
     27          1           0       -1.215278    2.667842   -2.005325
     28          1           0       -3.653809    2.592877   -1.522229
     29          1           0       -4.624692    0.632283   -0.300123
     30          1           0       -0.731324   -1.157127   -0.053218
     31          1           0        0.252259    0.797630   -1.274517
     32          7           0       -3.294920   -1.498272    0.594572
     33          8           0       -2.525966   -2.395286    0.933265
     34          8           0       -4.505307   -1.485572    0.807741
 ---------------------------------------------------------------------

 SCF Done:  E(RHF) =  -669.535047755     A.U. after   15 cycles
 E2 =    -0.2093047682D+01 EUMP2 =    -0.67162809543747D+03

 The electronic state is 1-A.
 Alpha  occ. eigenvalues --  -20.60789 -20.60783 -15.85844 -11.31237 -11.27817
 Alpha  occ. eigenvalues --  -11.27808 -11.27559 -11.26825 -11.26813 -11.22318
 Alpha  occ. eigenvalues --  -11.22156 -11.22120 -11.22019 -11.21519 -11.21471
 Alpha  occ. eigenvalues --   -1.59863  -1.39416  -1.19420  -1.09103  -1.08802
 Alpha  occ. eigenvalues --   -1.04836  -1.04093  -0.96532  -0.95634  -0.87543
 Alpha  occ. eigenvalues --   -0.86221  -0.82477  -0.80162  -0.78922  -0.77507
 Alpha  occ. eigenvalues --   -0.72061  -0.71187  -0.70519  -0.65889  -0.65068
 Alpha  occ. eigenvalues --   -0.64756  -0.62217  -0.61433  -0.59897  -0.58142
 Alpha  occ. eigenvalues --   -0.55846  -0.55314  -0.53194  -0.53179  -0.52940
 Alpha  occ. eigenvalues --   -0.52884  -0.50469  -0.48823  -0.48814  -0.48457
 Alpha  occ. eigenvalues --   -0.47217  -0.46422  -0.46394  -0.44815  -0.44379
 Alpha  occ. eigenvalues --   -0.37385  -0.36390
 Alpha virt. eigenvalues --    0.05009   0.11165   0.16387   0.19035   0.22995
 Alpha virt. eigenvalues --    0.23805   0.24825   0.25959   0.27273   0.28374
 Alpha virt. eigenvalues --    0.30034   0.30693   0.31165   0.31428   0.31783

 Mulliken charges:
               1
     1  C   -0.298956
     2  C   -0.299425
     3  C   -0.476065
     4  H    0.145601
     5  H    0.153187
     6  H    0.148893
     7  H    0.155897
     8  H    0.156472
     9  H    0.154382
    10  H    0.163301
    11  C   -0.302523
    12  C   -0.300183
    13  C   -0.481496
    14  H    0.141025
    15  H    0.156842
    16  H    0.144043
    17  H    0.156177
    18  H    0.158976
    19  H    0.159561
    20  H    0.160002
    21  C   -0.171668
    22  C   -0.218451
    23  C   -0.170572
    24  C    0.158636
    25  C   -0.172808
    26  C   -0.220641
    27  H    0.226325
    28  H    0.223845
    29  H    0.275960
    30  H    0.276694
    31  H    0.229094
    32  N    0.488284
    33  O   -0.460096
    34  O   -0.460313
 Sum of Mulliken charges =  -0.00000

 Dipole moment (field-independent basis, Debye):
    X=              2.0967    Y=              4.0343    Z=             -2.4692  Tot=              5.1738
 Quadrupole moment (field-independent basis, Debye-Ang):
   XX=           -101.3066   YY=            -97.4412   ZZ=            -94.4426
   XY=            -13.9638   XZ=              8.3069   YZ=             -0.1488

 Normal termination of Gaussian 16 at Thu May  6 05:54:23 2021.
