 Gaussian 16, Revision A.03,
 Gaussian 16:  EM64L-G16RevA.03 25-Dec-2016

 -------------
 #p 6-31g* mp2
 -------------

 ------------------------------------------------------
 Input file generated by CHIRIPA (05-May-2021 14:57:27)
 ------------------------------------------------------
 Symbolic Z-matrix:
 Charge =  0 Multiplicity = 1

                         Standard orientation:
 ---------------------------------------------------------------------
 Center     Atomic      Atomic             Coordinates (Angstroms)
 Number     Number       Type             X           Y           Z
 ---------------------------------------------------------------------
      1          6           0       -4.605891   -1.013288   -1.572872
      2          6           0       -4.634125    0.352692   -1.273170
      3          6           0       -3.848393    0.868958   -0.238450
      4          6           0       -3.042416   -0.013296    0.479407
      5          6           0       -2.992467   -1.379102    0.204872
      6          6           0       -3.786597   -1.873309   -0.834197
      7          1           0       -5.219528   -1.405768   -2.378356
      8          1           0       -5.269447    1.022945   -1.845160
      9          1           0       -3.850998    1.922178    0.014805
     10          1           0       -2.349103   -2.022495    0.792703
     11          1           0       -3.762652   -2.934596   -1.064724
     12          7           0       -2.206152    0.521575    1.577121
     13          8           0       -1.504564   -0.276584    2.194659
     14          8           0       -2.268110    1.728839    1.799185
     15          6           0        1.657524    2.017070   -0.913025
     16          6           0        3.033268    2.231532   -0.779406
     17          6           0        3.886430    1.177507   -0.439266
     18          6           0        3.327454   -0.083746   -0.239080
     19          6           0        1.960972   -0.329137   -0.364784
     20          6           0        1.126702    0.739671   -0.705653
     21          1           0        1.002106    2.841603   -1.177537
     22          1           0        3.448296    3.222517   -0.939859
     23          1           0        4.955197    1.315552   -0.329272
     24          1           0        1.576592   -1.328159   -0.198575
     25          1           0        0.058670    0.570184   -0.808737
     26          7           0        4.220657   -1.207420    0.121396
     27          8           0        3.703427   -2.309165    0.292476
     28          8           0        5.421068   -0.965134    0.226033
 ---------------------------------------------------------------------

 SCF Done:  E(RHF) =  -868.337921474     A.U. after   16 cycles
 E2 =    -0.2599983953D+01 EUMP2 =    -0.87093790542699D+03

 The electronic state is 1-A.
 Alpha  occ. eigenvalues --  -20.61549 -20.61528 -20.60326 -20.60321 -15.86591
 Alpha  occ. eigenvalues --  -15.85379 -11.32000 -11.30663 -11.28545 -11.28520
 Alpha  occ. eigenvalues --  -11.28219 -11.27520 -11.27489 -11.27252 -11.27244
 Alpha  occ. eigenvalues --  -11.26982 -11.26263 -11.26244  -1.60626  -1.59401
 Alpha  occ. eigenvalues --   -1.40173  -1.38957  -1.20150  -1.18838  -1.09528
 Alpha  occ. eigenvalues --   -1.08250  -1.05527  -1.04242  -0.96355  -0.95096
 Alpha  occ. eigenvalues --   -0.86920  -0.85654  -0.83168  -0.81942  -0.78231
 Alpha  occ. eigenvalues --   -0.77001  -0.72786  -0.71991  -0.71603  -0.71203
 Alpha  occ. eigenvalues --   -0.70717  -0.69958  -0.65773  -0.65494  -0.64504
 Alpha  occ. eigenvalues --   -0.64274  -0.62859  -0.61611  -0.55987  -0.54757
 Alpha  occ. eigenvalues --   -0.53886  -0.53592  -0.52549  -0.52356  -0.49557
 Alpha  occ. eigenvalues --   -0.49549  -0.48358  -0.48355  -0.45561  -0.44381
 Alpha  occ. eigenvalues --   -0.38122  -0.37140  -0.36802  -0.35820
 Alpha virt. eigenvalues --    0.04266   0.05559   0.10499   0.11819   0.15768
 Alpha virt. eigenvalues --    0.17057   0.20748   0.21670   0.26614   0.27066
 Alpha virt. eigenvalues --    0.27690   0.28784   0.30489   0.30965   0.31839

 Mulliken charges:
               1
     1  C   -0.170475
     2  C   -0.218279
     3  C   -0.174526
     4  C    0.151987
     5  C   -0.175839
     6  C   -0.217950
     7  H    0.228817
     8  H    0.225643
     9  H    0.275916
    10  H    0.278506
    11  H    0.227615
    12  N    0.487704
    13  O   -0.456386
    14  O   -0.460233
    15  C   -0.167857
    16  C   -0.218557
    17  C   -0.170760
    18  C    0.157988
    19  C   -0.165446
    20  C   -0.214589
    21  H    0.225120
    22  H    0.222005
    23  H    0.274260
    24  H    0.273457
    25  H    0.216874
    26  N    0.488473
    27  O   -0.461689
    28  O   -0.461779
 Sum of Mulliken charges =  -0.00000

 Dipole moment (field-independent basis, Debye):
    X=             -6.3200    Y=              2.0254    Z=             -5.0995  Tot=              8.3696
 Quadrupole moment (field-independent basis, Debye-Ang):
   XX=           -104.5414   YY=            -99.5972   ZZ=           -109.2000
   XY=             20.6774   XZ=              7.6423   YZ=             -2.6967

 Normal termination of Gaussian 16 at Thu May  6 16:30:15 2021.
