 Gaussian 16, Revision A.03,
 Gaussian 16:  EM64L-G16RevA.03 25-Dec-2016

 -------------
 #p 6-31g* mp2
 -------------

 ------------------------------------------------------
 Input file generated by CHIRIPA (05-May-2021 14:51:11)
 ------------------------------------------------------
 Symbolic Z-matrix:
 Charge =  0 Multiplicity = 1

                         Standard orientation:
 ---------------------------------------------------------------------
 Center     Atomic      Atomic             Coordinates (Angstroms)
 Number     Number       Type             X           Y           Z
 ---------------------------------------------------------------------
      1          6           0       -2.555184   -0.585253    0.457387
      2          6           0       -1.642216   -1.710313   -0.031195
      3          6           0       -0.297789   -1.738761    0.696474
      4          1           0       -2.043669    0.377735    0.323402
      5          1           0       -2.723876   -0.702043    1.536877
      6          1           0       -1.476416   -1.592229   -1.109705
      7          1           0       -2.156040   -2.670719    0.103791
      8          1           0       -0.444851   -1.880034    1.772121
      9          1           0        0.238634   -0.795416    0.551730
     10          1           0        0.339087   -2.550628    0.331616
     11          6           0       -3.902961   -0.543802   -0.260602
     12          6           0       -4.815929    0.581259    0.227980
     13          6           0       -6.160356    0.609707   -0.499689
     14          1           0       -3.734269   -0.427011   -1.340092
     15          1           0       -4.414476   -1.506789   -0.126618
     16          1           0       -4.302105    1.541665    0.092994
     17          1           0       -4.981729    0.463175    1.306489
     18          1           0       -6.696779   -0.333638   -0.354946
     19          1           0       -6.013294    0.750980   -1.575336
     20          1           0       -6.797232    1.421574   -0.134831
     21          6           0        3.681886    0.013868    0.175773
     22          6           0        3.675718   -1.256200   -0.675622
     23          6           0        4.586379   -2.348618   -0.114274
     24          1           0        4.710192    0.393552    0.249056
     25          1           0        3.367716   -0.237044    1.198385
     26          1           0        3.988475   -1.002724   -1.696674
     27          1           0        2.647278   -1.632798   -0.747045
     28          1           0        4.272692   -2.630083    0.896160
     29          1           0        5.621509   -1.996429   -0.058865
     30          1           0        4.566806   -3.247519   -0.738336
     31          6           0        2.776259    1.115186   -0.372558
     32          6           0        2.782428    2.385254    0.478838
     33          6           0        1.871766    3.477672   -0.082511
     34          1           0        3.090429    1.366099   -1.395170
     35          1           0        1.747953    0.735502   -0.445841
     36          1           0        3.810868    2.761852    0.550260
     37          1           0        2.469670    2.131778    1.499890
     38          1           0        0.836636    3.125483   -0.137920
     39          1           0        2.185453    3.759137   -1.092946
     40          1           0        1.891339    4.376573    0.541551
 ---------------------------------------------------------------------

 SCF Done:  E(RHF) =  -470.733013497     A.U. after   11 cycles
 E2 =    -0.1583425926D+01 EUMP2 =    -0.47231643942335D+03

 The electronic state is 1-A.
 Alpha  occ. eigenvalues --  -11.21672 -11.21630 -11.21602 -11.21509 -11.21460
 Alpha  occ. eigenvalues --  -11.21396 -11.21378 -11.21310 -11.21152 -11.21093
 Alpha  occ. eigenvalues --  -11.21091 -11.21018  -1.08487  -1.08400  -1.03587
 Alpha  occ. eigenvalues --   -1.03499  -0.96045  -0.95953  -0.87060  -0.86971
 Alpha  occ. eigenvalues --   -0.79656  -0.79562  -0.78308  -0.78203  -0.65222
 Alpha  occ. eigenvalues --   -0.64962  -0.60983  -0.60914  -0.59418  -0.59303
 Alpha  occ. eigenvalues --   -0.57680  -0.57541  -0.55456  -0.55133  -0.52750
 Alpha  occ. eigenvalues --   -0.52642  -0.52487  -0.52351  -0.50019  -0.49878
 Alpha  occ. eigenvalues --   -0.48006  -0.47853  -0.46760  -0.46585  -0.45913
 Alpha  occ. eigenvalues --   -0.45787  -0.45716  -0.45463  -0.43824  -0.43753
 Alpha virt. eigenvalues --    0.20367   0.23038   0.23708   0.24421   0.26074
 Alpha virt. eigenvalues --    0.26786   0.27357   0.27399   0.27653   0.29441
 Alpha virt. eigenvalues --    0.30389   0.31637   0.31725   0.31856   0.32325

 Mulliken charges:
               1
     1  C   -0.298346
     2  C   -0.299737
     3  C   -0.484558
     4  H    0.148907
     5  H    0.149763
     6  H    0.152371
     7  H    0.152421
     8  H    0.155525
     9  H    0.161723
    10  H    0.162244
    11  C   -0.298389
    12  C   -0.299728
    13  C   -0.475751
    14  H    0.149775
    15  H    0.149825
    16  H    0.152076
    17  H    0.151966
    18  H    0.155206
    19  H    0.155301
    20  H    0.160398
    21  C   -0.298041
    22  C   -0.304325
    23  C   -0.475788
    24  H    0.149539
    25  H    0.150377
    26  H    0.151118
    27  H    0.157643
    28  H    0.155428
    29  H    0.154906
    30  H    0.159735
    31  C   -0.303972
    32  C   -0.299729
    33  C   -0.475446
    34  H    0.149758
    35  H    0.153560
    36  H    0.152206
    37  H    0.152197
    38  H    0.154125
    39  H    0.155256
    40  H    0.160462
 Sum of Mulliken charges =  -0.00000

 Dipole moment (field-independent basis, Debye):
    X=             -0.0331    Y=             -0.0119    Z=              0.0095  Tot=              0.0364
 Quadrupole moment (field-independent basis, Debye-Ang):
   XX=            -85.4730   YY=            -85.0700   ZZ=            -84.2519
   XY=              1.2861   XZ=             -1.2885   YZ=             -0.3479

 Normal termination of Gaussian 16 at Wed May  5 16:43:42 2021.
