 Gaussian 16, Revision A.03,
 Gaussian 16:  EM64L-G16RevA.03 25-Dec-2016

 -------------
 #p 6-31g* mp2
 -------------

 ------------------------------------------------------
 Input file generated by CHIRIPA (05-May-2021 14:57:24)
 ------------------------------------------------------
 Symbolic Z-matrix:
 Charge =  0 Multiplicity = 1

                         Standard orientation:
 ---------------------------------------------------------------------
 Center     Atomic      Atomic             Coordinates (Angstroms)
 Number     Number       Type             X           Y           Z
 ---------------------------------------------------------------------
      1          6           0        4.062209   -1.901426    0.619928
      2          6           0        2.666465   -1.953395    0.544315
      3          6           0        1.935044   -0.832366    0.140750
      4          6           0        2.634833    0.329466   -0.181324
      5          6           0        4.024839    0.412537   -0.115947
      6          6           0        4.735754   -0.720708    0.290137
      7          1           0        4.622430   -2.777013    0.934406
      8          1           0        2.140725   -2.869011    0.799834
      9          1           0        0.853968   -0.844987    0.073426
     10          1           0        4.520933    1.339445   -0.377001
     11          1           0        5.819651   -0.677453    0.347938
     12          7           0        1.871365    1.522715   -0.609894
     13          8           0        2.511510    2.534322   -0.888289
     14          8           0        0.647270    1.423783   -0.659298
     15          6           0       -2.559710    1.011284    2.350468
     16          6           0       -2.631905   -0.383884    2.281063
     17          6           0       -2.743412   -1.028485    1.045506
     18          6           0       -2.780089   -0.243411   -0.105843
     19          6           0       -2.710200    1.148379   -0.069427
     20          6           0       -2.599018    1.771622    1.177071
     21          1           0       -2.473215    1.503730    3.314528
     22          1           0       -2.601607   -0.976918    3.190698
     23          1           0       -2.801105   -2.107033    0.962891
     24          1           0       -2.742827    1.712715   -0.993481
     25          1           0       -2.543140    2.855288    1.227945
     26          7           0       -2.897964   -0.914516   -1.419663
     27          8           0       -2.928230   -0.200211   -2.419408
     28          8           0       -2.957858   -2.142124   -1.424813
 ---------------------------------------------------------------------

 SCF Done:  E(RHF) =  -868.338632886     A.U. after   16 cycles
 E2 =    -0.2600562906D+01 EUMP2 =    -0.87093919579197D+03

 The electronic state is 1-A.
 Alpha  occ. eigenvalues --  -20.60931 -20.60924 -20.60334 -20.60274 -15.85970
 Alpha  occ. eigenvalues --  -15.85357 -11.31237 -11.30610 -11.27810 -11.27776
 Alpha  occ. eigenvalues --  -11.27537 -11.27310 -11.27052 -11.26938 -11.26806
 Alpha  occ. eigenvalues --  -11.26781 -11.26287 -11.26050  -1.60000  -1.59386
 Alpha  occ. eigenvalues --   -1.39557  -1.38940  -1.19406  -1.18785  -1.08823
 Alpha  occ. eigenvalues --   -1.08212  -1.04793  -1.04162  -0.95676  -0.95059
 Alpha  occ. eigenvalues --   -0.86198  -0.85581  -0.82512  -0.81889  -0.77567
 Alpha  occ. eigenvalues --   -0.76943  -0.72223  -0.71579  -0.71311  -0.70705
 Alpha  occ. eigenvalues --   -0.70517  -0.69914  -0.65064  -0.64799  -0.64445
 Alpha  occ. eigenvalues --   -0.64182  -0.62141  -0.61515  -0.55309  -0.54710
 Alpha  occ. eigenvalues --   -0.53131  -0.52906  -0.52468  -0.52265  -0.48965
 Alpha  occ. eigenvalues --   -0.48946  -0.48350  -0.48316  -0.44981  -0.44369
 Alpha  occ. eigenvalues --   -0.37389  -0.36780  -0.36393  -0.35692
 Alpha virt. eigenvalues --    0.04941   0.05613   0.11263   0.11895   0.16455
 Alpha virt. eigenvalues --    0.17105   0.21334   0.21961   0.27149   0.27896
 Alpha virt. eigenvalues --    0.28071   0.28858   0.30730   0.31457   0.32187

 Mulliken charges:
               1
     1  C   -0.170448
     2  C   -0.219145
     3  C   -0.169852
     4  C    0.157472
     5  C   -0.170801
     6  C   -0.218852
     7  H    0.225841
     8  H    0.224374
     9  H    0.276243
    10  H    0.275214
    11  H    0.223416
    12  N    0.491729
    13  O   -0.460971
    14  O   -0.465950
    15  C   -0.171737
    16  C   -0.220598
    17  C   -0.180355
    18  C    0.155229
    19  C   -0.150142
    20  C   -0.213758
    21  H    0.223331
    22  H    0.218586
    23  H    0.270065
    24  H    0.281001
    25  H    0.226150
    26  N    0.487416
    27  O   -0.455347
    28  O   -0.468110
 Sum of Mulliken charges =  -0.00000

 Dipole moment (field-independent basis, Debye):
    X=              3.1706    Y=             -1.5258    Z=              5.9820  Tot=              6.9401
 Quadrupole moment (field-independent basis, Debye-Ang):
   XX=            -90.4084   YY=           -104.0553   ZZ=           -106.8925
   XY=            -15.5079   XZ=             -9.6232   YZ=             -2.7731

 Normal termination of Gaussian 16 at Thu May  6 01:52:49 2021.
