 Gaussian 16, Revision A.03,
 Gaussian 16:  EM64L-G16RevA.03 25-Dec-2016

 -------------
 #p 6-31g* mp2
 -------------

 ------------------------------------------------------
 Input file generated by CHIRIPA (05-May-2021 14:57:23)
 ------------------------------------------------------
 Symbolic Z-matrix:
 Charge =  0 Multiplicity = 1

                         Standard orientation:
 ---------------------------------------------------------------------
 Center     Atomic      Atomic             Coordinates (Angstroms)
 Number     Number       Type             X           Y           Z
 ---------------------------------------------------------------------
      1          6           0       -5.900771    0.736709    0.035912
      2          6           0       -4.982965    1.530424   -0.659911
      3          6           0       -3.638714    1.155211   -0.742091
      4          6           0       -3.244979   -0.025282   -0.113841
      5          6           0       -4.135468   -0.837309    0.586823
      6          6           0       -5.474844   -0.442545    0.655965
      7          1           0       -6.943124    1.035778    0.094687
      8          1           0       -5.310912    2.446764   -1.142421
      9          1           0       -2.907052    1.750946   -1.274245
     10          1           0       -3.778707   -1.745332    1.057604
     11          1           0       -6.185410   -1.060918    1.197034
     12          7           0       -1.824461   -0.432853   -0.193940
     13          8           0       -1.502778   -1.477453    0.368169
     14          8           0       -1.059640    0.300012   -0.817314
     15          6           0        4.476067    2.263503    0.339679
     16          6           0        3.306040    1.931736    1.030686
     17          6           0        2.744780    0.657403    0.905742
     18          6           0        3.382714   -0.264767    0.077530
     19          6           0        4.549345    0.035623   -0.623918
     20          6           0        5.092897    1.316058   -0.483965
     21          1           0        4.905188    3.255804    0.442569
     22          1           0        2.824839    2.665518    1.671041
     23          1           0        1.839783    0.373951    1.429242
     24          1           0        5.006253   -0.717086   -1.254854
     25          1           0        6.001639    1.570924   -1.021810
     26          7           0        2.797907   -1.617077   -0.062687
     27          8           0        3.379155   -2.411578   -0.798591
     28          8           0        1.769360   -1.856909    0.565970
 ---------------------------------------------------------------------

 SCF Done:  E(RHF) =  -868.335855012     A.U. after   16 cycles
 E2 =    -0.2600572748D+01 EUMP2 =    -0.87093642775933D+03

 The electronic state is 1-A.
 Alpha  occ. eigenvalues --  -20.60338 -20.60243 -20.59290 -20.59124 -15.85349
 Alpha  occ. eigenvalues --  -15.84253 -11.30930 -11.29942 -11.27545 -11.27498
 Alpha  occ. eigenvalues --  -11.27305 -11.26621 -11.26597 -11.26566 -11.26522
 Alpha  occ. eigenvalues --  -11.26450 -11.25717 -11.25673  -1.59361  -1.58278
 Alpha  occ. eigenvalues --   -1.38911  -1.37818  -1.19123  -1.18170  -1.08476
 Alpha  occ. eigenvalues --   -1.07519  -1.04556  -1.03631  -0.95272  -0.94293
 Alpha  occ. eigenvalues --   -0.85943  -0.85017  -0.82101  -0.81126  -0.77118
 Alpha  occ. eigenvalues --   -0.76102  -0.71551  -0.70724  -0.70456  -0.70227
 Alpha  occ. eigenvalues --   -0.69599  -0.69306  -0.64768  -0.64557  -0.63827
 Alpha  occ. eigenvalues --   -0.63666  -0.61899  -0.60976  -0.55047  -0.54168
 Alpha  occ. eigenvalues --   -0.52878  -0.52649  -0.51935  -0.51746  -0.48347
 Alpha  occ. eigenvalues --   -0.48265  -0.47277  -0.47206  -0.44275  -0.43117
 Alpha  occ. eigenvalues --   -0.37119  -0.36186  -0.36171  -0.35238
 Alpha virt. eigenvalues --    0.05408   0.06459   0.11479   0.12412   0.16866
 Alpha virt. eigenvalues --    0.17858   0.21601   0.22394   0.27496   0.28263
 Alpha virt. eigenvalues --    0.28516   0.29336   0.31133   0.31888   0.32760

 Mulliken charges:
               1
     1  C   -0.171519
     2  C   -0.218561
     3  C   -0.172103
     4  C    0.158238
     5  C   -0.171372
     6  C   -0.218572
     7  H    0.224515
     8  H    0.221858
     9  H    0.273750
    10  H    0.277770
    11  H    0.223183
    12  N    0.485747
    13  O   -0.444285
    14  O   -0.467545
    15  C   -0.172056
    16  C   -0.219477
    17  C   -0.162802
    18  C    0.160106
    19  C   -0.171733
    20  C   -0.219256
    21  H    0.220413
    22  H    0.218582
    23  H    0.279633
    24  H    0.272930
    25  H    0.218758
    26  N    0.487839
    27  O   -0.470281
    28  O   -0.443761
 Sum of Mulliken charges =  -0.00000

 Dipole moment (field-independent basis, Debye):
    X=             -3.2553    Y=              5.8990    Z=              0.8937  Tot=              6.7966
 Quadrupole moment (field-independent basis, Debye-Ang):
   XX=            -58.8039   YY=           -104.9915   ZZ=           -102.6712
   XY=             11.0126   XZ=             -1.8536   YZ=             -1.8258

 Normal termination of Gaussian 16 at Wed May  5 16:17:55 2021.
