 Gaussian 16, Revision A.03,
 Gaussian 16:  EM64L-G16RevA.03 25-Dec-2016

 -------------
 #p 6-31g* mp2
 -------------

 ------------------------------------------------------
 Input file generated by CHIRIPA (05-May-2021 14:55:21)
 ------------------------------------------------------
 Symbolic Z-matrix:
 Charge =  0 Multiplicity = 1

                         Standard orientation:
 ---------------------------------------------------------------------
 Center     Atomic      Atomic             Coordinates (Angstroms)
 Number     Number       Type             X           Y           Z
 ---------------------------------------------------------------------
      1          6           0        1.433529    1.151273    0.263083
      2          6           0        2.389870    1.604024   -0.651767
      3          6           0        3.608919    0.934584   -0.794298
      4          6           0        3.839522   -0.189252   -0.002398
      5          6           0        2.906691   -0.664869    0.917876
      6          6           0        1.694532    0.020265    1.043608
      7          1           0        0.489218    1.677405    0.367279
      8          1           0        2.189894    2.482101   -1.259250
      9          1           0        4.366930    1.263445   -1.494790
     10          1           0        3.134729   -1.543118    1.509566
     11          1           0        0.953674   -0.333617    1.754905
     12          7           0        5.126428   -0.906266   -0.144398
     13          8           0        5.305365   -1.893886    0.564986
     14          8           0        5.931801   -0.467064   -0.962391
     15          6           0       -4.005937    0.430792    0.222072
     16          6           0       -3.983973    1.938482   -0.031643
     17          6           0       -2.702916    2.604097    0.471986
     18          1           0       -3.893419    0.244943    1.298986
     19          1           0       -3.136018   -0.029005   -0.267033
     20          1           0       -4.854428    2.395114    0.456632
     21          1           0       -4.096748    2.120769   -1.108058
     22          1           0       -1.825713    2.175716   -0.023600
     23          1           0       -2.587696    2.451619    1.549982
     24          1           0       -2.708328    3.681658    0.280431
     25          6           0       -5.280269   -0.248828   -0.275844
     26          6           0       -5.302232   -1.756519   -0.022129
     27          6           0       -6.583290   -2.422134   -0.525758
     28          1           0       -6.150188    0.210969    0.213260
     29          1           0       -5.392786   -0.062979   -1.352759
     30          1           0       -5.189457   -1.938805    1.054286
     31          1           0       -4.431778   -2.213149   -0.510405
     32          1           0       -6.698509   -2.269655   -1.603754
     33          1           0       -7.460493   -1.993751   -0.030173
     34          1           0       -6.577877   -3.499694   -0.334204
 ---------------------------------------------------------------------

 SCF Done:  E(RHF) =  -669.535644065     A.U. after   15 cycles
 E2 =    -0.2090738101D+01 EUMP2 =    -0.67162638216639D+03

 The electronic state is 1-A.
 Alpha  occ. eigenvalues --  -20.60724 -20.60718 -15.85777 -11.31132 -11.27702
 Alpha  occ. eigenvalues --  -11.27698 -11.27398 -11.26709 -11.26698 -11.22528
 Alpha  occ. eigenvalues --  -11.22328 -11.22206 -11.22135 -11.22001 -11.21497
 Alpha  occ. eigenvalues --   -1.59800  -1.39353  -1.19302  -1.09178  -1.08695
 Alpha  occ. eigenvalues --   -1.04705  -1.04299  -0.96773  -0.95533  -0.87795
 Alpha  occ. eigenvalues --   -0.86100  -0.82369  -0.80377  -0.78961  -0.77419
 Alpha  occ. eigenvalues --   -0.71995  -0.71123  -0.70419  -0.65803  -0.64952
 Alpha  occ. eigenvalues --   -0.64709  -0.62054  -0.61697  -0.60148  -0.58375
 Alpha  occ. eigenvalues --   -0.56136  -0.55179  -0.53453  -0.53168  -0.53033
 Alpha  occ. eigenvalues --   -0.52795  -0.50710  -0.48765  -0.48751  -0.48669
 Alpha  occ. eigenvalues --   -0.47392  -0.46511  -0.46406  -0.44761  -0.44534
 Alpha  occ. eigenvalues --   -0.37276  -0.36314
 Alpha virt. eigenvalues --    0.05108   0.11341   0.16568   0.20140   0.22348
 Alpha virt. eigenvalues --    0.23741   0.25356   0.26163   0.26943   0.27405
 Alpha virt. eigenvalues --    0.28918   0.30381   0.30900   0.31245   0.32214

 Mulliken charges:
               1
     1  C   -0.178415
     2  C   -0.220951
     3  C   -0.170835
     4  C    0.158297
     5  C   -0.170857
     6  C   -0.221185
     7  H    0.237614
     8  H    0.223488
     9  H    0.275350
    10  H    0.275361
    11  H    0.223973
    12  N    0.488017
    13  O   -0.460594
    14  O   -0.460608
    15  C   -0.299279
    16  C   -0.299147
    17  C   -0.482124
    18  H    0.149034
    19  H    0.148115
    20  H    0.155930
    21  H    0.154711
    22  H    0.147603
    23  H    0.156262
    24  H    0.164805
    25  C   -0.298758
    26  C   -0.300287
    27  C   -0.476125
    28  H    0.151081
    29  H    0.151197
    30  H    0.151916
    31  H    0.152441
    32  H    0.156133
    33  H    0.155912
    34  H    0.161924
 Sum of Mulliken charges =  -0.00000

 Dipole moment (field-independent basis, Debye):
    X=             -4.7878    Y=              2.5320    Z=              0.4894  Tot=              5.4382
 Quadrupole moment (field-independent basis, Debye-Ang):
   XX=           -129.4974   YY=            -94.1992   ZZ=            -92.0110
   XY=             11.0084   XZ=              0.1567   YZ=             -2.8307

 Normal termination of Gaussian 16 at Thu May  6 07:45:38 2021.
