 Gaussian 16, Revision A.03,
 Gaussian 16:  EM64L-G16RevA.03 25-Dec-2016

 -------------
 #p 6-31g* mp2
 -------------

 ------------------------------------------------------
 Input file generated by CHIRIPA (05-May-2021 14:51:11)
 ------------------------------------------------------
 Symbolic Z-matrix:
 Charge =  0 Multiplicity = 1

                         Standard orientation:
 ---------------------------------------------------------------------
 Center     Atomic      Atomic             Coordinates (Angstroms)
 Number     Number       Type             X           Y           Z
 ---------------------------------------------------------------------
      1          6           0       -5.372352   -0.635034    0.040595
      2          6           0       -6.815463   -0.131116    0.002093
      3          6           0       -7.839421   -1.261836    0.105903
      4          1           0       -5.217693   -1.348223   -0.780616
      5          1           0       -5.210834   -1.192717    0.973491
      6          1           0       -6.973815    0.426631   -0.929819
      7          1           0       -6.966650    0.581101    0.823375
      8          1           0       -7.710104   -1.813885    1.042450
      9          1           0       -7.717309   -1.969233   -0.720705
     10          1           0       -8.864403   -0.879213    0.076379
     11          6           0       -4.337097    0.483630   -0.062199
     12          6           0       -2.893986   -0.020287   -0.023697
     13          6           0       -1.870028    1.110433   -0.127507
     14          1           0       -4.498615    1.041313   -0.995096
     15          1           0       -4.491756    1.196819    0.759011
     16          1           0       -2.742798   -0.732505   -0.844979
     17          1           0       -2.735634   -0.578034    0.908214
     18          1           0       -1.992139    1.817829    0.699100
     19          1           0       -1.999344    1.662481   -1.064055
     20          1           0       -0.845046    0.727809   -0.097984
     21          6           0        4.107743    0.124327   -0.141138
     22          6           0        3.499316    1.475932    0.234317
     23          6           0        2.004320    1.557820   -0.075644
     24          1           0        3.943123   -0.060059   -1.211580
     25          1           0        3.576303   -0.671756    0.398511
     26          1           0        4.032652    2.269341   -0.304821
     27          1           0        3.665573    1.657208    1.303950
     28          1           0        1.454201    0.787005    0.473732
     29          1           0        1.823367    1.402616   -1.144180
     30          1           0        1.589836    2.532373    0.200597
     31          6           0        5.601706    0.027077    0.162742
     32          6           0        6.210132   -1.324528   -0.212713
     33          6           0        7.705128   -1.406416    0.097249
     34          1           0        6.133146    0.823159   -0.376906
     35          1           0        5.766326    0.211463    1.233185
     36          1           0        6.043876   -1.505804   -1.282345
     37          1           0        5.676796   -2.117937    0.326426
     38          1           0        7.886082   -1.251213    1.165785
     39          1           0        8.255248   -0.635601   -0.452128
     40          1           0        8.119613   -2.380970   -0.178992
 ---------------------------------------------------------------------

 SCF Done:  E(RHF) =  -470.732920883     A.U. after   11 cycles
 E2 =    -0.1582337604D+01 EUMP2 =    -0.47231525848686D+03

 The electronic state is 1-A.
 Alpha  occ. eigenvalues --  -11.21601 -11.21585 -11.21569 -11.21517 -11.21404
 Alpha  occ. eigenvalues --  -11.21353 -11.21345 -11.21291 -11.21071 -11.21054
 Alpha  occ. eigenvalues --  -11.21046 -11.20887  -1.08429  -1.08372  -1.03537
 Alpha  occ. eigenvalues --   -1.03454  -0.96019  -0.95872  -0.87082  -0.86845
 Alpha  occ. eigenvalues --   -0.79658  -0.79466  -0.78244  -0.78185  -0.65060
 Alpha  occ. eigenvalues --   -0.65004  -0.60941  -0.60856  -0.59368  -0.59282
 Alpha  occ. eigenvalues --   -0.57682  -0.57443  -0.55288  -0.55179  -0.52957
 Alpha  occ. eigenvalues --   -0.52573  -0.52372  -0.52107  -0.49934  -0.49827
 Alpha  occ. eigenvalues --   -0.47994  -0.47744  -0.46629  -0.46555  -0.45785
 Alpha  occ. eigenvalues --   -0.45729  -0.45707  -0.45657  -0.43850  -0.43593
 Alpha virt. eigenvalues --    0.22615   0.22966   0.23676   0.24705   0.26531
 Alpha virt. eigenvalues --    0.26701   0.26787   0.27491   0.27625   0.28983
 Alpha virt. eigenvalues --    0.30436   0.31307   0.31481   0.31719   0.32181

 Mulliken charges:
               1
     1  C   -0.298127
     2  C   -0.299565
     3  C   -0.475657
     4  H    0.149498
     5  H    0.149319
     6  H    0.151861
     7  H    0.151854
     8  H    0.155098
     9  H    0.155115
    10  H    0.160132
    11  C   -0.298360
    12  C   -0.299323
    13  C   -0.482528
    14  H    0.149361
    15  H    0.149421
    16  H    0.151442
    17  H    0.151079
    18  H    0.153980
    19  H    0.154287
    20  H    0.170807
    21  C   -0.298376
    22  C   -0.300384
    23  C   -0.476498
    24  H    0.149600
    25  H    0.149350
    26  H    0.151856
    27  H    0.151884
    28  H    0.155287
    29  H    0.155537
    30  H    0.161974
    31  C   -0.298242
    32  C   -0.299638
    33  C   -0.475705
    34  H    0.149564
    35  H    0.149652
    36  H    0.151927
    37  H    0.151902
    38  H    0.155178
    39  H    0.155191
    40  H    0.160247
 Sum of Mulliken charges =  -0.00000

 Dipole moment (field-independent basis, Debye):
    X=              0.0442    Y=              0.0145    Z=             -0.0034  Tot=              0.0467
 Quadrupole moment (field-independent basis, Debye-Ang):
   XX=            -86.9255   YY=            -85.2053   ZZ=            -82.8718
   XY=             -0.2755   XZ=             -0.3211   YZ=             -0.1649

 Normal termination of Gaussian 16 at Wed May  5 19:51:02 2021.
