 Gaussian 16, Revision A.03,
 Gaussian 16:  EM64L-G16RevA.03 25-Dec-2016

 -------------
 #p 6-31g* mp2
 -------------

 ------------------------------------------------------
 Input file generated by CHIRIPA (05-May-2021 14:53:18)
 ------------------------------------------------------
 Symbolic Z-matrix:
 Charge =  0 Multiplicity = 1

                         Standard orientation:
 ---------------------------------------------------------------------
 Center     Atomic      Atomic             Coordinates (Angstroms)
 Number     Number       Type             X           Y           Z
 ---------------------------------------------------------------------
      1          6           0       -4.368161   -0.600392   -0.053742
      2          6           0       -5.839296   -0.910992   -0.331728
      3          6           0       -6.163282   -2.399888   -0.205176
      4          1           0       -3.741001   -1.174030   -0.749842
      5          1           0       -4.111876   -0.947761    0.956727
      6          1           0       -6.093090   -0.561894   -1.340854
      7          1           0       -6.463034   -0.336402    0.364988
      8          1           0       -5.937795   -2.758764    0.804261
      9          1           0       -5.565749   -2.985537   -0.911272
     10          1           0       -7.220120   -2.599432   -0.407994
     11          6           0       -4.028736    0.884022   -0.176353
     12          6           0       -2.557601    1.194622    0.101633
     13          6           0       -2.233615    2.683518   -0.024918
     14          1           0       -4.285021    1.231391   -1.186822
     15          1           0       -4.655896    1.457659    0.519747
     16          1           0       -1.933863    0.620032   -0.595083
     17          1           0       -2.303807    0.845523    1.110759
     18          1           0       -2.831148    3.269167    0.681177
     19          1           0       -2.459102    3.042394   -1.034356
     20          1           0       -1.176777    2.883062    0.177900
     21          6           0        5.494397   -0.967744   -0.763451
     22          6           0        4.688565   -0.171776   -1.584177
     23          6           0        3.459723    0.308579   -1.121838
     24          6           0        3.065962   -0.027946    0.172378
     25          6           0        3.846485   -0.818915    1.014068
     26          6           0        5.071530   -1.288208    0.530770
     27          1           0        6.447516   -1.336598   -1.130747
     28          1           0        5.014420    0.078694   -2.589725
     29          1           0        2.816156    0.926619   -1.736057
     30          1           0        3.494806   -1.051798    2.011818
     31          1           0        5.695284   -1.906174    1.170375
     32          7           0        1.767052    0.474729    0.672929
     33          8           0        1.442815    0.164066    1.817043
     34          8           0        1.097798    1.169868   -0.088331
 ---------------------------------------------------------------------

 SCF Done:  E(RHF) =  -669.536305298     A.U. after   15 cycles
 E2 =    -0.2091444415D+01 EUMP2 =    -0.67162774971327D+03

 The electronic state is 1-A.
 Alpha  occ. eigenvalues --  -20.61028 -20.61013 -15.86039 -11.31339 -11.27897
 Alpha  occ. eigenvalues --  -11.27894 -11.27631 -11.26899 -11.26889 -11.20831
 Alpha  occ. eigenvalues --  -11.20452 -11.20388 -11.20110 -11.19810 -11.19212
 Alpha  occ. eigenvalues --   -1.60070  -1.39628  -1.19503  -1.08912  -1.07271
 Alpha  occ. eigenvalues --   -1.04896  -1.02271  -0.95760  -0.94754  -0.86297
 Alpha  occ. eigenvalues --   -0.85797  -0.82592  -0.78411  -0.77648  -0.76982
 Alpha  occ. eigenvalues --   -0.72266  -0.71377  -0.70611  -0.65160  -0.64898
 Alpha  occ. eigenvalues --   -0.63923  -0.62243  -0.59691  -0.58190  -0.56301
 Alpha  occ. eigenvalues --   -0.55392  -0.54094  -0.53229  -0.52987  -0.51446
 Alpha  occ. eigenvalues --   -0.51199  -0.49014  -0.48923  -0.48776  -0.46699
 Alpha  occ. eigenvalues --   -0.45496  -0.45072  -0.44517  -0.44398  -0.42523
 Alpha  occ. eigenvalues --   -0.37480  -0.36495
 Alpha virt. eigenvalues --    0.04866   0.11160   0.16363   0.21292   0.23901
 Alpha virt. eigenvalues --    0.25603   0.27219   0.27739   0.28146   0.28648
 Alpha virt. eigenvalues --    0.29251   0.30872   0.32370   0.32559   0.32780

 Mulliken charges:
               1
     1  C   -0.296898
     2  C   -0.298516
     3  C   -0.474936
     4  H    0.147267
     5  H    0.149786
     6  H    0.149889
     7  H    0.150759
     8  H    0.154607
     9  H    0.153499
    10  H    0.157535
    11  C   -0.298432
    12  C   -0.294036
    13  C   -0.481335
    14  H    0.144504
    15  H    0.145787
    16  H    0.155204
    17  H    0.157103
    18  H    0.145480
    19  H    0.144589
    20  H    0.182112
    21  C   -0.170493
    22  C   -0.218549
    23  C   -0.170851
    24  C    0.157615
    25  C   -0.170439
    26  C   -0.218600
    27  H    0.226161
    28  H    0.223985
    29  H    0.275874
    30  H    0.275968
    31  H    0.223978
    32  N    0.490508
    33  O   -0.458471
    34  O   -0.460652
 Sum of Mulliken charges =  -0.00000

 Dipole moment (field-independent basis, Debye):
    X=              5.0491    Y=             -1.7894    Z=             -1.6844  Tot=              5.6154
 Quadrupole moment (field-independent basis, Debye-Ang):
   XX=            -68.9178   YY=            -95.8058   ZZ=            -90.7528
   XY=             -6.4574   XZ=             -4.4075   YZ=             -2.3688

 Normal termination of Gaussian 16 at Thu May  6 17:19:54 2021.
