 Gaussian 16, Revision A.03,
 Gaussian 16:  EM64L-G16RevA.03 25-Dec-2016

 -------------
 #p 6-31g* mp2
 -------------

 ------------------------------------------------------
 Input file generated by CHIRIPA (05-May-2021 14:57:22)
 ------------------------------------------------------
 Symbolic Z-matrix:
 Charge =  0 Multiplicity = 1

                         Standard orientation:
 ---------------------------------------------------------------------
 Center     Atomic      Atomic             Coordinates (Angstroms)
 Number     Number       Type             X           Y           Z
 ---------------------------------------------------------------------
      1          6           0        3.328189    2.529442    0.318135
      2          6           0        4.547614    1.868018    0.497134
      3          6           0        4.666152    0.505985    0.204967
      4          6           0        3.539940   -0.166776   -0.266551
      5          6           0        2.311334    0.464236   -0.455340
      6          6           0        2.215902    1.826679   -0.156694
      7          1           0        3.245080    3.587661    0.547614
      8          1           0        5.413097    2.411257    0.865747
      9          1           0        5.598136   -0.030757    0.334323
     10          1           0        1.466133   -0.104014   -0.824318
     11          1           0        1.267616    2.337762   -0.296674
     12          7           0        3.653200   -1.608917   -0.579285
     13          8           0        2.646185   -2.179060   -0.993404
     14          8           0        4.746844   -2.141817   -0.404365
     15          6           0       -1.451774   -0.719654    1.504281
     16          6           0       -2.525211   -1.611353    1.408750
     17          6           0       -3.676837   -1.262511    0.696982
     18          6           0       -3.721344   -0.008187    0.090367
     19          6           0       -2.668387    0.902102    0.167459
     20          6           0       -1.526656    0.532021    0.884424
     21          1           0       -0.561007   -0.998892    2.059218
     22          1           0       -2.469842   -2.584091    1.889125
     23          1           0       -4.522446   -1.933539    0.607065
     24          1           0       -2.752917    1.864711   -0.322090
     25          1           0       -0.694540    1.226549    0.956941
     26          7           0       -4.935282    0.372359   -0.665901
     27          8           0       -4.949727    1.483384   -1.191308
     28          8           0       -5.849335   -0.447600   -0.718938
 ---------------------------------------------------------------------

 SCF Done:  E(RHF) =  -868.337490295     A.U. after   16 cycles
 E2 =    -0.2600246574D+01 EUMP2 =    -0.87093773686886D+03

 The electronic state is 1-A.
 Alpha  occ. eigenvalues --  -20.61435 -20.61424 -20.60980 -20.60966 -15.86491
 Alpha  occ. eigenvalues --  -15.86034 -11.31946 -11.31450 -11.28559 -11.28519
 Alpha  occ. eigenvalues --  -11.28298 -11.28120 -11.27997 -11.27772 -11.27638
 Alpha  occ. eigenvalues --  -11.27512 -11.27150 -11.26963  -1.60510  -1.60050
 Alpha  occ. eigenvalues --   -1.40059  -1.39603  -1.20146  -1.19639  -1.09515
 Alpha  occ. eigenvalues --   -1.09012  -1.05574  -1.05065  -0.96328  -0.95835
 Alpha  occ. eigenvalues --   -0.86954  -0.86458  -0.83171  -0.82678  -0.78215
 Alpha  occ. eigenvalues --   -0.77716  -0.72701  -0.72251  -0.71842  -0.71374
 Alpha  occ. eigenvalues --   -0.71222  -0.70715  -0.65806  -0.65622  -0.65292
 Alpha  occ. eigenvalues --   -0.65063  -0.62950  -0.62349  -0.56036  -0.55517
 Alpha  occ. eigenvalues --   -0.53906  -0.53694  -0.53355  -0.53103  -0.49471
 Alpha  occ. eigenvalues --   -0.49452  -0.49013  -0.49002  -0.45445  -0.44998
 Alpha  occ. eigenvalues --   -0.38121  -0.37618  -0.37168  -0.36662
 Alpha virt. eigenvalues --    0.04314   0.04835   0.10390   0.10908   0.15640
 Alpha virt. eigenvalues --    0.16290   0.19434   0.21887   0.25137   0.27493
 Alpha virt. eigenvalues --    0.27977   0.28528   0.29641   0.31468   0.32255

 Mulliken charges:
               1
     1  C   -0.170127
     2  C   -0.218674
     3  C   -0.169507
     4  C    0.158034
     5  C   -0.175646
     6  C   -0.224627
     7  H    0.228307
     8  H    0.226455
     9  H    0.278014
    10  H    0.279269
    11  H    0.219789
    12  N    0.487677
    13  O   -0.459905
    14  O   -0.458201
    15  C   -0.169818
    16  C   -0.217065
    17  C   -0.169285
    18  C    0.158995
    19  C   -0.171451
    20  C   -0.227262
    21  H    0.230256
    22  H    0.227548
    23  H    0.277648
    24  H    0.272893
    25  H    0.218385
    26  N    0.488247
    27  O   -0.461436
    28  O   -0.458515
 Sum of Mulliken charges =  -0.00000

 Dipole moment (field-independent basis, Debye):
    X=              3.9838    Y=              3.5624    Z=              3.8100  Tot=              6.5633
 Quadrupole moment (field-independent basis, Debye-Ang):
   XX=           -133.1954   YY=           -103.0832   ZZ=           -105.7717
   XY=             25.9598   XZ=             -4.6364   YZ=             -2.9254

 Normal termination of Gaussian 16 at Fri May  7 07:54:38 2021.
