 Gaussian 16, Revision A.03,
 Gaussian 16:  EM64L-G16RevA.03 25-Dec-2016

 -------------
 #p 6-31g* mp2
 -------------

 ------------------------------------------------------
 Input file generated by CHIRIPA (05-May-2021 14:55:23)
 ------------------------------------------------------
 Symbolic Z-matrix:
 Charge =  0 Multiplicity = 1

                         Standard orientation:
 ---------------------------------------------------------------------
 Center     Atomic      Atomic             Coordinates (Angstroms)
 Number     Number       Type             X           Y           Z
 ---------------------------------------------------------------------
      1          6           0       -5.342394    0.099741    0.234275
      2          6           0       -4.571996    1.261113    0.115017
      3          6           0       -3.185206    1.180147   -0.042482
      4          6           0       -2.599080   -0.084202   -0.076660
      5          6           0       -3.339501   -1.259604    0.039517
      6          6           0       -4.724777   -1.154699    0.196212
      7          1           0       -6.419098    0.171936    0.356312
      8          1           0       -5.048943    2.236671    0.144231
      9          1           0       -2.564836    2.063096   -0.137140
     10          1           0       -2.835578   -2.217939    0.006744
     11          1           0       -5.320568   -2.058328    0.288585
     12          7           0       -1.131749   -0.182589   -0.242972
     13          8           0       -0.639415   -1.308428   -0.270001
     14          8           0       -0.501773    0.867997   -0.343149
     15          6           0        3.936455    0.778382    0.187152
     16          6           0        2.969707    1.922844   -0.118771
     17          6           0        3.584534    3.299681    0.134410
     18          1           0        4.259827    0.850127    1.234638
     19          1           0        4.839571    0.896342   -0.427554
     20          1           0        2.068095    1.801993    0.495321
     21          1           0        2.648449    1.848255   -1.165598
     22          1           0        4.472600    3.445559   -0.489016
     23          1           0        3.888948    3.399035    1.181339
     24          1           0        2.876294    4.103167   -0.090682
     25          6           0        3.336285   -0.604335   -0.061071
     26          6           0        4.303033   -1.748798    0.244851
     27          6           0        3.688206   -3.125634   -0.008330
     28          1           0        2.433169   -0.722296    0.553634
     29          1           0        3.012913   -0.676081   -1.108558
     30          1           0        4.624291   -1.674208    1.291678
     31          1           0        5.204645   -1.627947   -0.369240
     32          1           0        3.383792   -3.224989   -1.055260
     33          1           0        2.800140   -3.271513    0.615095
     34          1           0        4.396446   -3.929120    0.216762
 ---------------------------------------------------------------------

 SCF Done:  E(RHF) =  -669.536088744     A.U. after   15 cycles
 E2 =    -0.2091888907D+01 EUMP2 =    -0.67162797765100D+03

 The electronic state is 1-A.
 Alpha  occ. eigenvalues --  -20.61031 -20.61020 -15.86042 -11.31350 -11.27909
 Alpha  occ. eigenvalues --  -11.27905 -11.27642 -11.26910 -11.26901 -11.20224
 Alpha  occ. eigenvalues --  -11.19853 -11.19820 -11.19779 -11.19751 -11.19540
 Alpha  occ. eigenvalues --   -1.60077  -1.39634  -1.19515  -1.08922  -1.06828
 Alpha  occ. eigenvalues --   -1.04907  -1.02057  -0.95765  -0.94544  -0.86308
 Alpha  occ. eigenvalues --   -0.85563  -0.82602  -0.78088  -0.77651  -0.76563
 Alpha  occ. eigenvalues --   -0.72248  -0.71391  -0.70622  -0.65169  -0.64909
 Alpha  occ. eigenvalues --   -0.63480  -0.62254  -0.59475  -0.57902  -0.56129
 Alpha  occ. eigenvalues --   -0.55411  -0.53853  -0.53241  -0.52998  -0.51299
 Alpha  occ. eigenvalues --   -0.50951  -0.49075  -0.49017  -0.48491  -0.46389
 Alpha  occ. eigenvalues --   -0.45238  -0.44912  -0.44127  -0.43944  -0.42280
 Alpha  occ. eigenvalues --   -0.37492  -0.36507
 Alpha virt. eigenvalues --    0.04848   0.11148   0.16341   0.21283   0.24366
 Alpha virt. eigenvalues --    0.25636   0.27209   0.28066   0.28313   0.29142
 Alpha virt. eigenvalues --    0.29451   0.30903   0.32351   0.32775   0.33079

 Mulliken charges:
               1
     1  C   -0.170503
     2  C   -0.218563
     3  C   -0.170871
     4  C    0.157866
     5  C   -0.170591
     6  C   -0.218594
     7  H    0.226197
     8  H    0.224026
     9  H    0.275895
    10  H    0.275986
    11  H    0.224022
    12  N    0.489906
    13  O   -0.458908
    14  O   -0.460035
    15  C   -0.299169
    16  C   -0.298658
    17  C   -0.475313
    18  H    0.142674
    19  H    0.142147
    20  H    0.168420
    21  H    0.153460
    22  H    0.149852
    23  H    0.149813
    24  H    0.155526
    25  C   -0.296624
    26  C   -0.299365
    27  C   -0.473505
    28  H    0.163922
    29  H    0.151825
    30  H    0.146459
    31  H    0.146233
    32  H    0.155107
    33  H    0.158707
    34  H    0.152655
 Sum of Mulliken charges =  -0.00000

 Dipole moment (field-independent basis, Debye):
    X=             -5.6914    Y=              0.2847    Z=              0.5430  Tot=              5.7243
 Quadrupole moment (field-independent basis, Debye-Ang):
   XX=            -70.5932   YY=            -91.9166   ZZ=            -94.9236
   XY=             -0.6284   XZ=             -1.7520   YZ=             -0.4535

 Normal termination of Gaussian 16 at Thu May  6 15:56:57 2021.
