 Gaussian 16, Revision A.03,
 Gaussian 16:  EM64L-G16RevA.03 25-Dec-2016

 -------------
 #p 6-31g* mp2
 -------------

 ------------------------------------------------------
 Input file generated by CHIRIPA (05-May-2021 14:51:12)
 ------------------------------------------------------
 Symbolic Z-matrix:
 Charge =  0 Multiplicity = 1

                         Standard orientation:
 ---------------------------------------------------------------------
 Center     Atomic      Atomic             Coordinates (Angstroms)
 Number     Number       Type             X           Y           Z
 ---------------------------------------------------------------------
      1          6           0       -1.761778   -0.889575   -0.191506
      2          6           0       -2.210489   -2.308481   -0.542718
      3          6           0       -1.036010   -3.261421   -0.766993
      4          1           0       -1.123371   -0.503549   -0.997957
      5          1           0       -1.137752   -0.922983    0.712303
      6          1           0       -2.834623   -2.272241   -1.444804
      7          1           0       -2.848059   -2.691103    0.264574
      8          1           0       -0.416047   -3.327242    0.132960
      9          1           0       -0.402535   -2.906000   -1.586131
     10          1           0       -1.379498   -4.270105   -1.016858
     11          6           0       -2.924608    0.074765    0.035654
     12          6           0       -2.475898    1.493671    0.386866
     13          6           0       -3.650377    2.446611    0.611141
     14          1           0       -3.548635    0.108173   -0.868155
     15          1           0       -3.563016   -0.311261    0.842106
     16          1           0       -1.838328    1.876293   -0.420426
     17          1           0       -1.851764    1.457431    1.288952
     18          1           0       -4.283852    2.091190    1.430279
     19          1           0       -4.270340    2.512432   -0.288812
     20          1           0       -3.306889    3.455295    0.861006
     21          6           0        2.558083   -0.303877   -0.099082
     22          6           0        2.232755   -1.324783    0.991742
     23          6           0        2.668713   -2.743138    0.622959
     24          1           0        2.068785   -0.607837   -1.034572
     25          1           0        3.639515   -0.317242   -0.293299
     26          1           0        1.152443   -1.308513    1.184819
     27          1           0        2.722726   -1.018255    1.924794
     28          1           0        3.749125   -2.781417    0.450195
     29          1           0        2.169920   -3.073324   -0.293984
     30          1           0        2.426575   -3.456722    1.416701
     31          6           0        2.128304    1.118687    0.254934
     32          6           0        2.453632    2.139593   -0.835891
     33          6           0        2.017673    3.557948   -0.467107
     34          1           0        1.046872    1.132052    0.449152
     35          1           0        2.617602    1.422647    1.190425
     36          1           0        1.963661    1.833065   -1.768942
     37          1           0        3.533944    2.123323   -1.028967
     38          1           0        2.516467    3.888134    0.449835
     39          1           0        0.937263    3.596227   -0.294343
     40          1           0        2.259812    4.271532   -1.260850
 ---------------------------------------------------------------------

 SCF Done:  E(RHF) =  -470.732503691     A.U. after   11 cycles
 E2 =    -0.1585614442D+01 EUMP2 =    -0.47231811813380D+03

 The electronic state is 1-A.
 Alpha  occ. eigenvalues --  -11.21708 -11.21682 -11.21550 -11.21505 -11.21486
 Alpha  occ. eigenvalues --  -11.21445 -11.21309 -11.21244 -11.21141 -11.21116
 Alpha  occ. eigenvalues --  -11.21028 -11.20950  -1.08552  -1.08329  -1.03639
 Alpha  occ. eigenvalues --   -1.03436  -0.96087  -0.95881  -0.87111  -0.86891
 Alpha  occ. eigenvalues --   -0.79691  -0.79522  -0.78459  -0.78081  -0.65197
 Alpha  occ. eigenvalues --   -0.64960  -0.61096  -0.60834  -0.59413  -0.59257
 Alpha  occ. eigenvalues --   -0.57705  -0.57516  -0.55382  -0.55166  -0.52754
 Alpha  occ. eigenvalues --   -0.52604  -0.52501  -0.52320  -0.50070  -0.49752
 Alpha  occ. eigenvalues --   -0.48137  -0.47699  -0.46825  -0.46553  -0.46352
 Alpha  occ. eigenvalues --   -0.45828  -0.45594  -0.45040  -0.43871  -0.43701
 Alpha virt. eigenvalues --    0.20033   0.21696   0.23527   0.24265   0.25281
 Alpha virt. eigenvalues --    0.25659   0.26495   0.27869   0.29205   0.29928
 Alpha virt. eigenvalues --    0.30261   0.31270   0.31770   0.31867   0.32442

 Mulliken charges:
               1
     1  C   -0.305380
     2  C   -0.299985
     3  C   -0.480617
     4  H    0.150414
     5  H    0.155185
     6  H    0.152148
     7  H    0.152136
     8  H    0.162119
     9  H    0.154547
    10  H    0.160717
    11  C   -0.297563
    12  C   -0.302707
    13  C   -0.475816
    14  H    0.149908
    15  H    0.150061
    16  H    0.152802
    17  H    0.153367
    18  H    0.155543
    19  H    0.155478
    20  H    0.160794
    21  C   -0.297596
    22  C   -0.306791
    23  C   -0.478821
    24  H    0.149479
    25  H    0.149147
    26  H    0.158315
    27  H    0.151186
    28  H    0.154680
    29  H    0.160078
    30  H    0.158536
    31  C   -0.304174
    32  C   -0.299114
    33  C   -0.476836
    34  H    0.156121
    35  H    0.148876
    36  H    0.150861
    37  H    0.151750
    38  H    0.155089
    39  H    0.156212
    40  H    0.159850
 Sum of Mulliken charges =  -0.00000

 Dipole moment (field-independent basis, Debye):
    X=             -0.0869    Y=             -0.0246    Z=              0.0062  Tot=              0.0905
 Quadrupole moment (field-independent basis, Debye-Ang):
   XX=            -84.6539   YY=            -86.4832   ZZ=            -83.6883
   XY=              1.0398   XZ=              0.4890   YZ=             -0.4082

 Normal termination of Gaussian 16 at Wed May  5 21:31:36 2021.
