 Gaussian 16, Revision A.03,
 Gaussian 16:  EM64L-G16RevA.03 25-Dec-2016

 -------------
 #p 6-31g* mp2
 -------------

 ------------------------------------------------------
 Input file generated by CHIRIPA (05-May-2021 14:55:24)
 ------------------------------------------------------
 Symbolic Z-matrix:
 Charge =  0 Multiplicity = 1

                         Standard orientation:
 ---------------------------------------------------------------------
 Center     Atomic      Atomic             Coordinates (Angstroms)
 Number     Number       Type             X           Y           Z
 ---------------------------------------------------------------------
      1          6           0        3.321409    1.927427   -0.950392
      2          6           0        3.726761    0.628094   -1.272794
      3          6           0        3.148778   -0.474446   -0.636483
      4          6           0        2.163739   -0.240051    0.321664
      5          6           0        1.738498    1.042441    0.664701
      6          6           0        2.330319    2.130097    0.015624
      7          1           0        3.775775    2.778125   -1.449652
      8          1           0        4.496233    0.467695   -2.022615
      9          1           0        3.443725   -1.490993   -0.866823
     10          1           0        0.969104    1.170690    1.416368
     11          1           0        2.013540    3.138060    0.268023
     12          7           0        1.544530   -1.399382    1.002055
     13          8           0        0.678691   -1.166164    1.842632
     14          8           0        1.936758   -2.519331    0.681886
     15          6           0       -2.454801   -0.536841   -0.428188
     16          6           0       -3.237267   -1.831922   -0.648405
     17          6           0       -2.332358   -3.022333   -0.967555
     18          1           0       -1.860995   -0.317502   -1.326092
     19          1           0       -1.738513   -0.684351    0.391914
     20          1           0       -3.952830   -1.681585   -1.466930
     21          1           0       -3.829427   -2.048101    0.250054
     22          1           0       -1.627404   -3.200677   -0.149120
     23          1           0       -1.751510   -2.832078   -1.875860
     24          1           0       -2.912355   -3.937666   -1.121261
     25          6           0       -3.345628    0.662228   -0.108203
     26          6           0       -2.563161    1.957309    0.112015
     27          6           0       -3.468071    3.147720    0.431165
     28          1           0       -4.061916    0.809740   -0.928304
     29          1           0       -3.939433    0.442890    0.789701
     30          1           0       -1.971001    2.173489   -0.786445
     31          1           0       -1.847598    1.806972    0.930540
     32          1           0       -4.048919    2.957466    1.339471
     33          1           0       -4.173024    3.326065   -0.387270
     34          1           0       -2.888074    4.063055    0.584871
 ---------------------------------------------------------------------

 SCF Done:  E(RHF) =  -669.536750552     A.U. after   15 cycles
 E2 =    -0.2092413585D+01 EUMP2 =    -0.67162916413729D+03

 The electronic state is 1-A.
 Alpha  occ. eigenvalues --  -20.60985 -20.60972 -15.85986 -11.31253 -11.27817
 Alpha  occ. eigenvalues --  -11.27809 -11.27550 -11.26817 -11.26803 -11.21589
 Alpha  occ. eigenvalues --  -11.21109 -11.21041 -11.20898 -11.20671 -11.20171
 Alpha  occ. eigenvalues --   -1.60023  -1.39583  -1.19420  -1.08836  -1.07997
 Alpha  occ. eigenvalues --   -1.04809  -1.03115  -0.95687  -0.95538  -0.86559
 Alpha  occ. eigenvalues --   -0.86214  -0.82525  -0.79233  -0.77805  -0.77546
 Alpha  occ. eigenvalues --   -0.72216  -0.71320  -0.70536  -0.65081  -0.64823
 Alpha  occ. eigenvalues --   -0.64608  -0.62161  -0.60500  -0.58976  -0.57151
 Alpha  occ. eigenvalues --   -0.55325  -0.54801  -0.53141  -0.52907  -0.52279
 Alpha  occ. eigenvalues --   -0.51963  -0.49479  -0.48981  -0.48971  -0.47528
 Alpha  occ. eigenvalues --   -0.46269  -0.45567  -0.45295  -0.44566  -0.43346
 Alpha  occ. eigenvalues --   -0.37396  -0.36399
 Alpha virt. eigenvalues --    0.04894   0.11216   0.16365   0.20751   0.23201
 Alpha virt. eigenvalues --    0.24602   0.25518   0.27256   0.27713   0.28420
 Alpha virt. eigenvalues --    0.29244   0.31067   0.31501   0.32023   0.32132

 Mulliken charges:
               1
     1  C   -0.170545
     2  C   -0.218750
     3  C   -0.170664
     4  C    0.158906
     5  C   -0.170418
     6  C   -0.219043
     7  H    0.225854
     8  H    0.223630
     9  H    0.275687
    10  H    0.277314
    11  H    0.224085
    12  N    0.488644
    13  O   -0.460472
    14  O   -0.458219
    15  C   -0.311564
    16  C   -0.297922
    17  C   -0.480143
    18  H    0.143204
    19  H    0.169582
    20  H    0.147141
    21  H    0.152679
    22  H    0.171236
    23  H    0.150211
    24  H    0.157423
    25  C   -0.296770
    26  C   -0.300939
    27  C   -0.474928
    28  H    0.147615
    29  H    0.151435
    30  H    0.148816
    31  H    0.148594
    32  H    0.157260
    33  H    0.155907
    34  H    0.155154
 Sum of Mulliken charges =  -0.00000

 Dipole moment (field-independent basis, Debye):
    X=              2.3367    Y=              3.9538    Z=             -2.2815  Tot=              5.1281
 Quadrupole moment (field-independent basis, Debye-Ang):
   XX=            -84.6002   YY=            -96.1243   ZZ=            -94.7153
   XY=              6.9764   XZ=             -6.5873   YZ=              3.0718

 Normal termination of Gaussian 16 at Thu May  6 17:42:45 2021.
