 Gaussian 16, Revision A.03,
 Gaussian 16:  EM64L-G16RevA.03 25-Dec-2016

 -------------
 #p 6-31g* mp2
 -------------

 ------------------------------------------------------
 Input file generated by CHIRIPA (05-May-2021 14:53:12)
 ------------------------------------------------------
 Symbolic Z-matrix:
 Charge =  0 Multiplicity = 1

                         Standard orientation:
 ---------------------------------------------------------------------
 Center     Atomic      Atomic             Coordinates (Angstroms)
 Number     Number       Type             X           Y           Z
 ---------------------------------------------------------------------
      1          6           0       -3.548917   -0.139001    0.044867
      2          6           0       -3.192273   -1.574267    0.433196
      3          6           0       -4.396354   -2.515505    0.387875
      4          1           0       -4.332304    0.232729    0.719453
      5          1           0       -3.979744   -0.136321   -0.965962
      6          1           0       -2.760970   -1.574068    1.442451
      7          1           0       -2.409508   -1.942557   -0.242272
      8          1           0       -4.824262   -2.545395   -0.619400
      9          1           0       -5.177721   -2.174813    1.074895
     10          1           0       -4.118850   -3.536196    0.669017
     11          6           0       -2.355569    0.813893    0.085400
     12          6           0       -2.712214    2.249160   -0.302930
     13          6           0       -1.508132    3.190397   -0.257608
     14          1           0       -1.924743    0.811213    1.096229
     15          1           0       -1.572182    0.442163   -0.589186
     16          1           0       -3.494979    2.617449    0.372539
     17          1           0       -3.143516    2.248960   -1.312184
     18          1           0       -0.726766    2.849705   -0.944628
     19          1           0       -1.080225    3.220288    0.749667
     20          1           0       -1.785636    4.211089   -0.538750
     21          6           0        2.385465    2.213691    0.420875
     22          6           0        1.901736    1.750007   -0.806937
     23          6           0        1.853373    0.379577   -1.079203
     24          6           0        2.298800   -0.503128   -0.096494
     25          6           0        2.786135   -0.072098    1.136392
     26          6           0        2.825345    1.302765    1.386918
     27          1           0        2.419480    3.279996    0.623934
     28          1           0        1.559456    2.455144   -1.559049
     29          1           0        1.483635   -0.006701   -2.021275
     30          1           0        3.120355   -0.799255    1.866432
     31          1           0        3.201515    1.660005    2.341340
     32          7           0        2.252445   -1.956288   -0.373221
     33          8           0        2.650762   -2.713485    0.509180
     34          8           0        1.818674   -2.310561   -1.467283
 ---------------------------------------------------------------------

 SCF Done:  E(RHF) =  -669.534695585     A.U. after   15 cycles
 E2 =    -0.2093026166D+01 EUMP2 =    -0.67162772175090D+03

 The electronic state is 1-A.
 Alpha  occ. eigenvalues --  -20.60789 -20.60784 -15.85843 -11.31213 -11.27776
 Alpha  occ. eigenvalues --  -11.27765 -11.27495 -11.26794 -11.26779 -11.21929
 Alpha  occ. eigenvalues --  -11.21614 -11.21513 -11.21413 -11.21343 -11.20847
 Alpha  occ. eigenvalues --   -1.59864  -1.39418  -1.19381  -1.08775  -1.08512
 Alpha  occ. eigenvalues --   -1.04795  -1.03631  -0.96111  -0.95604  -0.87148
 Alpha  occ. eigenvalues --   -0.86178  -0.82448  -0.79720  -0.78287  -0.77493
 Alpha  occ. eigenvalues --   -0.72061  -0.71185  -0.70476  -0.65175  -0.65034
 Alpha  occ. eigenvalues --   -0.64810  -0.62175  -0.61019  -0.59492  -0.57695
 Alpha  occ. eigenvalues --   -0.55471  -0.55230  -0.53194  -0.52942  -0.52793
 Alpha  occ. eigenvalues --   -0.52426  -0.50053  -0.48819  -0.48816  -0.48007
 Alpha  occ. eigenvalues --   -0.46739  -0.45832  -0.45739  -0.44821  -0.43875
 Alpha  occ. eigenvalues --   -0.37318  -0.36326
 Alpha virt. eigenvalues --    0.05016   0.11175   0.16422   0.20769   0.22880
 Alpha virt. eigenvalues --    0.24297   0.25913   0.26727   0.27345   0.28306
 Alpha virt. eigenvalues --    0.28784   0.30031   0.31455   0.31988   0.32083

 Mulliken charges:
               1
     1  C   -0.298480
     2  C   -0.301252
     3  C   -0.475893
     4  H    0.148760
     5  H    0.149455
     6  H    0.151617
     7  H    0.158085
     8  H    0.155125
     9  H    0.153368
    10  H    0.163159
    11  C   -0.298564
    12  C   -0.299528
    13  C   -0.476192
    14  H    0.149680
    15  H    0.149505
    16  H    0.153056
    17  H    0.152222
    18  H    0.148887
    19  H    0.153957
    20  H    0.158642
    21  C   -0.169859
    22  C   -0.214539
    23  C   -0.172303
    24  C    0.159294
    25  C   -0.170848
    26  C   -0.218878
    27  H    0.226487
    28  H    0.223950
    29  H    0.275006
    30  H    0.275572
    31  H    0.223475
    32  N    0.488201
    33  O   -0.460192
    34  O   -0.460975
 Sum of Mulliken charges =  -0.00000

 Dipole moment (field-independent basis, Debye):
    X=              0.1882    Y=              5.0361    Z=              1.0106  Tot=              5.1399
 Quadrupole moment (field-independent basis, Debye-Ang):
   XX=            -94.5507   YY=           -101.1326   ZZ=            -90.0586
   XY=             11.0349   XZ=              4.1261   YZ=             -1.6290

 Normal termination of Gaussian 16 at Wed May  5 15:29:00 2021.
