 Gaussian 16, Revision A.03,
 Gaussian 16:  EM64L-G16RevA.03 25-Dec-2016

 -------------
 #p 6-31g* mp2
 -------------

 ------------------------------------------------------
 Input file generated by CHIRIPA (05-May-2021 14:51:07)
 ------------------------------------------------------
 Symbolic Z-matrix:
 Charge =  0 Multiplicity = 1

                         Standard orientation:
 ---------------------------------------------------------------------
 Center     Atomic      Atomic             Coordinates (Angstroms)
 Number     Number       Type             X           Y           Z
 ---------------------------------------------------------------------
      1          6           0       -4.793902   -0.251469    0.369577
      2          6           0       -5.932893   -0.300640   -0.649376
      3          6           0       -7.310924   -0.155138   -0.003113
      4          1           0       -4.938899   -1.049224    1.110865
      5          1           0       -4.843684    0.698721    0.919174
      6          1           0       -5.880147   -1.249860   -1.197842
      7          1           0       -5.785064    0.497205   -1.388434
      8          1           0       -7.388202    0.798648    0.528791
      9          1           0       -7.483826   -0.958343    0.720466
     10          1           0       -8.110440   -0.193057   -0.749568
     11          6           0       -3.410061   -0.395602   -0.261247
     12          6           0       -2.271069   -0.346431    0.757706
     13          6           0       -0.893039   -0.491933    0.111444
     14          1           0       -3.360279   -1.345792   -0.810843
     15          1           0       -3.265063    0.402153   -1.002534
     16          1           0       -2.418899   -1.144276    1.496765
     17          1           0       -2.323815    0.602789    1.306173
     18          1           0       -0.720136    0.311272   -0.612136
     19          1           0       -0.815760   -1.445719   -0.420461
     20          1           0       -0.093523   -0.454014    0.857899
     21          6           0        4.839248    0.152032    0.048095
     22          6           0        5.158770   -1.322613   -0.199515
     23          6           0        6.637625   -1.650157    0.009038
     24          1           0        5.451399    0.770844   -0.622195
     25          1           0        5.133330    0.416615    1.073233
     26          1           0        4.862898   -1.584685   -1.223427
     27          1           0        4.545647   -1.937993    0.471309
     28          1           0        6.943140   -1.416419    1.034040
     29          1           0        7.262192   -1.061105   -0.670325
     30          1           0        6.843778   -2.709472   -0.173210
     31          6           0        3.364715    0.495038   -0.156426
     32          6           0        3.045193    1.969684    0.091185
     33          6           0        1.566337    2.297229   -0.117369
     34          1           0        3.070632    0.230457   -1.181564
     35          1           0        2.752564   -0.123772    0.513864
     36          1           0        3.658315    2.585064   -0.579639
     37          1           0        3.341065    2.231757    1.115096
     38          1           0        0.941770    1.708175    0.561994
     39          1           0        1.260823    2.063491   -1.142370
     40          1           0        1.360185    3.356543    0.064878
 ---------------------------------------------------------------------

 SCF Done:  E(RHF) =  -470.731898408     A.U. after   11 cycles
 E2 =    -0.1583277148D+01 EUMP2 =    -0.47231517555556D+03

 The electronic state is 1-A.
 Alpha  occ. eigenvalues --  -11.21587 -11.21570 -11.21569 -11.21539 -11.21385
 Alpha  occ. eigenvalues --  -11.21359 -11.21325 -11.21297 -11.21060 -11.21048
 Alpha  occ. eigenvalues --  -11.20965 -11.20919  -1.08415  -1.08376  -1.03546
 Alpha  occ. eigenvalues --   -1.03442  -0.96031  -0.95860  -0.87082  -0.86851
 Alpha  occ. eigenvalues --   -0.79694  -0.79435  -0.78246  -0.78162  -0.65057
 Alpha  occ. eigenvalues --   -0.65007  -0.61003  -0.60837  -0.59433  -0.59201
 Alpha  occ. eigenvalues --   -0.57577  -0.57564  -0.55365  -0.55112  -0.52758
 Alpha  occ. eigenvalues --   -0.52616  -0.52424  -0.52242  -0.49985  -0.49760
 Alpha  occ. eigenvalues --   -0.47929  -0.47788  -0.46614  -0.46515  -0.45812
 Alpha  occ. eigenvalues --   -0.45715  -0.45661  -0.45606  -0.43752  -0.43686
 Alpha virt. eigenvalues --    0.21873   0.22997   0.23600   0.24923   0.25746
 Alpha virt. eigenvalues --    0.26570   0.26953   0.27544   0.27756   0.29433
 Alpha virt. eigenvalues --    0.29838   0.31329   0.31567   0.31882   0.32277

 Mulliken charges:
               1
     1  C   -0.298236
     2  C   -0.299644
     3  C   -0.475691
     4  H    0.149564
     5  H    0.149550
     6  H    0.151876
     7  H    0.151955
     8  H    0.155180
     9  H    0.155133
    10  H    0.160203
    11  C   -0.298501
    12  C   -0.300946
    13  C   -0.479630
    14  H    0.149519
    15  H    0.149923
    16  H    0.151584
    17  H    0.151992
    18  H    0.161326
    19  H    0.154745
    20  H    0.159988
    21  C   -0.298227
    22  C   -0.299553
    23  C   -0.475674
    24  H    0.149592
    25  H    0.149241
    26  H    0.151984
    27  H    0.151877
    28  H    0.155080
    29  H    0.155124
    30  H    0.160143
    31  C   -0.299653
    32  C   -0.299752
    33  C   -0.479727
    34  H    0.149825
    35  H    0.151136
    36  H    0.151356
    37  H    0.151227
    38  H    0.163645
    39  H    0.153903
    40  H    0.158563
 Sum of Mulliken charges =  -0.00000

 Dipole moment (field-independent basis, Debye):
    X=             -0.0162    Y=             -0.0063    Z=             -0.0094  Tot=              0.0198
 Quadrupole moment (field-independent basis, Debye-Ang):
   XX=            -87.1801   YY=            -84.0080   ZZ=            -83.9166
   XY=              0.5085   XZ=              0.0437   YZ=             -0.2952

 Normal termination of Gaussian 16 at Wed May  5 18:04:54 2021.
