 Gaussian 16, Revision A.03,
 Gaussian 16:  EM64L-G16RevA.03 25-Dec-2016

 -------------
 #p 6-31g* mp2
 -------------

 ------------------------------------------------------
 Input file generated by CHIRIPA (05-May-2021 14:53:14)
 ------------------------------------------------------
 Symbolic Z-matrix:
 Charge =  0 Multiplicity = 1

                         Standard orientation:
 ---------------------------------------------------------------------
 Center     Atomic      Atomic             Coordinates (Angstroms)
 Number     Number       Type             X           Y           Z
 ---------------------------------------------------------------------
      1          6           0       -3.395372   -0.166820   -0.547352
      2          6           0       -4.460697    0.693264    0.133329
      3          6           0       -5.197200    1.607319   -0.846396
      4          1           0       -2.673124    0.488009   -1.053812
      5          1           0       -3.869772   -0.773910   -1.330794
      6          1           0       -3.984657    1.297532    0.916184
      7          1           0       -5.180386    0.036317    0.638389
      8          1           0       -5.698022    1.017782   -1.621137
      9          1           0       -4.495499    2.286162   -1.341763
     10          1           0       -5.954177    2.213156   -0.338650
     11          6           0       -2.650424   -1.085952    0.419072
     12          6           0       -1.585100   -1.946035   -0.261608
     13          6           0       -0.848597   -2.860091    0.718116
     14          1           0       -2.176025   -0.478862    1.202515
     15          1           0       -3.372673   -1.740780    0.925533
     16          1           0       -0.865411   -1.289089   -0.766668
     17          1           0       -2.061140   -2.550304   -1.044463
     18          1           0       -1.550297   -3.538934    1.213484
     19          1           0       -0.347775   -2.270554    1.492857
     20          1           0       -0.091619   -3.465928    0.210370
     21          6           0        1.545856    2.782108    0.716251
     22          6           0        1.133920    1.655972    1.436422
     23          6           0        1.579608    0.380740    1.076290
     24          6           0        2.440507    0.267710   -0.014291
     25          6           0        2.868791    1.370532   -0.751614
     26          6           0        2.410454    2.636052   -0.373547
     27          1           0        1.194721    3.768966    1.002977
     28          1           0        0.462510    1.766397    2.283217
     29          1           0        1.276460   -0.507996    1.616353
     30          1           0        3.538593    1.228793   -1.591075
     31          1           0        2.732021    3.508850   -0.934672
     32          7           0        2.919032   -1.077180   -0.405040
     33          8           0        3.677057   -1.150028   -1.369783
     34          8           0        2.527016   -2.032990    0.260833
 ---------------------------------------------------------------------

 SCF Done:  E(RHF) =  -669.535332989     A.U. after   15 cycles
 E2 =    -0.2093083290D+01 EUMP2 =    -0.67162841627915D+03

 The electronic state is 1-A.
 Alpha  occ. eigenvalues --  -20.60872 -20.60859 -15.85903 -11.31273 -11.27838
 Alpha  occ. eigenvalues --  -11.27829 -11.27580 -11.26856 -11.26846 -11.21793
 Alpha  occ. eigenvalues --  -11.21475 -11.21411 -11.21335 -11.21271 -11.20520
 Alpha  occ. eigenvalues --   -1.59934  -1.39487  -1.19446  -1.08839  -1.08446
 Alpha  occ. eigenvalues --   -1.04848  -1.03465  -0.95911  -0.95658  -0.86910
 Alpha  occ. eigenvalues --   -0.86243  -0.82505  -0.79544  -0.78261  -0.77549
 Alpha  occ. eigenvalues --   -0.72130  -0.71255  -0.70559  -0.65131  -0.65094
 Alpha  occ. eigenvalues --   -0.64834  -0.62244  -0.60835  -0.59265  -0.57486
 Alpha  occ. eigenvalues --   -0.55408  -0.55156  -0.53172  -0.52944  -0.52519
 Alpha  occ. eigenvalues --   -0.52304  -0.49884  -0.48887  -0.48858  -0.47840
 Alpha  occ. eigenvalues --   -0.46602  -0.45791  -0.45733  -0.44871  -0.43683
 Alpha  occ. eigenvalues --   -0.37418  -0.36437
 Alpha virt. eigenvalues --    0.04943   0.11140   0.16392   0.20406   0.22917
 Alpha virt. eigenvalues --    0.24039   0.25896   0.26912   0.27162   0.28054
 Alpha virt. eigenvalues --    0.29333   0.30482   0.31460   0.31664   0.32134

 Mulliken charges:
               1
     1  C   -0.298229
     2  C   -0.298681
     3  C   -0.475511
     4  H    0.149177
     5  H    0.151266
     6  H    0.147318
     7  H    0.152855
     8  H    0.156721
     9  H    0.153789
    10  H    0.159644
    11  C   -0.295583
    12  C   -0.302467
    13  C   -0.472907
    14  H    0.139578
    15  H    0.150356
    16  H    0.150321
    17  H    0.153253
    18  H    0.150272
    19  H    0.144015
    20  H    0.180482
    21  C   -0.170626
    22  C   -0.221178
    23  C   -0.172207
    24  C    0.155963
    25  C   -0.170441
    26  C   -0.218687
    27  H    0.226037
    28  H    0.224152
    29  H    0.283237
    30  H    0.275920
    31  H    0.223830
    32  N    0.487972
    33  O   -0.459819
    34  O   -0.459824
 Sum of Mulliken charges =  -0.00000

 Dipole moment (field-independent basis, Debye):
    X=             -1.5488    Y=              4.6252    Z=              1.2800  Tot=              5.0428
 Quadrupole moment (field-independent basis, Debye-Ang):
   XX=           -102.2573   YY=            -91.3485   ZZ=            -92.8327
   XY=             13.3899   XZ=              1.0421   YZ=             -0.7308

 Normal termination of Gaussian 16 at Thu May  6 10:31:13 2021.
