 Gaussian 16, Revision A.03,
 Gaussian 16:  EM64L-G16RevA.03 25-Dec-2016

 -------------
 #p 6-31g* mp2
 -------------

 ------------------------------------------------------
 Input file generated by CHIRIPA (05-May-2021 14:51:02)
 ------------------------------------------------------
 Symbolic Z-matrix:
 Charge =  0 Multiplicity = 1

                         Standard orientation:
 ---------------------------------------------------------------------
 Center     Atomic      Atomic             Coordinates (Angstroms)
 Number     Number       Type             X           Y           Z
 ---------------------------------------------------------------------
      1          6           0       -0.666000   -0.374000    0.000000
      2          6           0       -1.882000    0.553000    0.000000
      3          6           0       -3.207000   -0.210000    0.000000
      4          1           0       -0.713000   -1.030000   -0.880000
      5          1           0       -0.713000   -1.029000    0.881000
      6          1           0       -1.832000    1.207000   -0.880000
      7          1           0       -1.832000    1.207000    0.880000
      8          1           0       -3.283000   -0.850000    0.885000
      9          1           0       -3.283000   -0.850000   -0.885000
     10          1           0       -4.063000    0.472000    0.000000
     11          6           0        0.666000    0.374000   -0.000000
     12          6           0        1.882000   -0.553000    0.000000
     13          6           0        3.207000    0.210000   -0.000000
     14          1           0        0.713000    1.029000   -0.881000
     15          1           0        0.713000    1.030000    0.880000
     16          1           0        1.832000   -1.207000   -0.880000
     17          1           0        1.832000   -1.207000    0.880000
     18          1           0        3.283000    0.850000    0.885000
     19          1           0        3.283000    0.850000   -0.885000
     20          1           0        4.063000   -0.472000    0.000000
 ---------------------------------------------------------------------

 SCF Done:  E(RHF) =  -235.366906584     A.U. after   11 cycles
 E2 =    -0.7904979530D+00 EUMP2 =    -0.23615740453687D+03

 The electronic state is 1-AG.
 Alpha  occ. eigenvalues --  -11.21602 -11.21601 -11.21405 -11.21345 -11.21071
 Alpha  occ. eigenvalues --  -11.21071  -1.08430  -1.03528  -0.95977  -0.86993
 Alpha  occ. eigenvalues --   -0.79589  -0.78242  -0.65059  -0.60924  -0.59346
 Alpha  occ. eigenvalues --   -0.57588  -0.55264  -0.52672  -0.52402  -0.49919
 Alpha  occ. eigenvalues --   -0.47910  -0.46624  -0.45784  -0.45709  -0.43785
 Alpha virt. eigenvalues --    0.22871   0.24322   0.26657   0.27508   0.28017
 Alpha virt. eigenvalues --    0.31417   0.31916   0.31971   0.34095   0.34140
 Alpha virt. eigenvalues --    0.34762   0.34792   0.36338   0.36515   0.39524

 Mulliken charges:
               1
     1  C   -0.298310
     2  C   -0.299658
     3  C   -0.475708
     4  H    0.149652
     5  H    0.149530
     6  H    0.151932
     7  H    0.151945
     8  H    0.155184
     9  H    0.155180
    10  H    0.160255
    11  C   -0.298310
    12  C   -0.299658
    13  C   -0.475708
    14  H    0.149530
    15  H    0.149652
    16  H    0.151945
    17  H    0.151932
    18  H    0.155180
    19  H    0.155184
    20  H    0.160255
 Sum of Mulliken charges =  -0.00000

 Dipole moment (field-independent basis, Debye):
    X=             -0.0000    Y=              0.0000    Z=             -0.0000  Tot=              0.0000
 Quadrupole moment (field-independent basis, Debye-Ang):
   XX=            -43.4853   YY=            -42.5718   ZZ=            -41.3219
   XY=             -0.4236   XZ=              0.0000   YZ=              0.0022

 Normal termination of Gaussian 16 at Wed May  5 14:59:52 2021.
