 Gaussian 16, Revision A.03,
 Gaussian 16:  EM64L-G16RevA.03 25-Dec-2016

 -------------
 #p 6-31g* mp2
 -------------

 ------------------------------------------------------
 Input file generated by CHIRIPA (05-May-2021 14:57:22)
 ------------------------------------------------------
 Symbolic Z-matrix:
 Charge =  0 Multiplicity = 1

                         Standard orientation:
 ---------------------------------------------------------------------
 Center     Atomic      Atomic             Coordinates (Angstroms)
 Number     Number       Type             X           Y           Z
 ---------------------------------------------------------------------
      1          6           0        4.114155    2.308171    0.484718
      2          6           0        3.568022    2.051545   -0.777186
      3          6           0        3.017873    0.800483   -1.071679
      4          6           0        3.030603   -0.175291   -0.076193
      5          6           0        3.567292    0.049829    1.190526
      6          6           0        4.112051    1.308257    1.462823
      7          1           0        4.539431    3.282887    0.704866
      8          1           0        3.568285    2.826199   -1.538735
      9          1           0        2.588513    0.574844   -2.040263
     10          1           0        3.552580   -0.742330    1.929232
     11          1           0        4.535497    1.504729    2.443708
     12          7           0        2.451038   -1.503633   -0.376210
     13          8           0        2.474454   -2.346452    0.518075
     14          8           0        1.984334   -1.676817   -1.499968
     15          6           0       -1.862402   -2.226177    0.100564
     16          6           0       -2.650984   -1.836769    1.188233
     17          6           0       -3.355533   -0.629597    1.158312
     18          6           0       -3.248294    0.167364    0.019610
     19          6           0       -2.470899   -0.193086   -1.079946
     20          6           0       -1.775031   -1.404540   -1.028064
     21          1           0       -1.318464   -3.165601    0.132339
     22          1           0       -2.720705   -2.472860    2.066055
     23          1           0       -3.973340   -0.303843    1.986331
     24          1           0       -2.421073    0.462104   -1.941143
     25          1           0       -1.163375   -1.704414   -1.874230
     26          7           0       -3.989574    1.447610   -0.023691
     27          8           0       -3.878487    2.131917   -1.038591
     28          8           0       -4.667640    1.742518    0.958089
 ---------------------------------------------------------------------

 SCF Done:  E(RHF) =  -868.340642655     A.U. after   16 cycles
 E2 =    -0.2598645056D+01 EUMP2 =    -0.87093928771106D+03

 The electronic state is 1-A.
 Alpha  occ. eigenvalues --  -20.61622 -20.61595 -20.60348 -20.60343 -15.86633
 Alpha  occ. eigenvalues --  -15.85392 -11.31678 -11.30538 -11.28214 -11.28207
 Alpha  occ. eigenvalues --  -11.27880 -11.27150 -11.27137 -11.27092 -11.27036
 Alpha  occ. eigenvalues --  -11.26602 -11.26027 -11.25839  -1.60672  -1.59429
 Alpha  occ. eigenvalues --   -1.40236  -1.38989  -1.19818  -1.18660  -1.09270
 Alpha  occ. eigenvalues --   -1.08060  -1.05176  -1.04022  -0.96162  -0.94944
 Alpha  occ. eigenvalues --   -0.86588  -0.85401  -0.83011  -0.81787  -0.78094
 Alpha  occ. eigenvalues --   -0.76893  -0.72877  -0.71966  -0.71612  -0.70924
 Alpha  occ. eigenvalues --   -0.70752  -0.69684  -0.65477  -0.65176  -0.64284
 Alpha  occ. eigenvalues --   -0.63962  -0.62532  -0.61366  -0.55682  -0.54411
 Alpha  occ. eigenvalues --   -0.53515  -0.53265  -0.52379  -0.52071  -0.49640
 Alpha  occ. eigenvalues --   -0.49603  -0.48384  -0.48346  -0.45705  -0.44445
 Alpha  occ. eigenvalues --   -0.37770  -0.36761  -0.36580  -0.35642
 Alpha virt. eigenvalues --    0.04404   0.05618   0.10898   0.12022   0.15955
 Alpha virt. eigenvalues --    0.17203   0.21049   0.22400   0.26979   0.27775
 Alpha virt. eigenvalues --    0.28352   0.29254   0.30669   0.31833   0.32301

 Mulliken charges:
               1
     1  C   -0.169335
     2  C   -0.217844
     3  C   -0.170036
     4  C    0.158771
     5  C   -0.170329
     6  C   -0.218262
     7  H    0.228302
     8  H    0.226079
     9  H    0.273838
    10  H    0.275083
    11  H    0.225158
    12  N    0.490164
    13  O   -0.461488
    14  O   -0.468179
    15  C   -0.171852
    16  C   -0.219684
    17  C   -0.173369
    18  C    0.157508
    19  C   -0.175141
    20  C   -0.221788
    21  H    0.236570
    22  H    0.221915
    23  H    0.272313
    24  H    0.271639
    25  H    0.238134
    26  N    0.488170
    27  O   -0.463525
    28  O   -0.462815
 Sum of Mulliken charges =  -0.00000

 Dipole moment (field-independent basis, Debye):
    X=              5.0270    Y=              0.0959    Z=              1.2056  Tot=              5.1705
 Quadrupole moment (field-independent basis, Debye-Ang):
   XX=           -110.4370   YY=           -108.0534   ZZ=            -96.7417
   XY=             30.0279   XZ=              2.2633   YZ=             -3.0966

 Normal termination of Gaussian 16 at Thu May  6 12:52:19 2021.
