 Gaussian 16, Revision A.03,
 Gaussian 16:  EM64L-G16RevA.03 25-Dec-2016

 -------------
 #p 6-31g* mp2
 -------------

 ------------------------------------------------------
 Input file generated by CHIRIPA (05-May-2021 14:57:21)
 ------------------------------------------------------
 Symbolic Z-matrix:
 Charge =  0 Multiplicity = 1

                         Standard orientation:
 ---------------------------------------------------------------------
 Center     Atomic      Atomic             Coordinates (Angstroms)
 Number     Number       Type             X           Y           Z
 ---------------------------------------------------------------------
      1          6           0        2.666146    2.710499    0.049545
      2          6           0        3.461767    2.143099   -0.951238
      3          6           0        3.755288    0.776300   -0.935329
      4          6           0        3.234315    0.002948    0.100916
      5          6           0        2.438600    0.538849    1.112320
      6          6           0        2.157998    1.907978    1.076319
      7          1           0        2.443149    3.773166    0.029382
      8          1           0        3.857760    2.763923   -1.749870
      9          1           0        4.368568    0.311084   -1.697484
     10          1           0        2.058173   -0.105572    1.895528
     11          1           0        1.539829    2.345907    1.854863
     12          7           0        3.538215   -1.445255    0.128393
     13          8           0        3.067148   -2.105006    1.052223
     14          8           0        4.241724   -1.893183   -0.774420
     15          6           0       -1.027092   -1.545172   -0.212400
     16          6           0       -0.998135   -0.148312   -0.145586
     17          6           0       -2.187155    0.584220   -0.080962
     18          6           0       -3.392773   -0.115607   -0.085172
     19          6           0       -3.454451   -1.506709   -0.150904
     20          6           0       -2.252997   -2.218725   -0.214841
     21          1           0       -0.098603   -2.106252   -0.262336
     22          1           0       -0.047541    0.377437   -0.143526
     23          1           0       -2.193704    1.666173   -0.028498
     24          1           0       -4.417430   -2.002783   -0.151225
     25          1           0       -2.278521   -3.303487   -0.266653
     26          7           0       -4.658117    0.649032   -0.017120
     27          8           0       -5.707283    0.008828   -0.022291
     28          8           0       -4.576768    1.874081    0.040101
 ---------------------------------------------------------------------

 SCF Done:  E(RHF) =  -868.338295135     A.U. after   16 cycles
 E2 =    -0.2601564631D+01 EUMP2 =    -0.87093985976652D+03

 The electronic state is 1-A.
 Alpha  occ. eigenvalues --  -20.61964 -20.61939 -20.60774 -20.60759 -15.86990
 Alpha  occ. eigenvalues --  -15.85818 -11.32352 -11.31093 -11.28901 -11.28862
 Alpha  occ. eigenvalues --  -11.28582 -11.27876 -11.27826 -11.27679 -11.27625
 Alpha  occ. eigenvalues --  -11.27247 -11.26573 -11.26499  -1.61028  -1.59846
 Alpha  occ. eigenvalues --   -1.40576  -1.39403  -1.20536  -1.19238  -1.09899
 Alpha  occ. eigenvalues --   -1.08628  -1.05914  -1.04629  -0.96733  -0.95485
 Alpha  occ. eigenvalues --   -0.87278  -0.86026  -0.83547  -0.82326  -0.78610
 Alpha  occ. eigenvalues --   -0.77417  -0.73189  -0.72377  -0.72037  -0.71554
 Alpha  occ. eigenvalues --   -0.71169  -0.70287  -0.66142  -0.65839  -0.64875
 Alpha  occ. eigenvalues --   -0.64661  -0.63208  -0.62026  -0.56335  -0.55107
 Alpha  occ. eigenvalues --   -0.54323  -0.53933  -0.52964  -0.52550  -0.49963
 Alpha  occ. eigenvalues --   -0.49949  -0.48802  -0.48780  -0.45969  -0.44830
 Alpha  occ. eigenvalues --   -0.38503  -0.37549  -0.37138  -0.36229
 Alpha virt. eigenvalues --    0.03878   0.05121   0.10029   0.11414   0.15356
 Alpha virt. eigenvalues --    0.16673   0.20444   0.21789   0.26373   0.27271
 Alpha virt. eigenvalues --    0.27769   0.28206   0.30239   0.31262   0.31949

 Mulliken charges:
               1
     1  C   -0.170605
     2  C   -0.217880
     3  C   -0.170092
     4  C    0.158513
     5  C   -0.185837
     6  C   -0.224682
     7  H    0.231711
     8  H    0.228773
     9  H    0.279117
    10  H    0.279800
    11  H    0.230127
    12  N    0.486555
    13  O   -0.461966
    14  O   -0.455117
    15  C   -0.176314
    16  C   -0.229705
    17  C   -0.175380
    18  C    0.158719
    19  C   -0.171746
    20  C   -0.218612
    21  H    0.235318
    22  H    0.232790
    23  H    0.270263
    24  H    0.275303
    25  H    0.226066
    26  N    0.488186
    27  O   -0.460016
    28  O   -0.463289
 Sum of Mulliken charges =  -0.00000

 Dipole moment (field-independent basis, Debye):
    X=              3.7935    Y=              2.4311    Z=             -0.3827  Tot=              4.5218
 Quadrupole moment (field-independent basis, Debye-Ang):
   XX=           -139.6564   YY=           -100.4861   ZZ=           -102.1966
   XY=             28.8209   XZ=             -2.7240   YZ=              0.4813

 Normal termination of Gaussian 16 at Wed May  5 20:55:09 2021.
