 Gaussian 16, Revision A.03,
 Gaussian 16:  EM64L-G16RevA.03 25-Dec-2016

 -------------
 #p 6-31g* mp2
 -------------

 ------------------------------------------------------
 Input file generated by CHIRIPA (05-May-2021 14:57:22)
 ------------------------------------------------------
 Symbolic Z-matrix:
 Charge =  0 Multiplicity = 1

                         Standard orientation:
 ---------------------------------------------------------------------
 Center     Atomic      Atomic             Coordinates (Angstroms)
 Number     Number       Type             X           Y           Z
 ---------------------------------------------------------------------
      1          6           0       -2.288803    2.494441   -0.350253
      2          6           0       -1.299673    1.596141   -0.764015
      3          6           0       -1.483554    0.218498   -0.612907
      4          6           0       -2.674062   -0.228159   -0.041524
      5          6           0       -3.678276    0.641715    0.380571
      6          6           0       -3.472860    2.015206    0.219715
      7          1           0       -2.137595    3.563015   -0.471424
      8          1           0       -0.379119    1.965471   -1.206985
      9          1           0       -0.734319   -0.499106   -0.924533
     10          1           0       -4.585401    0.243515    0.818724
     11          1           0       -4.242763    2.710514    0.541959
     12          7           0       -2.880128   -1.684410    0.123608
     13          8           0       -3.937855   -2.052558    0.629885
     14          8           0       -1.980013   -2.430098   -0.256366
     15          6           0        2.489979    2.485697    0.393778
     16          6           0        2.670516    1.645739    1.497589
     17          6           0        2.755071    0.260429    1.329321
     18          6           0        2.654613   -0.253303    0.037316
     19          6           0        2.474545    0.557426   -1.082319
     20          6           0        2.392741    1.939822   -0.890389
     21          1           0        2.425362    3.560708    0.533684
     22          1           0        2.746362    2.066885    2.496053
     23          1           0        2.894665   -0.412906    2.166312
     24          1           0        2.402424    0.108235   -2.065399
     25          1           0        2.252516    2.589726   -1.749462
     26          7           0        2.742672   -1.718326   -0.153347
     27          8           0        2.651224   -2.146128   -1.301937
     28          8           0        2.901474   -2.411069    0.849412
 ---------------------------------------------------------------------

 SCF Done:  E(RHF) =  -868.335441775     A.U. after   16 cycles
 E2 =    -0.2603304400D+01 EUMP2 =    -0.87093874617409D+03

 The electronic state is 1-A.
 Alpha  occ. eigenvalues --  -20.61058 -20.61045 -20.60565 -20.60530 -15.86121
 Alpha  occ. eigenvalues --  -15.85604 -11.31861 -11.31140 -11.28515 -11.28393
 Alpha  occ. eigenvalues --  -11.28265 -11.27723 -11.27681 -11.27610 -11.27534
 Alpha  occ. eigenvalues --  -11.27468 -11.26807 -11.26704  -1.60116  -1.59626
 Alpha  occ. eigenvalues --   -1.39662  -1.39172  -1.20075  -1.19325  -1.09393
 Alpha  occ. eigenvalues --   -1.08705  -1.05538  -1.04739  -0.96156  -0.95509
 Alpha  occ. eigenvalues --   -0.86909  -0.86143  -0.82990  -0.82328  -0.77975
 Alpha  occ. eigenvalues --   -0.77345  -0.72325  -0.71816  -0.71452  -0.71140
 Alpha  occ. eigenvalues --   -0.70957  -0.70463  -0.65705  -0.65542  -0.64976
 Alpha  occ. eigenvalues --   -0.64768  -0.62855  -0.62121  -0.55988  -0.55325
 Alpha  occ. eigenvalues --   -0.53895  -0.53602  -0.53042  -0.52748  -0.49111
 Alpha  occ. eigenvalues --   -0.49061  -0.48596  -0.48564  -0.44978  -0.44539
 Alpha  occ. eigenvalues --   -0.38079  -0.37330  -0.37126  -0.36313
 Alpha virt. eigenvalues --    0.04558   0.05180   0.10319   0.11313   0.15899
 Alpha virt. eigenvalues --    0.16632   0.20183   0.21774   0.25881   0.27309
 Alpha virt. eigenvalues --    0.28110   0.28270   0.29701   0.31514   0.31709

 Mulliken charges:
               1
     1  C   -0.174447
     2  C   -0.216115
     3  C   -0.176122
     4  C    0.159214
     5  C   -0.171582
     6  C   -0.218395
     7  H    0.220733
     8  H    0.221400
     9  H    0.277297
    10  H    0.275711
    11  H    0.222198
    12  N    0.487419
    13  O   -0.461646
    14  O   -0.454463
    15  C   -0.169362
    16  C   -0.216438
    17  C   -0.167867
    18  C    0.160549
    19  C   -0.178509
    20  C   -0.230835
    21  H    0.225831
    22  H    0.226745
    23  H    0.280534
    24  H    0.278327
    25  H    0.222543
    26  N    0.488859
    27  O   -0.457684
    28  O   -0.453895
 Sum of Mulliken charges =  -0.00000

 Dipole moment (field-independent basis, Debye):
    X=              0.6923    Y=              9.9876    Z=              0.2906  Tot=             10.0158
 Quadrupole moment (field-independent basis, Debye-Ang):
   XX=           -106.8666   YY=           -110.8567   ZZ=            -99.6165
   XY=             -1.0903   XZ=              2.2607   YZ=             -0.0837

 Normal termination of Gaussian 16 at Fri May  7 00:15:35 2021.
