 Gaussian 16, Revision A.03,
 Gaussian 16:  EM64L-G16RevA.03 25-Dec-2016

 -------------
 #p 6-31g* mp2
 -------------

 ------------------------------------------------------
 Input file generated by CHIRIPA (05-May-2021 14:57:22)
 ------------------------------------------------------
 Symbolic Z-matrix:
 Charge =  0 Multiplicity = 1

                         Standard orientation:
 ---------------------------------------------------------------------
 Center     Atomic      Atomic             Coordinates (Angstroms)
 Number     Number       Type             X           Y           Z
 ---------------------------------------------------------------------
      1          6           0       -1.213478   -1.779149    1.187499
      2          6           0       -1.591267   -0.622221    1.876928
      3          6           0       -2.551954    0.241229    1.342060
      4          6           0       -3.116958   -0.084444    0.109989
      5          6           0       -2.761523   -1.229601   -0.601045
      6          6           0       -1.798780   -2.078619   -0.047111
      7          1           0       -0.466395   -2.444292    1.610402
      8          1           0       -1.138393   -0.387123    2.835927
      9          1           0       -2.862925    1.143518    1.854494
     10          1           0       -3.230656   -1.437350   -1.555075
     11          1           0       -1.507323   -2.976410   -0.584763
     12          7           0       -4.135083    0.822012   -0.466344
     13          8           0       -4.617922    0.512630   -1.553443
     14          8           0       -4.430972    1.824711    0.179939
     15          6           0        2.986141   -2.275665   -0.463719
     16          6           0        4.153379   -1.591219   -0.109302
     17          6           0        4.144556   -0.200857    0.036864
     18          6           0        2.945584    0.476448   -0.179961
     19          6           0        1.766224   -0.177047   -0.534001
     20          6           0        1.798383   -1.567643   -0.674565
     21          1           0        3.002060   -3.355822   -0.575088
     22          1           0        5.077249   -2.138478    0.055069
     23          1           0        5.033710    0.354107    0.310426
     24          1           0        0.860448    0.395887   -0.691270
     25          1           0        0.890373   -2.096562   -0.949895
     26          7           0        2.923891    1.948485   -0.028187
     27          8           0        1.854777    2.522060   -0.224769
     28          8           0        3.976412    2.500820    0.284481
 ---------------------------------------------------------------------

 SCF Done:  E(RHF) =  -868.335880450     A.U. after   16 cycles
 E2 =    -0.2602796262D+01 EUMP2 =    -0.87093867671225D+03

 The electronic state is 1-A.
 Alpha  occ. eigenvalues --  -20.61094 -20.61088 -20.61055 -20.61035 -15.86150
 Alpha  occ. eigenvalues --  -15.86114 -11.31697 -11.31615 -11.28401 -11.28272
 Alpha  occ. eigenvalues --  -11.28200 -11.28164 -11.28144 -11.28008 -11.27474
 Alpha  occ. eigenvalues --  -11.27273 -11.27244 -11.27209  -1.60170  -1.60119
 Alpha  occ. eigenvalues --   -1.39719  -1.39666  -1.19953  -1.19806  -1.09317
 Alpha  occ. eigenvalues --   -1.09188  -1.05384  -1.05207  -0.96075  -0.96009
 Alpha  occ. eigenvalues --   -0.86835  -0.86565  -0.82903  -0.82823  -0.77941
 Alpha  occ. eigenvalues --   -0.77817  -0.72363  -0.72328  -0.71501  -0.71447
 Alpha  occ. eigenvalues --   -0.71028  -0.70928  -0.65692  -0.65502  -0.65459
 Alpha  occ. eigenvalues --   -0.65041  -0.62764  -0.62490  -0.55872  -0.55771
 Alpha  occ. eigenvalues --   -0.53885  -0.53513  -0.53398  -0.53189  -0.49138
 Alpha  occ. eigenvalues --   -0.49111  -0.49101  -0.49064  -0.45101  -0.45023
 Alpha  occ. eigenvalues --   -0.38192  -0.37815  -0.36985  -0.36552
 Alpha virt. eigenvalues --    0.04409   0.04900   0.10266   0.10965   0.15686
 Alpha virt. eigenvalues --    0.16495   0.19835   0.21741   0.25584   0.27503
 Alpha virt. eigenvalues --    0.27728   0.28386   0.29762   0.31329   0.31787

 Mulliken charges:
               1
     1  C   -0.167632
     2  C   -0.219719
     3  C   -0.166689
     4  C    0.157375
     5  C   -0.171411
     6  C   -0.232270
     7  H    0.226676
     8  H    0.228509
     9  H    0.281367
    10  H    0.277592
    11  H    0.218542
    12  N    0.488501
    13  O   -0.459942
    14  O   -0.455885
    15  C   -0.174667
    16  C   -0.218632
    17  C   -0.171083
    18  C    0.157356
    19  C   -0.171898
    20  C   -0.222394
    21  H    0.223726
    22  H    0.224268
    23  H    0.276849
    24  H    0.280275
    25  H    0.221247
    26  N    0.487667
    27  O   -0.458036
    28  O   -0.459692
 Sum of Mulliken charges =  -0.00000

 Dipole moment (field-independent basis, Debye):
    X=              3.4852    Y=             -8.0859    Z=              1.6406  Tot=              8.9566
 Quadrupole moment (field-independent basis, Debye-Ang):
   XX=           -122.1116   YY=           -108.8929   ZZ=           -101.5585
   XY=             -5.5961   XZ=             -6.0904   YZ=              2.8334

 Normal termination of Gaussian 16 at Thu May  6 11:16:49 2021.
