 Gaussian 16, Revision A.03,
 Gaussian 16:  EM64L-G16RevA.03 25-Dec-2016

 -------------
 #p 6-31g* mp2
 -------------

 ------------------------------------------------------
 Input file generated by CHIRIPA (05-May-2021 14:55:21)
 ------------------------------------------------------
 Symbolic Z-matrix:
 Charge =  0 Multiplicity = 1

                         Standard orientation:
 ---------------------------------------------------------------------
 Center     Atomic      Atomic             Coordinates (Angstroms)
 Number     Number       Type             X           Y           Z
 ---------------------------------------------------------------------
      1          6           0       -3.714793   -1.263973   -1.711295
      2          6           0       -3.770449   -1.808927   -0.424264
      3          6           0       -3.123899   -1.177772    0.642584
      4          6           0       -2.427628    0.002215    0.385432
      5          6           0       -2.353773    0.569929   -0.885606
      6          6           0       -3.007879   -0.078375   -1.937459
      7          1           0       -4.219983   -1.760930   -2.534224
      8          1           0       -4.318703   -2.729562   -0.245678
      9          1           0       -3.150747   -1.577807    1.648899
     10          1           0       -1.799406    1.488886   -1.032618
     11          1           0       -2.962955    0.347134   -2.935943
     12          7           0       -1.739155    0.679468    1.506919
     13          8           0       -1.132358    1.718006    1.254187
     14          8           0       -1.819363    0.158936    2.617438
     15          6           0        3.282692   -0.553797    0.061229
     16          6           0        4.565861   -1.316994   -0.268913
     17          6           0        4.611279   -2.703293    0.374440
     18          1           0        3.191664   -0.456668    1.151745
     19          1           0        2.417581   -1.142862   -0.273407
     20          1           0        5.428348   -0.726033    0.064999
     21          1           0        4.653942   -1.412150   -1.358777
     22          1           0        3.769587   -3.314343    0.032717
     23          1           0        4.548392   -2.624327    1.464583
     24          1           0        5.537024   -3.231333    0.125382
     25          6           0        3.222515    0.833873   -0.574758
     26          6           0        1.939346    1.597069   -0.244615
     27          6           0        1.893928    2.983369   -0.887969
     28          1           0        4.087626    1.422937   -0.240123
     29          1           0        3.313543    0.736743   -1.665273
     30          1           0        1.851264    1.692227    0.845249
     31          1           0        1.076859    1.006108   -0.578528
     32          1           0        1.956814    2.904402   -1.978112
     33          1           0        2.735619    3.594418   -0.546245
     34          1           0        0.968183    3.511409   -0.638911
 ---------------------------------------------------------------------

 SCF Done:  E(RHF) =  -669.535825968     A.U. after   15 cycles
 E2 =    -0.2092291833D+01 EUMP2 =    -0.67162811780047D+03

 The electronic state is 1-A.
 Alpha  occ. eigenvalues --  -20.60905 -20.60875 -15.85914 -11.31272 -11.27830
 Alpha  occ. eigenvalues --  -11.27826 -11.27572 -11.26848 -11.26838 -11.21233
 Alpha  occ. eigenvalues --  -11.20888 -11.20770 -11.20763 -11.20665 -11.20365
 Alpha  occ. eigenvalues --   -1.59948  -1.39504  -1.19439  -1.08837  -1.07864
 Alpha  occ. eigenvalues --   -1.04838  -1.02949  -0.95681  -0.95433  -0.86463
 Alpha  occ. eigenvalues --   -0.86236  -0.82512  -0.79024  -0.77730  -0.77470
 Alpha  occ. eigenvalues --   -0.72144  -0.71254  -0.70544  -0.65094  -0.64847
 Alpha  occ. eigenvalues --   -0.64503  -0.62189  -0.60361  -0.58793  -0.57003
 Alpha  occ. eigenvalues --   -0.55340  -0.54758  -0.53167  -0.52927  -0.52129
 Alpha  occ. eigenvalues --   -0.51857  -0.49418  -0.48914  -0.48896  -0.47371
 Alpha  occ. eigenvalues --   -0.46056  -0.45426  -0.45100  -0.44601  -0.43200
 Alpha  occ. eigenvalues --   -0.37415  -0.36436
 Alpha virt. eigenvalues --    0.04949   0.11131   0.16433   0.21034   0.23275
 Alpha virt. eigenvalues --    0.24306   0.26830   0.27285   0.27635   0.28147
 Alpha virt. eigenvalues --    0.29065   0.30708   0.31643   0.31872   0.32358

 Mulliken charges:
               1
     1  C   -0.170700
     2  C   -0.218443
     3  C   -0.170875
     4  C    0.158586
     5  C   -0.172169
     6  C   -0.219028
     7  H    0.225915
     8  H    0.223791
     9  H    0.275837
    10  H    0.277584
    11  H    0.223989
    12  N    0.489195
    13  O   -0.458926
    14  O   -0.459668
    15  C   -0.297765
    16  C   -0.298955
    17  C   -0.475302
    18  H    0.153722
    19  H    0.145847
    20  H    0.151937
    21  H    0.149548
    22  H    0.153222
    23  H    0.156524
    24  H    0.158601
    25  C   -0.299112
    26  C   -0.294162
    27  C   -0.479823
    28  H    0.148393
    29  H    0.144071
    30  H    0.167847
    31  H    0.142750
    32  H    0.146159
    33  H    0.154281
    34  H    0.167128
 Sum of Mulliken charges =  -0.00000

 Dipole moment (field-independent basis, Debye):
    X=             -2.6018    Y=             -2.3284    Z=             -3.7589  Tot=              5.1303
 Quadrupole moment (field-independent basis, Debye-Ang):
   XX=            -83.4451   YY=            -93.5460   ZZ=            -95.8304
   XY=              7.7749   XZ=              8.4988   YZ=             -2.4422

 Normal termination of Gaussian 16 at Thu May  6 01:25:55 2021.
