 Gaussian 16, Revision A.03,
 Gaussian 16:  EM64L-G16RevA.03 25-Dec-2016

 -------------
 #p 6-31g* mp2
 -------------

 ------------------------------------------------------
 Input file generated by CHIRIPA (05-May-2021 14:53:18)
 ------------------------------------------------------
 Symbolic Z-matrix:
 Charge =  0 Multiplicity = 1

                         Standard orientation:
 ---------------------------------------------------------------------
 Center     Atomic      Atomic             Coordinates (Angstroms)
 Number     Number       Type             X           Y           Z
 ---------------------------------------------------------------------
      1          6           0        3.534662    0.998286   -0.560816
      2          6           0        2.290194    1.616574    0.077153
      3          6           0        1.938990    2.982034   -0.514427
      4          1           0        4.383456    1.684021   -0.433293
      5          1           0        3.372650    0.899330   -1.643108
      6          1           0        2.453974    1.713058    1.158117
      7          1           0        1.444308    0.929202   -0.051737
      8          1           0        1.749032    2.898814   -1.589412
      9          1           0        2.764435    3.687124   -0.372684
     10          1           0        1.046266    3.405790   -0.043966
     11          6           0        3.898506   -0.366963    0.020078
     12          6           0        5.142974   -0.985251   -0.617891
     13          6           0        5.494178   -2.350711   -0.026311
     14          1           0        4.060519   -0.268007    1.102370
     15          1           0        3.049712   -1.052698   -0.107445
     16          1           0        5.988861   -0.297879   -0.489002
     17          1           0        4.979195   -1.081735   -1.698855
     18          1           0        4.668733   -3.055801   -0.168054
     19          1           0        5.684136   -2.267491    1.048674
     20          1           0        6.386902   -2.774467   -0.496773
     21          6           0       -0.752179    0.133270    1.473399
     22          6           0       -1.133954   -1.163839    1.115242
     23          6           0       -2.323883   -1.386134    0.415812
     24          6           0       -3.111571   -0.283336    0.089204
     25          6           0       -2.758362    1.020914    0.431932
     26          6           0       -1.564170    1.219592    1.131204
     27          1           0        0.173842    0.296781    2.016672
     28          1           0       -0.505323   -2.009384    1.379670
     29          1           0       -2.643407   -2.379805    0.126086
     30          1           0       -3.405787    1.843848    0.154373
     31          1           0       -1.270191    2.228045    1.408049
     32          7           0       -4.373552   -0.506168   -0.651169
     33          8           0       -5.049967    0.482240   -0.927121
     34          8           0       -4.662381   -1.665013   -0.941501
 ---------------------------------------------------------------------

 SCF Done:  E(RHF) =  -669.534705855     A.U. after   15 cycles
 E2 =    -0.2092801967D+01 EUMP2 =    -0.67162750782266D+03

 The electronic state is 1-A.
 Alpha  occ. eigenvalues --  -20.60763 -20.60758 -15.85819 -11.31180 -11.27776
 Alpha  occ. eigenvalues --  -11.27768 -11.27456 -11.26763 -11.26752 -11.22434
 Alpha  occ. eigenvalues --  -11.22213 -11.22148 -11.22081 -11.21885 -11.21630
 Alpha  occ. eigenvalues --   -1.59840  -1.39393  -1.19371  -1.09180  -1.08756
 Alpha  occ. eigenvalues --   -1.04773  -1.04253  -0.96691  -0.95594  -0.87706
 Alpha  occ. eigenvalues --   -0.86166  -0.82435  -0.80346  -0.79013  -0.77469
 Alpha  occ. eigenvalues --   -0.72036  -0.71164  -0.70466  -0.65795  -0.65016
 Alpha  occ. eigenvalues --   -0.64777  -0.62126  -0.61643  -0.60084  -0.58321
 Alpha  occ. eigenvalues --   -0.55960  -0.55279  -0.53414  -0.53143  -0.53086
 Alpha  occ. eigenvalues --   -0.52832  -0.50614  -0.48812  -0.48791  -0.48610
 Alpha  occ. eigenvalues --   -0.47359  -0.46525  -0.46452  -0.44800  -0.44511
 Alpha  occ. eigenvalues --   -0.37248  -0.36385
 Alpha virt. eigenvalues --    0.05049   0.11186   0.16486   0.20092   0.22454
 Alpha virt. eigenvalues --    0.23625   0.25363   0.25601   0.26546   0.28239
 Alpha virt. eigenvalues --    0.28975   0.29710   0.30951   0.31630   0.32104

 Mulliken charges:
               1
     1  C   -0.297262
     2  C   -0.310865
     3  C   -0.474173
     4  H    0.151536
     5  H    0.153298
     6  H    0.143625
     7  H    0.160386
     8  H    0.160578
     9  H    0.157888
    10  H    0.153428
    11  C   -0.299081
    12  C   -0.300025
    13  C   -0.476110
    14  H    0.146906
    15  H    0.146717
    16  H    0.153679
    17  H    0.154336
    18  H    0.154426
    19  H    0.154754
    20  H    0.162888
    21  C   -0.170933
    22  C   -0.221627
    23  C   -0.170410
    24  C    0.158007
    25  C   -0.170696
    26  C   -0.219831
    27  H    0.231903
    28  H    0.223818
    29  H    0.275609
    30  H    0.275735
    31  H    0.224423
    32  N    0.488134
    33  O   -0.460464
    34  O   -0.460595
 Sum of Mulliken charges =  -0.00000

 Dipole moment (field-independent basis, Debye):
    X=              4.5583    Y=              0.7771    Z=              2.5172  Tot=              5.2648
 Quadrupole moment (field-independent basis, Debye-Ang):
   XX=           -122.4126   YY=            -91.1621   ZZ=            -94.6390
   XY=             -4.1475   XZ=             -7.8258   YZ=             -0.1208

 Normal termination of Gaussian 16 at Thu May  6 07:37:52 2021.
