 Gaussian 16, Revision A.03,
 Gaussian 16:  EM64L-G16RevA.03 25-Dec-2016

 -------------
 #p 6-31g* mp2
 -------------

 ------------------------------------------------------
 Input file generated by CHIRIPA (05-May-2021 14:55:20)
 ------------------------------------------------------
 Symbolic Z-matrix:
 Charge =  0 Multiplicity = 1

                         Standard orientation:
 ---------------------------------------------------------------------
 Center     Atomic      Atomic             Coordinates (Angstroms)
 Number     Number       Type             X           Y           Z
 ---------------------------------------------------------------------
      1          6           0       -2.706992    1.959255    1.168968
      2          6           0       -1.846654    1.879363    0.068987
      3          6           0       -1.661419    0.666310   -0.600892
      4          6           0       -2.355494   -0.452085   -0.141825
      5          6           0       -3.219538   -0.404461    0.951084
      6          6           0       -3.389485    0.819098    1.605735
      7          1           0       -2.844949    2.905665    1.683431
      8          1           0       -1.315318    2.763199   -0.272423
      9          1           0       -1.001434    0.576246   -1.455133
     10          1           0       -3.735468   -1.302638    1.268122
     11          1           0       -4.058270    0.878186    2.459715
     12          7           0       -2.167486   -1.741851   -0.842935
     13          8           0       -2.790561   -2.712701   -0.418828
     14          8           0       -1.400612   -1.757499   -1.803297
     15          6           0        3.103080    1.064439   -0.048480
     16          6           0        1.884791    1.678564   -0.738848
     17          6           0        1.996419    3.195364   -0.895849
     18          1           0        3.229471    1.528425    0.939289
     19          1           0        4.005180    1.308780   -0.626328
     20          1           0        0.985094    1.431967   -0.160618
     21          1           0        1.761172    1.212925   -1.725011
     22          1           0        2.876996    3.457252   -1.491331
     23          1           0        2.096509    3.677538    0.081950
     24          1           0        1.114913    3.613602   -1.391716
     25          6           0        3.006308   -0.451277    0.115740
     26          6           0        4.224597   -1.065403    0.806107
     27          6           0        4.112969   -2.582204    0.963109
     28          1           0        2.104208   -0.695620    0.693587
     29          1           0        2.879917   -0.915264   -0.872029
     30          1           0        4.348215   -0.599764    1.792270
     31          1           0        5.124294   -0.818806    0.227877
     32          1           0        4.012880   -3.064378   -0.014690
     33          1           0        3.232391   -2.844092    1.558590
     34          1           0        4.994475   -3.000442    1.458976
 ---------------------------------------------------------------------

 SCF Done:  E(RHF) =  -669.534292179     A.U. after   15 cycles
 E2 =    -0.2093473438D+01 EUMP2 =    -0.67162776561696D+03

 The electronic state is 1-A.
 Alpha  occ. eigenvalues --  -20.60761 -20.60755 -15.85814 -11.31176 -11.27764
 Alpha  occ. eigenvalues --  -11.27712 -11.27504 -11.26774 -11.26734 -11.22013
 Alpha  occ. eigenvalues --  -11.21775 -11.21602 -11.21522 -11.21324 -11.20857
 Alpha  occ. eigenvalues --   -1.59836  -1.39388  -1.19369  -1.08759  -1.08591
 Alpha  occ. eigenvalues --   -1.04787  -1.03732  -0.96180  -0.95591  -0.87195
 Alpha  occ. eigenvalues --   -0.86159  -0.82441  -0.79861  -0.78371  -0.77435
 Alpha  occ. eigenvalues --   -0.72032  -0.71160  -0.70468  -0.65268  -0.64993
 Alpha  occ. eigenvalues --   -0.64760  -0.62196  -0.61102  -0.59576  -0.57772
 Alpha  occ. eigenvalues --   -0.55453  -0.55255  -0.53167  -0.52948  -0.52865
 Alpha  occ. eigenvalues --   -0.52514  -0.50099  -0.48792  -0.48789  -0.48118
 Alpha  occ. eigenvalues --   -0.46860  -0.45890  -0.45781  -0.44788  -0.43964
 Alpha  occ. eigenvalues --   -0.37356  -0.36272
 Alpha virt. eigenvalues --    0.05038   0.11240   0.16408   0.20099   0.22954
 Alpha virt. eigenvalues --    0.23908   0.25955   0.26362   0.27077   0.28375
 Alpha virt. eigenvalues --    0.29309   0.30072   0.31327   0.31709   0.32617

 Mulliken charges:
               1
     1  C   -0.171937
     2  C   -0.222664
     3  C   -0.171435
     4  C    0.156784
     5  C   -0.171236
     6  C   -0.218888
     7  H    0.225894
     8  H    0.228940
     9  H    0.281031
    10  H    0.275575
    11  H    0.223369
    12  N    0.488211
    13  O   -0.460647
    14  O   -0.460226
    15  C   -0.296797
    16  C   -0.313476
    17  C   -0.477319
    18  H    0.148648
    19  H    0.150495
    20  H    0.156509
    21  H    0.154734
    22  H    0.160996
    23  H    0.155579
    24  H    0.151052
    25  C   -0.299720
    26  C   -0.300052
    27  C   -0.475947
    28  H    0.150241
    29  H    0.156018
    30  H    0.150126
    31  H    0.151530
    32  H    0.158741
    33  H    0.156496
    34  H    0.159376
 Sum of Mulliken charges =  -0.00000

 Dipole moment (field-independent basis, Debye):
    X=             -0.5984    Y=              4.4358    Z=              2.4577  Tot=              5.1064
 Quadrupole moment (field-independent basis, Debye-Ang):
   XX=            -89.6815   YY=            -99.7973   ZZ=            -93.1503
   XY=             -9.0558   XZ=             -8.7528   YZ=             -2.8935

 Normal termination of Gaussian 16 at Thu May  6 04:32:24 2021.
