 Gaussian 16, Revision A.03,
 Gaussian 16:  EM64L-G16RevA.03 25-Dec-2016

 -------------
 #p 6-31g* mp2
 -------------

 ------------------------------------------------------
 Input file generated by CHIRIPA (05-May-2021 14:51:11)
 ------------------------------------------------------
 Symbolic Z-matrix:
 Charge =  0 Multiplicity = 1

                         Standard orientation:
 ---------------------------------------------------------------------
 Center     Atomic      Atomic             Coordinates (Angstroms)
 Number     Number       Type             X           Y           Z
 ---------------------------------------------------------------------
      1          6           0       -2.001126   -0.600270    0.397361
      2          6           0       -2.135522   -1.700106    1.451062
      3          6           0       -0.830958   -2.464847    1.677063
      4          1           0       -1.667602   -1.047011   -0.549280
      5          1           0       -1.213285    0.100286    0.707076
      6          1           0       -2.923826   -2.397612    1.140130
      7          1           0       -2.468950   -1.250722    2.395253
      8          1           0       -0.039472   -1.786175    2.011063
      9          1           0       -0.496932   -2.939581    0.748809
     10          1           0       -0.949658   -3.246274    2.434124
     11          6           0       -3.297008    0.173166    0.160269
     12          6           0       -3.162613    1.273001   -0.893432
     13          6           0       -4.467177    2.037743   -1.119433
     14          1           0       -4.084849   -0.527390   -0.149445
     15          1           0       -3.630533    0.619906    1.106910
     16          1           0       -2.829185    0.823618   -1.837623
     17          1           0       -2.374309    1.970507   -0.582500
     18          1           0       -4.801202    2.512477   -0.191178
     19          1           0       -5.258663    1.359071   -1.453432
     20          1           0       -4.348477    2.819170   -1.876494
     21          6           0        2.541045   -0.216495   -0.900766
     22          6           0        2.365083   -1.702679   -0.587271
     23          6           0        2.149925   -2.550009   -1.841677
     24          1           0        1.655789    0.144931   -1.441724
     25          1           0        3.395425   -0.090878   -1.580216
     26          1           0        1.512143   -1.825323    0.092485
     27          1           0        3.250779   -2.060563   -0.046829
     28          1           0        3.003965   -2.457276   -2.520364
     29          1           0        1.255451   -2.220698   -2.380260
     30          1           0        2.026446   -3.609024   -1.594492
     31          6           0        2.757089    0.643599    0.343136
     32          6           0        2.933052    2.129783    0.029641
     33          6           0        3.148209    2.977114    1.284046
     34          1           0        1.902710    0.517982    1.022585
     35          1           0        3.642347    0.282173    0.884094
     36          1           0        2.047357    2.487668   -0.510801
     37          1           0        3.785992    2.252427   -0.650115
     38          1           0        4.042683    2.647803    1.822629
     39          1           0        2.294170    2.884380    1.962734
     40          1           0        3.271690    4.036128    1.036861
 ---------------------------------------------------------------------

 SCF Done:  E(RHF) =  -470.732645912     A.U. after   11 cycles
 E2 =    -0.1584135606D+01 EUMP2 =    -0.47231678151776D+03

 The electronic state is 1-A.
 Alpha  occ. eigenvalues --  -11.21692 -11.21673 -11.21582 -11.21507 -11.21439
 Alpha  occ. eigenvalues --  -11.21381 -11.21356 -11.21261 -11.21148 -11.21122
 Alpha  occ. eigenvalues --  -11.21070 -11.21008  -1.08527  -1.08356  -1.03627
 Alpha  occ. eigenvalues --   -1.03454  -0.96074  -0.95925  -0.87096  -0.86938
 Alpha  occ. eigenvalues --   -0.79750  -0.79479  -0.78370  -0.78136  -0.65154
 Alpha  occ. eigenvalues --   -0.65000  -0.61037  -0.60879  -0.59441  -0.59287
 Alpha  occ. eigenvalues --   -0.57727  -0.57495  -0.55359  -0.55216  -0.52751
 Alpha  occ. eigenvalues --   -0.52649  -0.52526  -0.52332  -0.50006  -0.49874
 Alpha  occ. eigenvalues --   -0.48225  -0.47725  -0.46727  -0.46503  -0.46071
 Alpha  occ. eigenvalues --   -0.45795  -0.45673  -0.45290  -0.43868  -0.43716
 Alpha virt. eigenvalues --    0.20070   0.23059   0.23313   0.24212   0.25679
 Alpha virt. eigenvalues --    0.26328   0.26783   0.27918   0.28613   0.29897
 Alpha virt. eigenvalues --    0.31043   0.31312   0.31610   0.31818   0.31993

 Mulliken charges:
               1
     1  C   -0.300794
     2  C   -0.299526
     3  C   -0.481476
     4  H    0.150037
     5  H    0.150235
     6  H    0.152432
     7  H    0.152245
     8  H    0.157706
     9  H    0.158988
    10  H    0.161470
    11  C   -0.298254
    12  C   -0.299725
    13  C   -0.475767
    14  H    0.150011
    15  H    0.149989
    16  H    0.151925
    17  H    0.151700
    18  H    0.155348
    19  H    0.155377
    20  H    0.160517
    21  C   -0.297566
    22  C   -0.310384
    23  C   -0.475950
    24  H    0.149999
    25  H    0.148758
    26  H    0.165612
    27  H    0.150608
    28  H    0.155039
    29  H    0.153997
    30  H    0.159494
    31  C   -0.300224
    32  C   -0.299648
    33  C   -0.475584
    34  H    0.149703
    35  H    0.149672
    36  H    0.151902
    37  H    0.152163
    38  H    0.155259
    39  H    0.154485
    40  H    0.160227
 Sum of Mulliken charges =  -0.00000

 Dipole moment (field-independent basis, Debye):
    X=             -0.0691    Y=             -0.0237    Z=              0.0366  Tot=              0.0818
 Quadrupole moment (field-independent basis, Debye-Ang):
   XX=            -84.4988   YY=            -85.2665   ZZ=            -85.0134
   XY=              0.5251   XZ=             -0.2144   YZ=             -0.0406

 Normal termination of Gaussian 16 at Thu May  6 05:27:04 2021.
