 Gaussian 16, Revision A.03,
 Gaussian 16:  EM64L-G16RevA.03 25-Dec-2016

 -------------
 #p 6-31g* mp2
 -------------

 ------------------------------------------------------
 Input file generated by CHIRIPA (05-May-2021 14:55:22)
 ------------------------------------------------------
 Symbolic Z-matrix:
 Charge =  0 Multiplicity = 1

                         Standard orientation:
 ---------------------------------------------------------------------
 Center     Atomic      Atomic             Coordinates (Angstroms)
 Number     Number       Type             X           Y           Z
 ---------------------------------------------------------------------
      1          6           0       -3.167946    2.445394    0.391232
      2          6           0       -1.980728    2.194516   -0.304538
      3          6           0       -1.665540    0.899704   -0.727227
      4          6           0       -2.564398   -0.125204   -0.435836
      5          6           0       -3.755105    0.092917    0.255489
      6          6           0       -4.049790    1.395645    0.668536
      7          1           0       -3.404828    3.454310    0.715842
      8          1           0       -1.294003    3.007824   -0.521293
      9          1           0       -0.753365    0.677391   -1.267535
     10          1           0       -4.419927   -0.738280    0.456839
     11          1           0       -4.972525    1.587536    1.208705
     12          7           0       -2.241575   -1.500154   -0.878215
     13          8           0       -3.050135   -2.385834   -0.609069
     14          8           0       -1.186099   -1.666125   -1.485720
     15          6           0        2.607846   -0.074057    0.634086
     16          6           0        2.137538   -1.116936    1.648579
     17          6           0        0.649558   -0.992583    1.977587
     18          1           0        2.400573    0.930506    1.027578
     19          1           0        2.017841   -0.176759   -0.287185
     20          1           0        2.729194   -1.013205    2.567164
     21          1           0        2.346130   -2.119131    1.252710
     22          1           0        0.043555   -1.117616    1.074410
     23          1           0        0.428796   -0.005407    2.396333
     24          1           0        0.334684   -1.747648    2.704629
     25          6           0        4.093217   -0.185537    0.295007
     26          6           0        4.563526    0.857343   -0.719486
     27          6           0        6.051505    0.732988   -1.048494
     28          1           0        4.683223   -0.082835    1.216278
     29          1           0        4.300491   -1.190099   -0.098485
     30          1           0        4.354934    1.859537   -0.323617
     31          1           0        3.971869    0.753611   -1.638071
     32          1           0        6.272268   -0.254187   -1.467240
     33          1           0        6.657509    0.858021   -0.145317
     34          1           0        6.366380    1.488054   -1.775536
 ---------------------------------------------------------------------

 SCF Done:  E(RHF) =  -669.535939308     A.U. after   15 cycles
 E2 =    -0.2092689956D+01 EUMP2 =    -0.67162862926319D+03

 The electronic state is 1-A.
 Alpha  occ. eigenvalues --  -20.60916 -20.60910 -15.85923 -11.31199 -11.27775
 Alpha  occ. eigenvalues --  -11.27768 -11.27513 -11.26774 -11.26763 -11.21565
 Alpha  occ. eigenvalues --  -11.21308 -11.21261 -11.21207 -11.21015 -11.20706
 Alpha  occ. eigenvalues --   -1.59968  -1.39527  -1.19378  -1.08794  -1.08271
 Alpha  occ. eigenvalues --   -1.04770  -1.03345  -0.95803  -0.95640  -0.86826
 Alpha  occ. eigenvalues --   -0.86176  -0.82476  -0.79431  -0.78114  -0.77527
 Alpha  occ. eigenvalues --   -0.72158  -0.71296  -0.70496  -0.65043  -0.64894
 Alpha  occ. eigenvalues --   -0.64765  -0.62124  -0.60723  -0.59176  -0.57426
 Alpha  occ. eigenvalues --   -0.55286  -0.55081  -0.53138  -0.52867  -0.52489
 Alpha  occ. eigenvalues --   -0.52208  -0.49753  -0.48927  -0.48907  -0.47750
 Alpha  occ. eigenvalues --   -0.46474  -0.45669  -0.45578  -0.44808  -0.43614
 Alpha  occ. eigenvalues --   -0.37341  -0.36350
 Alpha virt. eigenvalues --    0.04975   0.11231   0.16471   0.20958   0.23012
 Alpha virt. eigenvalues --    0.24301   0.25718   0.27106   0.27698   0.28067
 Alpha virt. eigenvalues --    0.28968   0.30607   0.31608   0.31955   0.32138

 Mulliken charges:
               1
     1  C   -0.170451
     2  C   -0.219050
     3  C   -0.171203
     4  C    0.157627
     5  C   -0.170279
     6  C   -0.218719
     7  H    0.225643
     8  H    0.223866
     9  H    0.277065
    10  H    0.275560
    11  H    0.223454
    12  N    0.489312
    13  O   -0.457649
    14  O   -0.460298
    15  C   -0.301314
    16  C   -0.297797
    17  C   -0.481897
    18  H    0.143423
    19  H    0.153305
    20  H    0.149514
    21  H    0.157910
    22  H    0.161103
    23  H    0.149391
    24  H    0.161301
    25  C   -0.298083
    26  C   -0.299686
    27  C   -0.475604
    28  H    0.148875
    29  H    0.153248
    30  H    0.148469
    31  H    0.151884
    32  H    0.156957
    33  H    0.154897
    34  H    0.159229
 Sum of Mulliken charges =  -0.00000

 Dipole moment (field-independent basis, Debye):
    X=             -1.2177    Y=              4.7398    Z=              1.5049  Tot=              5.1199
 Quadrupole moment (field-independent basis, Debye-Ang):
   XX=            -86.4136   YY=            -95.4263   ZZ=            -95.7709
   XY=            -10.9960   XZ=             -5.1593   YZ=             -2.5553

 Normal termination of Gaussian 16 at Thu May  6 03:03:39 2021.
