 Gaussian 16, Revision A.03,
 Gaussian 16:  EM64L-G16RevA.03 25-Dec-2016

 -------------
 #p 6-31g* mp2
 -------------

 ------------------------------------------------------
 Input file generated by CHIRIPA (05-May-2021 14:53:17)
 ------------------------------------------------------
 Symbolic Z-matrix:
 Charge =  0 Multiplicity = 1

                         Standard orientation:
 ---------------------------------------------------------------------
 Center     Atomic      Atomic             Coordinates (Angstroms)
 Number     Number       Type             X           Y           Z
 ---------------------------------------------------------------------
      1          6           0       -3.718621    0.874001   -0.640519
      2          6           0       -2.618097    1.808672   -0.137307
      3          6           0       -2.491667    3.079508   -0.978013
      4          1           0       -3.512924    0.605011   -1.685640
      5          1           0       -4.676431    1.412510   -0.639066
      6          1           0       -1.662884    1.268133   -0.138399
      7          1           0       -2.826335    2.075316    0.906797
      8          1           0       -3.430176    3.643154   -0.967752
      9          1           0       -2.260114    2.831385   -2.018887
     10          1           0       -1.699144    3.733277   -0.600715
     11          6           0       -3.857232   -0.400839    0.189720
     12          6           0       -4.957756   -1.335511   -0.313491
     13          6           0       -5.084185   -2.606346    0.527214
     14          1           0       -2.899421   -0.939349    0.188267
     15          1           0       -4.062929   -0.131849    1.234841
     16          1           0       -4.749517   -1.602154   -1.357596
     17          1           0       -5.912969   -0.794971   -0.312399
     18          1           0       -5.315738   -2.358223    1.568088
     19          1           0       -4.145676   -3.169993    0.516953
     20          1           0       -5.876708   -3.260115    0.149916
     21          6           0        5.195483   -0.744627   -0.849631
     22          6           0        5.083095    0.326872    0.042434
     23          6           0        3.849103    0.646127    0.616792
     24          6           0        2.743133   -0.130710    0.275256
     25          6           0        2.823013   -1.204409   -0.610225
     26          6           0        4.067073   -1.505506   -1.172545
     27          1           0        6.157989   -0.985579   -1.291131
     28          1           0        5.957742    0.919516    0.295044
     29          1           0        3.733775    1.470229    1.310314
     30          1           0        1.933293   -1.776910   -0.842735
     31          1           0        4.151387   -2.338214   -1.865028
     32          7           0        1.431432    0.197660    0.876931
     33          8           0        0.472122   -0.502164    0.559739
     34          8           0        1.387466    1.148641    1.654323
 ---------------------------------------------------------------------

 SCF Done:  E(RHF) =  -669.536492573     A.U. after   15 cycles
 E2 =    -0.2091420157D+01 EUMP2 =    -0.67162791272955D+03

 The electronic state is 1-A.
 Alpha  occ. eigenvalues --  -20.61057 -20.61049 -15.86073 -11.31363 -11.27922
 Alpha  occ. eigenvalues --  -11.27915 -11.27650 -11.26918 -11.26908 -11.20652
 Alpha  occ. eigenvalues --  -11.20264 -11.20154 -11.20060 -11.19975 -11.19905
 Alpha  occ. eigenvalues --   -1.60102  -1.39660  -1.19525  -1.08935  -1.07195
 Alpha  occ. eigenvalues --   -1.04916  -1.02372  -0.95781  -0.94870  -0.86318
 Alpha  occ. eigenvalues --   -0.85894  -0.82618  -0.78419  -0.77676  -0.76952
 Alpha  occ. eigenvalues --   -0.72285  -0.71414  -0.70633  -0.65181  -0.64918
 Alpha  occ. eigenvalues --   -0.63830  -0.62263  -0.59781  -0.58239  -0.56453
 Alpha  occ. eigenvalues --   -0.55421  -0.54179  -0.53249  -0.53007  -0.51600
 Alpha  occ. eigenvalues --   -0.51288  -0.49118  -0.49042  -0.48811  -0.46735
 Alpha  occ. eigenvalues --   -0.45484  -0.45079  -0.44535  -0.44252  -0.42609
 Alpha  occ. eigenvalues --   -0.37500  -0.36515
 Alpha virt. eigenvalues --    0.04817   0.11141   0.16317   0.21272   0.24039
 Alpha virt. eigenvalues --    0.25386   0.27201   0.27779   0.28158   0.28811
 Alpha virt. eigenvalues --    0.29107   0.30864   0.32373   0.32490   0.32943

 Mulliken charges:
               1
     1  C   -0.296889
     2  C   -0.307349
     3  C   -0.475715
     4  H    0.144048
     5  H    0.143529
     6  H    0.175240
     7  H    0.151675
     8  H    0.150034
     9  H    0.149187
    10  H    0.159483
    11  C   -0.301111
    12  C   -0.298663
    13  C   -0.474725
    14  H    0.163476
    15  H    0.148800
    16  H    0.148272
    17  H    0.148631
    18  H    0.154751
    19  H    0.155256
    20  H    0.155919
    21  C   -0.170419
    22  C   -0.218582
    23  C   -0.170604
    24  C    0.158556
    25  C   -0.170648
    26  C   -0.218541
    27  H    0.226276
    28  H    0.224100
    29  H    0.276066
    30  H    0.275557
    31  H    0.224048
    32  N    0.488930
    33  O   -0.460906
    34  O   -0.457680
 Sum of Mulliken charges =  -0.00000

 Dipole moment (field-independent basis, Debye):
    X=              5.0473    Y=             -1.2303    Z=             -1.9768  Tot=              5.5585
 Quadrupole moment (field-independent basis, Debye-Ang):
   XX=            -69.9329   YY=            -93.3115   ZZ=            -95.3596
   XY=             -2.3980   XZ=             -4.2266   YZ=              3.3189

 Normal termination of Gaussian 16 at Thu May  6 05:58:50 2021.
