 Gaussian 16, Revision A.03,
 Gaussian 16:  EM64L-G16RevA.03 25-Dec-2016

 -------------
 #p 6-31g* mp2
 -------------

 ------------------------------------------------------
 Input file generated by CHIRIPA (05-May-2021 14:53:13)
 ------------------------------------------------------
 Symbolic Z-matrix:
 Charge =  0 Multiplicity = 1

                         Standard orientation:
 ---------------------------------------------------------------------
 Center     Atomic      Atomic             Coordinates (Angstroms)
 Number     Number       Type             X           Y           Z
 ---------------------------------------------------------------------
      1          6           0        3.325641   -0.472358    0.158258
      2          6           0        2.449342   -0.405050    1.409479
      3          6           0        1.014493   -0.866135    1.151791
      4          1           0        2.876095    0.146636   -0.630221
      5          1           0        3.333403   -1.503834   -0.220416
      6          1           0        2.444350    0.625710    1.786474
      7          1           0        2.901128   -1.024124    2.195133
      8          1           0        1.000470   -1.901897    0.797388
      9          1           0        0.541097   -0.242689    0.386408
     10          1           0        0.405594   -0.809880    2.059501
     11          6           0        4.762919   -0.014573    0.399908
     12          6           0        5.639219   -0.081882   -0.851313
     13          6           0        7.074068    0.379203   -0.593626
     14          1           0        4.755157    1.016902    0.778581
     15          1           0        5.212465   -0.633568    1.188386
     16          1           0        5.187433    0.537193   -1.636967
     17          1           0        5.644211   -1.112641   -1.228309
     18          1           0        7.547464   -0.244243    0.171758
     19          1           0        7.088090    1.414965   -0.239222
     20          1           0        7.682966    0.322948   -1.501336
     21          6           0       -3.946911   -2.203855   -0.338522
     22          6           0       -4.763863   -1.226553    0.239398
     23          6           0       -4.337882    0.103064    0.311554
     24          6           0       -3.083479    0.421657   -0.206385
     25          6           0       -2.246594   -0.529333   -0.788221
     26          6           0       -2.693095   -1.852744   -0.849586
     27          1           0       -4.285793   -3.234324   -0.390385
     28          1           0       -5.738074   -1.496342    0.637106
     29          1           0       -4.950101    0.879705    0.753633
     30          1           0       -1.280515   -0.229960   -1.176145
     31          1           0       -2.056518   -2.609629   -1.298966
     32          7           0       -2.621650    1.825978   -0.135708
     33          8           0       -1.512246    2.080966   -0.599217
     34          8           0       -3.377819    2.645107    0.381859
 ---------------------------------------------------------------------

 SCF Done:  E(RHF) =  -669.535488593     A.U. after   15 cycles
 E2 =    -0.2091679398D+01 EUMP2 =    -0.67162716799083D+03

 The electronic state is 1-A.
 Alpha  occ. eigenvalues --  -20.60811 -20.60806 -15.85851 -11.31164 -11.27743
 Alpha  occ. eigenvalues --  -11.27726 -11.27481 -11.26747 -11.26733 -11.21480
 Alpha  occ. eigenvalues --  -11.21474 -11.21288 -11.21220 -11.21084 -11.20947
 Alpha  occ. eigenvalues --   -1.59876  -1.39433  -1.19343  -1.08747  -1.08313
 Alpha  occ. eigenvalues --   -1.04743  -1.03431  -0.95906  -0.95585  -0.86932
 Alpha  occ. eigenvalues --   -0.86140  -0.82423  -0.79510  -0.78135  -0.77472
 Alpha  occ. eigenvalues --   -0.72074  -0.71191  -0.70468  -0.65001  -0.64949
 Alpha  occ. eigenvalues --   -0.64741  -0.62128  -0.60805  -0.59259  -0.57511
 Alpha  occ. eigenvalues --   -0.55322  -0.55127  -0.53121  -0.52874  -0.52565
 Alpha  occ. eigenvalues --   -0.52270  -0.49830  -0.48831  -0.48825  -0.47821
 Alpha  occ. eigenvalues --   -0.46516  -0.45679  -0.45585  -0.44824  -0.43683
 Alpha  occ. eigenvalues --   -0.37321  -0.36311
 Alpha virt. eigenvalues --    0.05032   0.11268   0.16535   0.21065   0.23026
 Alpha virt. eigenvalues --    0.24257   0.26164   0.26866   0.27724   0.27960
 Alpha virt. eigenvalues --    0.29233   0.29975   0.31603   0.31948   0.32055

 Mulliken charges:
               1
     1  C   -0.299427
     2  C   -0.298893
     3  C   -0.481350
     4  H    0.152786
     5  H    0.145456
     6  H    0.157999
     7  H    0.150428
     8  H    0.147132
     9  H    0.160700
    10  H    0.161951
    11  C   -0.298438
    12  C   -0.299804
    13  C   -0.475745
    14  H    0.152224
    15  H    0.148698
    16  H    0.153285
    17  H    0.150107
    18  H    0.154523
    19  H    0.156365
    20  H    0.159846
    21  C   -0.170668
    22  C   -0.218640
    23  C   -0.171032
    24  C    0.157641
    25  C   -0.166803
    26  C   -0.219363
    27  H    0.225497
    28  H    0.223260
    29  H    0.275388
    30  H    0.276521
    31  H    0.223801
    32  N    0.488858
    33  O   -0.462489
    34  O   -0.459813
 Sum of Mulliken charges =  -0.00000

 Dipole moment (field-independent basis, Debye):
    X=             -1.6512    Y=             -4.8632    Z=             -0.2300  Tot=              5.1411
 Quadrupole moment (field-independent basis, Debye-Ang):
   XX=            -82.3235   YY=            -98.5011   ZZ=            -94.3052
   XY=             13.2428   XZ=             -1.0699   YZ=              1.4716

 Normal termination of Gaussian 16 at Thu May  6 02:34:23 2021.
