 Gaussian 16, Revision A.03,
 Gaussian 16:  EM64L-G16RevA.03 25-Dec-2016

 -------------
 #p 6-31g* mp2
 -------------

 ------------------------------------------------------
 Input file generated by CHIRIPA (05-May-2021 14:57:24)
 ------------------------------------------------------
 Symbolic Z-matrix:
 Charge =  0 Multiplicity = 1

                         Standard orientation:
 ---------------------------------------------------------------------
 Center     Atomic      Atomic             Coordinates (Angstroms)
 Number     Number       Type             X           Y           Z
 ---------------------------------------------------------------------
      1          6           0       -2.070157    2.230152    0.624958
      2          6           0       -2.697935    2.203910   -0.624732
      3          6           0       -3.434374    1.085343   -1.025998
      4          6           0       -3.522653    0.005700   -0.148577
      5          6           0       -2.908567    0.001704    1.102891
      6          6           0       -2.177287    1.130903    1.483268
      7          1           0       -1.500077    3.103212    0.928558
      8          1           0       -2.616444    3.056162   -1.293366
      9          1           0       -3.930426    1.038432   -1.987845
     10          1           0       -3.007792   -0.863032    1.747720
     11          1           0       -1.690799    1.148496    2.454384
     12          7           0       -4.299557   -1.184105   -0.562322
     13          8           0       -4.362142   -2.122465    0.229006
     14          8           0       -4.831198   -1.155784   -1.670109
     15          6           0        5.662026    0.033042   -1.001093
     16          6           0        5.224305   -1.219269   -0.557651
     17          6           0        3.969860   -1.361151    0.043001
     18          6           0        3.175404   -0.224497    0.184940
     19          6           0        3.583369    1.036691   -0.246635
     20          6           0        4.841607    1.155047   -0.844446
     21          1           0        6.637982    0.134121   -1.466591
     22          1           0        5.859331   -2.092369   -0.677998
     23          1           0        3.606157   -2.318753    0.395332
     24          1           0        2.927980    1.888746   -0.112893
     25          1           0        5.178942    2.128854   -1.187882
     26          7           0        1.845372   -0.362249    0.819321
     27          8           0        1.164335    0.654592    0.932741
     28          8           0        1.509112   -1.484449    1.191116
 ---------------------------------------------------------------------

 SCF Done:  E(RHF) =  -868.338642258     A.U. after   16 cycles
 E2 =    -0.2599752302D+01 EUMP2 =    -0.87093839456018D+03

 The electronic state is 1-A.
 Alpha  occ. eigenvalues --  -20.61389 -20.61357 -20.59736 -20.59715 -15.86409
 Alpha  occ. eigenvalues --  -15.84771 -11.31638 -11.29890 -11.28223 -11.28161
 Alpha  occ. eigenvalues --  -11.27898 -11.27188 -11.27147 -11.26487 -11.26309
 Alpha  occ. eigenvalues --  -11.26102 -11.25511 -11.25261  -1.60440  -1.58808
 Alpha  occ. eigenvalues --   -1.40000  -1.38368  -1.19796  -1.18020  -1.09215
 Alpha  occ. eigenvalues --   -1.07465  -1.05180  -1.03386  -0.96077  -0.94349
 Alpha  occ. eigenvalues --   -0.86584  -0.84806  -0.82915  -0.81194  -0.77981
 Alpha  occ. eigenvalues --   -0.76274  -0.72653  -0.71745  -0.71001  -0.70903
 Alpha  occ. eigenvalues --   -0.70124  -0.69157  -0.65454  -0.65182  -0.63683
 Alpha  occ. eigenvalues --   -0.63406  -0.62532  -0.60758  -0.55682  -0.53926
 Alpha  occ. eigenvalues --   -0.53513  -0.53272  -0.51748  -0.51501  -0.49395
 Alpha  occ. eigenvalues --   -0.49356  -0.47765  -0.47734  -0.45431  -0.43829
 Alpha  occ. eigenvalues --   -0.37763  -0.36776  -0.35945  -0.34913
 Alpha virt. eigenvalues --    0.04549   0.06248   0.10881   0.12726   0.16073
 Alpha virt. eigenvalues --    0.17824   0.21028   0.22679   0.26937   0.27892
 Alpha virt. eigenvalues --    0.28624   0.29501   0.30618   0.32056   0.32263

 Mulliken charges:
               1
     1  C   -0.165238
     2  C   -0.220614
     3  C   -0.174218
     4  C    0.157000
     5  C   -0.171114
     6  C   -0.195930
     7  H    0.220699
     8  H    0.215948
     9  H    0.269850
    10  H    0.274679
    11  H    0.226382
    12  N    0.488190
    13  O   -0.461513
    14  O   -0.465747
    15  C   -0.170202
    16  C   -0.218376
    17  C   -0.170156
    18  C    0.158478
    19  C   -0.170569
    20  C   -0.218326
    21  H    0.227123
    22  H    0.225458
    23  H    0.277458
    24  H    0.271846
    25  H    0.223665
    26  N    0.490243
    27  O   -0.467810
    28  O   -0.457206
 Sum of Mulliken charges =  -0.00000

 Dipole moment (field-independent basis, Debye):
    X=              7.8794    Y=              4.5679    Z=             -0.5575  Tot=              9.1248
 Quadrupole moment (field-independent basis, Debye-Ang):
   XX=            -96.1436   YY=           -100.0160   ZZ=           -103.2369
   XY=            -15.8434   XZ=            -11.5888   YZ=             -2.7806

 Normal termination of Gaussian 16 at Wed May  5 21:05:10 2021.
