 Gaussian 16, Revision A.03,
 Gaussian 16:  EM64L-G16RevA.03 25-Dec-2016

 -------------
 #p 6-31g* mp2
 -------------

 ------------------------------------------------------
 Input file generated by CHIRIPA (05-May-2021 14:53:14)
 ------------------------------------------------------
 Symbolic Z-matrix:
 Charge =  0 Multiplicity = 1

                         Standard orientation:
 ---------------------------------------------------------------------
 Center     Atomic      Atomic             Coordinates (Angstroms)
 Number     Number       Type             X           Y           Z
 ---------------------------------------------------------------------
      1          6           0        3.918425   -0.523194   -0.212478
      2          6           0        4.185316   -1.231209    1.116232
      3          6           0        4.967071   -2.534059    0.945253
      4          1           0        3.364340   -1.200470   -0.876731
      5          1           0        4.876835   -0.314510   -0.707750
      6          1           0        3.226749   -1.437258    1.609497
      7          1           0        4.738662   -0.552100    1.777470
      8          1           0        5.937251   -2.342378    0.475562
      9          1           0        4.416748   -3.232564    0.306634
     10          1           0        5.146797   -3.023641    1.907474
     11          6           0        3.137808    0.780836   -0.057970
     12          6           0        2.870917    1.488850   -1.386680
     13          6           0        2.089161    2.791700   -1.215701
     14          1           0        2.179397    0.572151    0.437302
     15          1           0        3.691893    1.458111    0.606284
     16          1           0        2.317570    0.809742   -2.047918
     17          1           0        3.829484    1.694899   -1.879944
     18          1           0        2.639485    3.490206   -0.577082
     19          1           0        1.118981    2.600019   -0.746009
     20          1           0        1.909436    3.281282   -2.177921
     21          6           0       -2.267584    1.520362    1.976309
     22          6           0       -1.586999    1.630138    0.759232
     23          6           0       -1.849725    0.737508   -0.284193
     24          6           0       -2.803592   -0.257354   -0.075205
     25          6           0       -3.498269   -0.392591    1.125804
     26          6           0       -3.219368    0.511127    2.155395
     27          1           0       -2.057209    2.218086    2.781493
     28          1           0       -0.847315    2.412937    0.617325
     29          1           0       -1.337482    0.799672   -1.236643
     30          1           0       -4.230184   -1.183316    1.237482
     31          1           0       -3.749453    0.423482    3.099520
     32          7           0       -3.090290   -1.208210   -1.172510
     33          8           0       -3.935239   -2.075912   -0.963247
     34          8           0       -2.464625   -1.067785   -2.221061
 ---------------------------------------------------------------------

 SCF Done:  E(RHF) =  -669.535587856     A.U. after   15 cycles
 E2 =    -0.2091397035D+01 EUMP2 =    -0.67162698489107D+03

 The electronic state is 1-A.
 Alpha  occ. eigenvalues --  -20.60786 -20.60781 -15.85840 -11.31205 -11.27779
 Alpha  occ. eigenvalues --  -11.27773 -11.27514 -11.26790 -11.26768 -11.22086
 Alpha  occ. eigenvalues --  -11.21887 -11.21792 -11.21783 -11.21594 -11.21171
 Alpha  occ. eigenvalues --   -1.59862  -1.39415  -1.19380  -1.08781  -1.08766
 Alpha  occ. eigenvalues --   -1.04786  -1.03909  -0.96377  -0.95607  -0.87397
 Alpha  occ. eigenvalues --   -0.86179  -0.82444  -0.79975  -0.78561  -0.77489
 Alpha  occ. eigenvalues --   -0.72057  -0.71185  -0.70485  -0.65420  -0.65029
 Alpha  occ. eigenvalues --   -0.64793  -0.62199  -0.61260  -0.59743  -0.57968
 Alpha  occ. eigenvalues --   -0.55701  -0.55263  -0.53112  -0.53071  -0.52984
 Alpha  occ. eigenvalues --   -0.52694  -0.50318  -0.48818  -0.48812  -0.48284
 Alpha  occ. eigenvalues --   -0.46995  -0.46109  -0.46008  -0.44820  -0.44139
 Alpha  occ. eigenvalues --   -0.37357  -0.36382
 Alpha virt. eigenvalues --    0.05032   0.11259   0.16446   0.19541   0.22776
 Alpha virt. eigenvalues --    0.23823   0.25444   0.26616   0.27342   0.28211
 Alpha virt. eigenvalues --    0.28937   0.29917   0.31304   0.31553   0.32405

 Mulliken charges:
               1
     1  C   -0.299201
     2  C   -0.299953
     3  C   -0.476148
     4  H    0.153708
     5  H    0.150385
     6  H    0.152180
     7  H    0.150802
     8  H    0.155424
     9  H    0.157540
    10  H    0.160426
    11  C   -0.299245
    12  C   -0.301057
    13  C   -0.479704
    14  H    0.147586
    15  H    0.148755
    16  H    0.156584
    17  H    0.155435
    18  H    0.157237
    19  H    0.143887
    20  H    0.165181
    21  C   -0.170977
    22  C   -0.223850
    23  C   -0.173176
    24  C    0.158499
    25  C   -0.170844
    26  C   -0.218592
    27  H    0.226299
    28  H    0.230315
    29  H    0.276082
    30  H    0.275687
    31  H    0.223545
    32  N    0.488142
    33  O   -0.460416
    34  O   -0.460535
 Sum of Mulliken charges =  -0.00000

 Dipole moment (field-independent basis, Debye):
    X=              1.1216    Y=              3.2980    Z=              3.8291  Tot=              5.1766
 Quadrupole moment (field-independent basis, Debye-Ang):
   XX=            -97.6936   YY=            -96.6443   ZZ=            -93.9706
   XY=             -6.9573   XZ=            -13.5170   YZ=             -2.6758

 Normal termination of Gaussian 16 at Wed May  5 17:07:33 2021.
