 Gaussian 16, Revision A.03,
 Gaussian 16:  EM64L-G16RevA.03 25-Dec-2016

 -------------
 #p 6-31g* mp2
 -------------

 ------------------------------------------------------
 Input file generated by CHIRIPA (05-May-2021 14:51:08)
 ------------------------------------------------------
 Symbolic Z-matrix:
 Charge =  0 Multiplicity = 1

                         Standard orientation:
 ---------------------------------------------------------------------
 Center     Atomic      Atomic             Coordinates (Angstroms)
 Number     Number       Type             X           Y           Z
 ---------------------------------------------------------------------
      1          6           0       -3.029495    0.750671   -0.089645
      2          6           0       -2.398579    1.875788    0.731355
      3          6           0       -3.311589    3.095178    0.862871
      4          1           0       -3.281378    1.131396   -1.088919
      5          1           0       -3.977292    0.451402    0.378880
      6          1           0       -1.451574    2.171899    0.262191
      7          1           0       -2.147995    1.492288    1.728727
      8          1           0       -4.252337    2.821171    1.351250
      9          1           0       -3.551959    3.504644   -0.123618
     10          1           0       -2.840882    3.887310    1.453482
     11          6           0       -2.128841   -0.475232   -0.230046
     12          6           0       -2.759757   -1.600349   -1.051046
     13          6           0       -1.846748   -2.819739   -1.182562
     14          1           0       -1.181045   -0.175963   -0.698571
     15          1           0       -1.876959   -0.855957    0.769228
     16          1           0       -3.010342   -1.216849   -2.048418
     17          1           0       -3.706763   -1.896461   -0.581882
     18          1           0       -1.606377   -3.229205   -0.196073
     19          1           0       -0.906000   -2.545732   -1.670941
     20          1           0       -2.317454   -3.611872   -1.773173
     21          6           0        1.994399   -0.603615    0.316108
     22          6           0        2.425309   -1.924411    0.954699
     23          6           0        1.244294   -2.845777    1.261427
     24          1           0        1.292245   -0.090855    0.987676
     25          1           0        1.442847   -0.815088   -0.610427
     26          1           0        2.977081   -1.710468    1.879032
     27          1           0        3.126667   -2.433997    0.281619
     28          1           0        0.696743   -3.088318    0.344932
     29          1           0        0.546307   -2.360678    1.951423
     30          1           0        1.575039   -3.784147    1.717422
     31          6           0        3.163938    0.328176    0.003583
     32          6           0        2.733027    1.648973   -0.635008
     33          6           0        3.914042    2.570339   -0.941736
     34          1           0        3.715489    0.539649    0.930117
     35          1           0        3.866091   -0.184584   -0.667985
     36          1           0        2.031670    2.158558    0.038072
     37          1           0        2.181256    1.435029   -1.559341
     38          1           0        4.612029    2.085239   -1.631730
     39          1           0        4.461593    2.812879   -0.025241
     40          1           0        3.583298    3.508708   -1.397731
 ---------------------------------------------------------------------

 SCF Done:  E(RHF) =  -470.732339558     A.U. after   11 cycles
 E2 =    -0.1584668337D+01 EUMP2 =    -0.47231700789458D+03

 The electronic state is 1-A.
 Alpha  occ. eigenvalues --  -11.21622 -11.21592 -11.21576 -11.21541 -11.21377
 Alpha  occ. eigenvalues --  -11.21357 -11.21305 -11.21277 -11.21084 -11.21066
 Alpha  occ. eigenvalues --  -11.21046 -11.20916  -1.08439  -1.08364  -1.03554
 Alpha  occ. eigenvalues --   -1.03462  -0.96021  -0.95892  -0.87067  -0.86886
 Alpha  occ. eigenvalues --   -0.79724  -0.79454  -0.78440  -0.77971  -0.65083
 Alpha  occ. eigenvalues --   -0.64990  -0.60921  -0.60915  -0.59420  -0.59229
 Alpha  occ. eigenvalues --   -0.57789  -0.57381  -0.55303  -0.55195  -0.52715
 Alpha  occ. eigenvalues --   -0.52655  -0.52620  -0.52090  -0.49970  -0.49817
 Alpha  occ. eigenvalues --   -0.48253  -0.47595  -0.46615  -0.46576  -0.46253
 Alpha  occ. eigenvalues --   -0.45761  -0.45552  -0.45101  -0.43763  -0.43745
 Alpha virt. eigenvalues --    0.20980   0.22722   0.23379   0.24106   0.25096
 Alpha virt. eigenvalues --    0.25526   0.26571   0.27694   0.29134   0.30276
 Alpha virt. eigenvalues --    0.30696   0.31031   0.31288   0.31767   0.32124

 Mulliken charges:
               1
     1  C   -0.298115
     2  C   -0.300613
     3  C   -0.475597
     4  H    0.149393
     5  H    0.149221
     6  H    0.153006
     7  H    0.151188
     8  H    0.155186
     9  H    0.155261
    10  H    0.160023
    11  C   -0.302769
    12  C   -0.299618
    13  C   -0.480311
    14  H    0.154894
    15  H    0.150694
    16  H    0.151425
    17  H    0.151734
    18  H    0.161050
    19  H    0.154415
    20  H    0.160134
    21  C   -0.301411
    22  C   -0.299546
    23  C   -0.482587
    24  H    0.152209
    25  H    0.150957
    26  H    0.151302
    27  H    0.151342
    28  H    0.164993
    29  H    0.153943
    30  H    0.159020
    31  C   -0.298120
    32  C   -0.300449
    33  C   -0.475586
    34  H    0.149609
    35  H    0.149431
    36  H    0.152546
    37  H    0.150946
    38  H    0.155257
    39  H    0.155388
    40  H    0.160154
 Sum of Mulliken charges =  -0.00000

 Dipole moment (field-independent basis, Debye):
    X=             -0.0131    Y=             -0.0159    Z=             -0.0086  Tot=              0.0223
 Quadrupole moment (field-independent basis, Debye-Ang):
   XX=            -85.6021   YY=            -85.9662   ZZ=            -83.3818
   XY=              0.1417   XZ=             -0.1704   YZ=              0.1304

 Normal termination of Gaussian 16 at Thu May  6 13:13:00 2021.
