 Gaussian 16, Revision A.03,
 Gaussian 16:  EM64L-G16RevA.03 25-Dec-2016

 -------------
 #p 6-31g* mp2
 -------------

 ------------------------------------------------------
 Input file generated by CHIRIPA (05-May-2021 14:55:24)
 ------------------------------------------------------
 Symbolic Z-matrix:
 Charge =  0 Multiplicity = 1

                         Standard orientation:
 ---------------------------------------------------------------------
 Center     Atomic      Atomic             Coordinates (Angstroms)
 Number     Number       Type             X           Y           Z
 ---------------------------------------------------------------------
      1          6           0       -0.331735   -1.478562    0.000159
      2          6           0       -1.265996   -1.810367   -0.986544
      3          6           0       -2.552001   -1.262634   -0.959594
      4          6           0       -2.871346   -0.382511    0.073214
      5          6           0       -1.962646   -0.032390    1.070696
      6          6           0       -0.682424   -0.592195    1.023825
      7          1           0        0.665018   -1.908743   -0.028514
      8          1           0       -0.996427   -2.498455   -1.782730
      9          1           0       -3.294800   -1.502270   -1.710756
     10          1           0       -2.260657    0.656441    1.851797
     11          1           0        0.041089   -0.332704    1.791444
     12          7           0       -4.229721    0.203740    0.112289
     13          8           0       -4.486336    0.976672    1.032812
     14          8           0       -5.012081   -0.120790   -0.778346
     15          6           0        3.532460   -0.079917    0.201319
     16          6           0        4.929671   -0.599327   -0.139267
     17          6           0        5.202211   -1.987229    0.441462
     18          1           0        3.414812   -0.051641    1.293246
     19          1           0        2.783072   -0.789709   -0.175522
     20          1           0        5.676159    0.111923    0.236891
     21          1           0        5.044073   -0.626189   -1.230508
     22          1           0        4.479699   -2.714380    0.056977
     23          1           0        5.115376   -1.972073    1.532713
     24          1           0        6.206529   -2.339218    0.185902
     25          6           0        3.245063    1.306495   -0.372259
     26          6           0        1.847851    1.825905   -0.031674
     27          6           0        1.575311    3.213806   -0.612402
     28          1           0        3.994451    2.016286    0.004582
     29          1           0        3.362710    1.278218   -1.464186
     30          1           0        1.733449    1.852767    1.059567
     31          1           0        1.101363    1.114654   -0.407832
     32          1           0        1.662146    3.198651   -1.703654
     33          1           0        2.297824    3.940957   -0.227918
     34          1           0        0.570994    3.565796   -0.356843
 ---------------------------------------------------------------------

 SCF Done:  E(RHF) =  -669.533997724     A.U. after   15 cycles
 E2 =    -0.2093957456D+01 EUMP2 =    -0.67162795517982D+03

 The electronic state is 1-A.
 Alpha  occ. eigenvalues --  -20.60767 -20.60762 -15.85819 -11.31195 -11.27745
 Alpha  occ. eigenvalues --  -11.27719 -11.27443 -11.26785 -11.26727 -11.22482
 Alpha  occ. eigenvalues --  -11.22422 -11.22149 -11.22085 -11.21921 -11.21479
 Alpha  occ. eigenvalues --   -1.59842  -1.39395  -1.19363  -1.09265  -1.08751
 Alpha  occ. eigenvalues --   -1.04766  -1.04236  -0.96706  -0.95592  -0.87714
 Alpha  occ. eigenvalues --   -0.86161  -0.82422  -0.80335  -0.79123  -0.77454
 Alpha  occ. eigenvalues --   -0.72037  -0.71165  -0.70482  -0.65891  -0.65004
 Alpha  occ. eigenvalues --   -0.64756  -0.62106  -0.61641  -0.60080  -0.58334
 Alpha  occ. eigenvalues --   -0.56047  -0.55241  -0.53406  -0.53177  -0.53043
 Alpha  occ. eigenvalues --   -0.52838  -0.50639  -0.48813  -0.48793  -0.48611
 Alpha  occ. eigenvalues --   -0.47373  -0.46601  -0.46529  -0.44799  -0.44526
 Alpha  occ. eigenvalues --   -0.37264  -0.36310
 Alpha virt. eigenvalues --    0.05018   0.11265   0.16388   0.19844   0.22758
 Alpha virt. eigenvalues --    0.23134   0.24665   0.25623   0.27185   0.28121
 Alpha virt. eigenvalues --    0.29944   0.30268   0.31164   0.31478   0.31741

 Mulliken charges:
               1
     1  C   -0.175585
     2  C   -0.219101
     3  C   -0.171378
     4  C    0.158907
     5  C   -0.172560
     6  C   -0.216252
     7  H    0.230900
     8  H    0.223420
     9  H    0.275473
    10  H    0.275465
    11  H    0.226825
    12  N    0.488006
    13  O   -0.460353
    14  O   -0.460398
    15  C   -0.302561
    16  C   -0.299592
    17  C   -0.475868
    18  H    0.147505
    19  H    0.140981
    20  H    0.155918
    21  H    0.154087
    22  H    0.150504
    23  H    0.155918
    24  H    0.164280
    25  C   -0.297318
    26  C   -0.308220
    27  C   -0.475697
    28  H    0.152296
    29  H    0.151629
    30  H    0.144531
    31  H    0.162324
    32  H    0.156598
    33  H    0.155741
    34  H    0.163575
 Sum of Mulliken charges =  -0.00000

 Dipole moment (field-independent basis, Debye):
    X=              4.8815    Y=             -1.9929    Z=             -0.1758  Tot=              5.2755
 Quadrupole moment (field-independent basis, Debye-Ang):
   XX=           -122.1024   YY=            -93.2139   ZZ=            -90.9693
   XY=              5.3703   XZ=              1.9833   YZ=              2.9623

 Normal termination of Gaussian 16 at Thu May  6 20:55:21 2021.
