 Gaussian 16, Revision A.03,
 Gaussian 16:  EM64L-G16RevA.03 25-Dec-2016

 -------------
 #p 6-31g* mp2
 -------------

 ------------------------------------------------------
 Input file generated by CHIRIPA (05-May-2021 14:53:16)
 ------------------------------------------------------
 Symbolic Z-matrix:
 Charge =  0 Multiplicity = 1

                         Standard orientation:
 ---------------------------------------------------------------------
 Center     Atomic      Atomic             Coordinates (Angstroms)
 Number     Number       Type             X           Y           Z
 ---------------------------------------------------------------------
      1          6           0        4.252118    0.633636   -0.270329
      2          6           0        5.576143    0.949802    0.426077
      3          6           0        6.072971    2.366479    0.136278
      4          1           0        4.374295    0.766375   -1.354026
      5          1           0        3.494193    1.361756    0.050276
      6          1           0        6.330987    0.220463    0.105312
      7          1           0        5.450852    0.816110    1.508226
      8          1           0        5.340831    3.107790    0.472476
      9          1           0        6.225967    2.508758   -0.938408
     10          1           0        7.020721    2.571240    0.643923
     11          6           0        3.742513   -0.779016    0.009747
     12          6           0        2.418488   -1.095182   -0.686660
     13          6           0        1.921660   -2.511858   -0.396860
     14          1           0        4.500437   -1.507136   -0.310859
     15          1           0        3.620335   -0.911755    1.093443
     16          1           0        2.543779   -0.961490   -1.768808
     17          1           0        1.663643   -0.365843   -0.365895
     18          1           0        1.768664   -2.654138    0.677826
     19          1           0        2.653800   -3.253170   -0.733059
     20          1           0        0.973910   -2.716620   -0.904505
     21          6           0       -4.562364    2.056479   -0.441452
     22          6           0       -4.102227    1.225545   -1.468264
     23          6           0       -3.304040    0.114810   -1.178929
     24          6           0       -2.983741   -0.136533    0.154308
     25          6           0       -3.426794    0.672568    1.199463
     26          6           0       -4.223776    1.777830    0.886793
     27          1           0       -5.181947    2.917199   -0.675278
     28          1           0       -4.363603    1.439517   -2.500709
     29          1           0       -2.934237   -0.545042   -1.954338
     30          1           0       -3.149632    0.433658    2.219032
     31          1           0       -4.579701    2.421408    1.686274
     32          7           0       -2.139374   -1.309522    0.472966
     33          8           0       -1.871213   -1.509332    1.655676
     34          8           0       -1.761709   -2.006890   -0.466014
 ---------------------------------------------------------------------

 SCF Done:  E(RHF) =  -669.536118273     A.U. after   15 cycles
 E2 =    -0.2091078255D+01 EUMP2 =    -0.67162719652775D+03

 The electronic state is 1-A.
 Alpha  occ. eigenvalues --  -20.60944 -20.60931 -15.85973 -11.31293 -11.27856
 Alpha  occ. eigenvalues --  -11.27852 -11.27593 -11.26863 -11.26853 -11.21154
 Alpha  occ. eigenvalues --  -11.20818 -11.20743 -11.20603 -11.20543 -11.19456
 Alpha  occ. eigenvalues --   -1.59996  -1.39553  -1.19460  -1.08865  -1.07717
 Alpha  occ. eigenvalues --   -1.04857  -1.02714  -0.95709  -0.95130  -0.86258
 Alpha  occ. eigenvalues --   -0.86144  -0.82541  -0.78822  -0.77594  -0.77502
 Alpha  occ. eigenvalues --   -0.72197  -0.71313  -0.70569  -0.65117  -0.64860
 Alpha  occ. eigenvalues --   -0.64359  -0.62204  -0.60122  -0.58561  -0.56724
 Alpha  occ. eigenvalues --   -0.55361  -0.54436  -0.53189  -0.52949  -0.51783
 Alpha  occ. eigenvalues --   -0.51566  -0.49141  -0.48945  -0.48878  -0.47108
 Alpha  occ. eigenvalues --   -0.45889  -0.45044  -0.44974  -0.44930  -0.42927
 Alpha  occ. eigenvalues --   -0.37439  -0.36458
 Alpha virt. eigenvalues --    0.04917   0.11197   0.16400   0.21328   0.23506
 Alpha virt. eigenvalues --    0.25188   0.27249   0.27288   0.28085   0.28229
 Alpha virt. eigenvalues --    0.28981   0.30899   0.32148   0.32366   0.32408

 Mulliken charges:
               1
     1  C   -0.297219
     2  C   -0.299073
     3  C   -0.475159
     4  H    0.147537
     5  H    0.147206
     6  H    0.151511
     7  H    0.151818
     8  H    0.153701
     9  H    0.154109
    10  H    0.158929
    11  C   -0.297593
    12  C   -0.297618
    13  C   -0.481814
    14  H    0.147862
    15  H    0.150327
    16  H    0.146339
    17  H    0.147782
    18  H    0.159393
    19  H    0.145663
    20  H    0.182290
    21  C   -0.170581
    22  C   -0.218518
    23  C   -0.170599
    24  C    0.157972
    25  C   -0.170789
    26  C   -0.218572
    27  H    0.226013
    28  H    0.223876
    29  H    0.275760
    30  H    0.275766
    31  H    0.223800
    32  N    0.489442
    33  O   -0.459235
    34  O   -0.460323
 Sum of Mulliken charges =  -0.00000

 Dipole moment (field-independent basis, Debye):
    X=             -3.2782    Y=              4.0468    Z=             -1.0893  Tot=              5.3207
 Quadrupole moment (field-independent basis, Debye-Ang):
   XX=            -78.6435   YY=            -97.1387   ZZ=            -89.7456
   XY=            -13.0630   XZ=              2.4674   YZ=              2.4357

 Normal termination of Gaussian 16 at Thu May  6 02:44:56 2021.
