 Gaussian 16, Revision A.03,
 Gaussian 16:  EM64L-G16RevA.03 25-Dec-2016

 -------------
 #p 6-31g* mp2
 -------------

 ------------------------------------------------------
 Input file generated by CHIRIPA (05-May-2021 14:51:09)
 ------------------------------------------------------
 Symbolic Z-matrix:
 Charge =  0 Multiplicity = 1

                         Standard orientation:
 ---------------------------------------------------------------------
 Center     Atomic      Atomic             Coordinates (Angstroms)
 Number     Number       Type             X           Y           Z
 ---------------------------------------------------------------------
      1          6           0        4.864682   -0.100969   -0.275576
      2          6           0        5.903976   -0.584141    0.736549
      3          6           0        7.025361   -1.397729    0.089739
      4          1           0        4.436888   -0.969276   -0.795172
      5          1           0        5.364710    0.506939   -1.042266
      6          1           0        5.401919   -1.189811    1.501871
      7          1           0        6.329208    0.285405    1.253932
      8          1           0        7.552239   -0.799141   -0.660391
      9          1           0        6.619681   -2.282739   -0.411043
     10          1           0        7.757154   -1.733089    0.831273
     11          6           0        3.737253    0.713835    0.355872
     12          6           0        2.697959    1.197007   -0.656252
     13          6           0        1.576574    2.010595   -0.009442
     14          1           0        3.237225    0.105927    1.122562
     15          1           0        4.165047    1.582142    0.875469
     16          1           0        2.272727    0.327461   -1.173635
     17          1           0        3.200016    1.802677   -1.421574
     18          1           0        1.982254    2.895605    0.491339
     19          1           0        1.049696    1.412007    0.740687
     20          1           0        0.844781    2.345955   -0.750976
     21          6           0       -4.900074    0.035032    0.288340
     22          6           0       -6.242746   -0.573118   -0.118323
     23          6           0       -7.431737    0.120705    0.547036
     24          1           0       -4.795056   -0.021166    1.380474
     25          1           0       -4.895252    1.102645    0.028389
     26          1           0       -6.244512   -1.639577    0.141059
     27          1           0       -6.344496   -0.515641   -1.209634
     28          1           0       -7.458063    1.181807    0.278761
     29          1           0       -7.357510    0.051484    1.637127
     30          1           0       -8.381456   -0.329924    0.242361
     31          6           0       -3.701861   -0.647898   -0.368637
     32          6           0       -2.359189   -0.039748    0.038026
     33          6           0       -1.170198   -0.733571   -0.627332
     34          1           0       -3.706683   -1.715511   -0.108686
     35          1           0       -3.806879   -0.591700   -1.460771
     36          1           0       -2.257439   -0.097225    1.129337
     37          1           0       -2.357424    1.026711   -0.221355
     38          1           0       -1.244424   -0.664349   -1.717424
     39          1           0       -1.143871   -1.794672   -0.359057
     40          1           0       -0.220479   -0.282942   -0.322658
 ---------------------------------------------------------------------

 SCF Done:  E(RHF) =  -470.732871615     A.U. after   11 cycles
 E2 =    -0.1582888375D+01 EUMP2 =    -0.47231575999010D+03

 The electronic state is 1-A.
 Alpha  occ. eigenvalues --  -11.21609 -11.21598 -11.21588 -11.21571 -11.21407
 Alpha  occ. eigenvalues --  -11.21385 -11.21347 -11.21325 -11.21085 -11.21066
 Alpha  occ. eigenvalues --  -11.21060 -11.20980  -1.08442  -1.08402  -1.03575
 Alpha  occ. eigenvalues --   -1.03473  -0.96055  -0.95893  -0.87057  -0.86923
 Alpha  occ. eigenvalues --   -0.79600  -0.79567  -0.78249  -0.78216  -0.65090
 Alpha  occ. eigenvalues --   -0.65037  -0.61081  -0.60898  -0.59427  -0.59208
 Alpha  occ. eigenvalues --   -0.57615  -0.57561  -0.55297  -0.55220  -0.52720
 Alpha  occ. eigenvalues --   -0.52575  -0.52425  -0.52327  -0.49907  -0.49892
 Alpha  occ. eigenvalues --   -0.47944  -0.47840  -0.46642  -0.46593  -0.45786
 Alpha  occ. eigenvalues --   -0.45762  -0.45715  -0.45686  -0.43795  -0.43734
 Alpha virt. eigenvalues --    0.21285   0.23033   0.23550   0.25274   0.26458
 Alpha virt. eigenvalues --    0.26602   0.27118   0.27478   0.27774   0.29238
 Alpha virt. eigenvalues --    0.30107   0.31226   0.31321   0.31762   0.32216

 Mulliken charges:
               1
     1  C   -0.298389
     2  C   -0.299670
     3  C   -0.475722
     4  H    0.150013
     5  H    0.149521
     6  H    0.151964
     7  H    0.151897
     8  H    0.155170
     9  H    0.155264
    10  H    0.160234
    11  C   -0.298085
    12  C   -0.303481
    13  C   -0.479137
    14  H    0.149319
    15  H    0.149731
    16  H    0.154726
    17  H    0.152434
    18  H    0.156449
    19  H    0.155919
    20  H    0.161526
    21  C   -0.298222
    22  C   -0.299625
    23  C   -0.475690
    24  H    0.149590
    25  H    0.149550
    26  H    0.151863
    27  H    0.151898
    28  H    0.155188
    29  H    0.155158
    30  H    0.160194
    31  C   -0.298278
    32  C   -0.299162
    33  C   -0.484943
    34  H    0.149392
    35  H    0.149571
    36  H    0.151240
    37  H    0.152498
    38  H    0.154483
    39  H    0.154055
    40  H    0.171560
 Sum of Mulliken charges =  -0.00000

 Dipole moment (field-independent basis, Debye):
    X=              0.0270    Y=              0.0204    Z=             -0.0016  Tot=              0.0338
 Quadrupole moment (field-independent basis, Debye-Ang):
   XX=            -86.2525   YY=            -84.1606   ZZ=            -84.4194
   XY=              1.3086   XZ=              0.6065   YZ=             -1.0299

 Normal termination of Gaussian 16 at Wed May  5 22:57:29 2021.
