 Gaussian 16, Revision A.03,
 Gaussian 16:  EM64L-G16RevA.03 25-Dec-2016

 -------------
 #p 6-31g* mp2
 -------------

 ------------------------------------------------------
 Input file generated by CHIRIPA (05-May-2021 14:57:21)
 ------------------------------------------------------
 Symbolic Z-matrix:
 Charge =  0 Multiplicity = 1

                         Standard orientation:
 ---------------------------------------------------------------------
 Center     Atomic      Atomic             Coordinates (Angstroms)
 Number     Number       Type             X           Y           Z
 ---------------------------------------------------------------------
      1          6           0        4.066758   -2.127403    0.838769
      2          6           0        4.921337   -1.388866    0.013675
      3          6           0        4.581957   -0.090944   -0.379730
      4          6           0        3.374845    0.439771    0.072501
      5          6           0        2.502312   -0.270887    0.895265
      6          6           0        2.862097   -1.567044    1.276159
      7          1           0        4.338322   -3.134974    1.139515
      8          1           0        5.857529   -1.821496   -0.327530
      9          1           0        5.224930    0.503011   -1.017870
     10          1           0        1.575773    0.187263    1.219365
     11          1           0        2.196469   -2.138274    1.917003
     12          7           0        3.004758    1.812888   -0.337357
     13          8           0        1.935631    2.257752    0.074592
     14          8           0        3.790818    2.418274   -1.062791
     15          6           0       -5.469434    1.002420    0.727155
     16          6           0       -4.197174    1.559588    0.892805
     17          6           0       -3.063375    0.894748    0.416325
     18          6           0       -3.239240   -0.331012   -0.223888
     19          6           0       -4.493530   -0.911983   -0.404220
     20          6           0       -5.613297   -0.229416    0.080311
     21          1           0       -6.344747    1.525768    1.100423
     22          1           0       -4.082439    2.516104    1.394759
     23          1           0       -2.066703    1.303280    0.531075
     24          1           0       -4.576199   -1.866994   -0.908736
     25          1           0       -6.600121   -0.664510   -0.049749
     26          7           0       -2.046364   -1.044230   -0.732578
     27          8           0       -2.228068   -2.122853   -1.293109
     28          8           0       -0.952271   -0.511125   -0.561126
 ---------------------------------------------------------------------

 SCF Done:  E(RHF) =  -868.339164490     A.U. after   16 cycles
 E2 =    -0.2598851191D+01 EUMP2 =    -0.87093801568134D+03

 The electronic state is 1-A.
 Alpha  occ. eigenvalues --  -20.60883 -20.60872 -20.60016 -20.60008 -15.85922
 Alpha  occ. eigenvalues --  -15.85064 -11.31147 -11.30239 -11.27733 -11.27649
 Alpha  occ. eigenvalues --  -11.27443 -11.26877 -11.26759 -11.26720 -11.26661
 Alpha  occ. eigenvalues --  -11.26604 -11.25870 -11.25777  -1.59954  -1.59083
 Alpha  occ. eigenvalues --   -1.39509  -1.38643  -1.19315  -1.18423  -1.08741
 Alpha  occ. eigenvalues --   -1.07868  -1.04692  -1.03806  -0.95594  -0.94727
 Alpha  occ. eigenvalues --   -0.86098  -0.85227  -0.82426  -0.81573  -0.77486
 Alpha  occ. eigenvalues --   -0.76621  -0.72152  -0.71307  -0.71271  -0.70422
 Alpha  occ. eigenvalues --   -0.70382  -0.69566  -0.64970  -0.64691  -0.64098
 Alpha  occ. eigenvalues --   -0.63839  -0.62029  -0.61162  -0.55210  -0.54369
 Alpha  occ. eigenvalues --   -0.53041  -0.52776  -0.52134  -0.51922  -0.48899
 Alpha  occ. eigenvalues --   -0.48889  -0.48050  -0.48039  -0.44945  -0.44090
 Alpha  occ. eigenvalues --   -0.37304  -0.36419  -0.36292  -0.35370
 Alpha virt. eigenvalues --    0.05013   0.05922   0.11360   0.12267   0.16523
 Alpha virt. eigenvalues --    0.17425   0.21396   0.22300   0.27111   0.27793
 Alpha virt. eigenvalues --    0.28440   0.29322   0.30893   0.31689   0.32401

 Mulliken charges:
               1
     1  C   -0.170170
     2  C   -0.219299
     3  C   -0.171163
     4  C    0.156657
     5  C   -0.157033
     6  C   -0.217084
     7  H    0.222776
     8  H    0.219970
     9  H    0.272565
    10  H    0.277475
    11  H    0.222024
    12  N    0.489501
    13  O   -0.463353
    14  O   -0.463940
    15  C   -0.170502
    16  C   -0.219128
    17  C   -0.172957
    18  C    0.156838
    19  C   -0.171285
    20  C   -0.218902
    21  H    0.225830
    22  H    0.225980
    23  H    0.282853
    24  H    0.274574
    25  H    0.223005
    26  N    0.489367
    27  O   -0.461213
    28  O   -0.463385
 Sum of Mulliken charges =  -0.00000

 Dipole moment (field-independent basis, Debye):
    X=             -3.1293    Y=             -2.3006    Z=              3.2557  Tot=              5.0680
 Quadrupole moment (field-independent basis, Debye-Ang):
   XX=            -64.9695   YY=           -109.2002   ZZ=           -104.9322
   XY=            -20.3163   XZ=             -1.4789   YZ=              0.4189

 Normal termination of Gaussian 16 at Wed May  5 16:14:15 2021.
