 Gaussian 16, Revision A.03,
 Gaussian 16:  EM64L-G16RevA.03 25-Dec-2016

 -------------
 #p 6-31g* mp2
 -------------

 ------------------------------------------------------
 Input file generated by CHIRIPA (05-May-2021 14:57:22)
 ------------------------------------------------------
 Symbolic Z-matrix:
 Charge =  0 Multiplicity = 1

                         Standard orientation:
 ---------------------------------------------------------------------
 Center     Atomic      Atomic             Coordinates (Angstroms)
 Number     Number       Type             X           Y           Z
 ---------------------------------------------------------------------
      1          6           0        3.138075   -2.272969    0.571728
      2          6           0        3.728677   -1.324417    1.413131
      3          6           0        3.611921    0.040945    1.136177
      4          6           0        2.894192    0.424210    0.004248
      5          6           0        2.294394   -0.496762   -0.853272
      6          6           0        2.424077   -1.856848   -0.556799
      7          1           0        3.233795   -3.331566    0.794454
      8          1           0        4.283764   -1.644684    2.290257
      9          1           0        4.059115    0.796542    1.770612
     10          1           0        1.747249   -0.146974   -1.720278
     11          1           0        1.964357   -2.591278   -1.212020
     12          7           0        2.763745    1.866865   -0.299282
     13          8           0        2.126196    2.178747   -1.302725
     14          8           0        3.301520    2.658419    0.472001
     15          6           0       -4.172502    1.864468    0.707376
     16          6           0       -3.111304    1.988865   -0.195346
     17          6           0       -2.407864    0.859357   -0.624216
     18          6           0       -2.794187   -0.384718   -0.127907
     19          6           0       -3.847003   -0.541184    0.772307
     20          6           0       -4.536323    0.602066    1.187475
     21          1           0       -4.713466    2.747236    1.035210
     22          1           0       -2.826551    2.967997   -0.569860
     23          1           0       -1.582366    0.926960   -1.322357
     24          1           0       -4.107626   -1.530572    1.128124
     25          1           0       -5.360048    0.502449    1.888616
     26          7           0       -2.056961   -1.587752   -0.574680
     27          8           0       -2.416927   -2.672521   -0.122643
     28          8           0       -1.133116   -1.423142   -1.368437
 ---------------------------------------------------------------------

 SCF Done:  E(RHF) =  -868.341161652     A.U. after   16 cycles
 E2 =    -0.2599058825D+01 EUMP2 =    -0.87094022047739D+03

 The electronic state is 1-A.
 Alpha  occ. eigenvalues --  -20.61230 -20.61215 -20.60482 -20.60454 -15.86245
 Alpha  occ. eigenvalues --  -15.85505 -11.31252 -11.30498 -11.27812 -11.27720
 Alpha  occ. eigenvalues --  -11.27467 -11.27084 -11.26895 -11.26761 -11.26684
 Alpha  occ. eigenvalues --  -11.26655 -11.26055 -11.25775  -1.60281  -1.59550
 Alpha  occ. eigenvalues --   -1.39848  -1.39113  -1.19394  -1.18633  -1.08860
 Alpha  occ. eigenvalues --   -1.08104  -1.04734  -1.03944  -0.95755  -0.94997
 Alpha  occ. eigenvalues --   -0.86155  -0.85377  -0.82607  -0.81819  -0.77684
 Alpha  occ. eigenvalues --   -0.76905  -0.72504  -0.71736  -0.71573  -0.70866
 Alpha  occ. eigenvalues --   -0.70501  -0.69737  -0.65051  -0.64730  -0.64269
 Alpha  occ. eigenvalues --   -0.63926  -0.62077  -0.61276  -0.55263  -0.54494
 Alpha  occ. eigenvalues --   -0.53096  -0.52815  -0.52340  -0.52018  -0.49249
 Alpha  occ. eigenvalues --   -0.49206  -0.48503  -0.48452  -0.45330  -0.44600
 Alpha  occ. eigenvalues --   -0.37368  -0.36629  -0.36321  -0.35498
 Alpha virt. eigenvalues --    0.04764   0.05602   0.11324   0.12107   0.16339
 Alpha virt. eigenvalues --    0.17185   0.21308   0.22337   0.26850   0.27757
 Alpha virt. eigenvalues --    0.28592   0.29344   0.31025   0.31716   0.32171

 Mulliken charges:
               1
     1  C   -0.172230
     2  C   -0.219355
     3  C   -0.173493
     4  C    0.154612
     5  C   -0.168153
     6  C   -0.214546
     7  H    0.225333
     8  H    0.220164
     9  H    0.271559
    10  H    0.278767
    11  H    0.236821
    12  N    0.488482
    13  O   -0.466941
    14  O   -0.462770
    15  C   -0.170017
    16  C   -0.218878
    17  C   -0.171188
    18  C    0.157456
    19  C   -0.171289
    20  C   -0.218894
    21  H    0.227027
    22  H    0.230051
    23  H    0.280165
    24  H    0.274017
    25  H    0.223269
    26  N    0.491090
    27  O   -0.460442
    28  O   -0.470616
 Sum of Mulliken charges =  -0.00000

 Dipole moment (field-independent basis, Debye):
    X=             -2.3942    Y=             -0.9321    Z=              2.5394  Tot=              3.6124
 Quadrupole moment (field-independent basis, Debye-Ang):
   XX=            -86.0019   YY=           -111.2253   ZZ=           -101.2295
   XY=            -23.9310   XZ=             -0.8382   YZ=             -1.4150

 Normal termination of Gaussian 16 at Wed May  5 16:17:42 2021.
