 Gaussian 16, Revision A.03,
 Gaussian 16:  EM64L-G16RevA.03 25-Dec-2016

 -------------
 #p 6-31g* mp2
 -------------

 ------------------------------------------------------
 Input file generated by CHIRIPA (05-May-2021 14:57:24)
 ------------------------------------------------------
 Symbolic Z-matrix:
 Charge =  0 Multiplicity = 1

                         Standard orientation:
 ---------------------------------------------------------------------
 Center     Atomic      Atomic             Coordinates (Angstroms)
 Number     Number       Type             X           Y           Z
 ---------------------------------------------------------------------
      1          6           0        1.947977    1.527510    1.133814
      2          6           0        1.910604    0.154126    1.396383
      3          6           0        2.855731   -0.703764    0.826025
      4          6           0        3.828689   -0.151871   -0.005875
      5          6           0        3.892217    1.212097   -0.286670
      6          6           0        2.936921    2.051188    0.294605
      7          1           0        1.209830    2.186638    1.581123
      8          1           0        1.143720   -0.255357    2.047733
      9          1           0        2.849999   -1.770846    1.012362
     10          1           0        4.668723    1.590918   -0.940086
     11          1           0        2.968376    3.117372    0.088916
     12          7           0        4.834636   -1.050130   -0.615466
     13          8           0        5.681651   -0.539114   -1.344894
     14          8           0        4.757034   -2.248193   -0.352294
     15          6           0       -2.678211    2.318898   -0.286322
     16          6           0       -3.761834    1.950323   -1.090334
     17          6           0       -4.315464    0.670288   -0.992594
     18          6           0       -3.758093   -0.219986   -0.076058
     19          6           0       -2.678538    0.117433    0.738804
     20          6           0       -2.140969    1.402892    0.624075
     21          1           0       -2.254376    3.315367   -0.368849
     22          1           0       -4.181107    2.659637   -1.798239
     23          1           0       -5.154443    0.358653   -1.602852
     24          1           0       -2.282126   -0.611442    1.435235
     25          1           0       -1.299421    1.686377    1.249758
     26          7           0       -4.335695   -1.577972    0.036408
     27          8           0       -3.826464   -2.343903    0.851682
     28          8           0       -5.286715   -1.850718   -0.692845
 ---------------------------------------------------------------------

 SCF Done:  E(RHF) =  -868.336074353     A.U. after   16 cycles
 E2 =    -0.2600280107D+01 EUMP2 =    -0.87093635445952D+03

 The electronic state is 1-A.
 Alpha  occ. eigenvalues --  -20.61255 -20.61244 -20.61132 -20.61123 -15.86313
 Alpha  occ. eigenvalues --  -15.86189 -11.31803 -11.31724 -11.28465 -11.28349
 Alpha  occ. eigenvalues --  -11.28307 -11.28294 -11.28233 -11.28189 -11.27561
 Alpha  occ. eigenvalues --  -11.27442 -11.27410 -11.27385  -1.60324  -1.60201
 Alpha  occ. eigenvalues --   -1.39875  -1.39749  -1.19998  -1.19929  -1.09378
 Alpha  occ. eigenvalues --   -1.09322  -1.05439  -1.05348  -0.96184  -0.96126
 Alpha  occ. eigenvalues --   -0.86844  -0.86757  -0.83033  -0.82939  -0.78061
 Alpha  occ. eigenvalues --   -0.77925  -0.72530  -0.72407  -0.71648  -0.71525
 Alpha  occ. eigenvalues --   -0.71159  -0.71101  -0.65665  -0.65629  -0.65510
 Alpha  occ. eigenvalues --   -0.65323  -0.62828  -0.62655  -0.56049  -0.55875
 Alpha  occ. eigenvalues --   -0.53776  -0.53675  -0.53487  -0.53459  -0.49298
 Alpha  occ. eigenvalues --   -0.49276  -0.49181  -0.49147  -0.45254  -0.45116
 Alpha  occ. eigenvalues --   -0.38056  -0.37899  -0.37051  -0.36889
 Alpha virt. eigenvalues --    0.04509   0.04578   0.10551   0.10726   0.15888
 Alpha virt. eigenvalues --    0.16021   0.17897   0.22146   0.24926   0.25292
 Alpha virt. eigenvalues --    0.28026   0.28795   0.30103   0.31094   0.32738

 Mulliken charges:
               1
     1  C   -0.172483
     2  C   -0.217387
     3  C   -0.169168
     4  C    0.159516
     5  C   -0.169984
     6  C   -0.217965
     7  H    0.216792
     8  H    0.220522
     9  H    0.279609
    10  H    0.277417
    11  H    0.223140
    12  N    0.487905
    13  O   -0.459230
    14  O   -0.457529
    15  C   -0.170767
    16  C   -0.217926
    17  C   -0.169610
    18  C    0.159595
    19  C   -0.170692
    20  C   -0.215527
    21  H    0.224200
    22  H    0.225743
    23  H    0.278060
    24  H    0.272422
    25  H    0.213333
    26  N    0.488198
    27  O   -0.460345
    28  O   -0.457839
 Sum of Mulliken charges =  -0.00000

 Dipole moment (field-independent basis, Debye):
    X=             -1.4874    Y=              7.8078    Z=              1.5613  Tot=              8.1001
 Quadrupole moment (field-independent basis, Debye-Ang):
   XX=           -143.6094   YY=           -105.4115   ZZ=           -102.4231
   XY=             -4.9688   XZ=             11.4763   YZ=             -3.9245

 Normal termination of Gaussian 16 at Thu May  6 11:23:18 2021.
