 Gaussian 16, Revision A.03,
 Gaussian 16:  EM64L-G16RevA.03 25-Dec-2016

 -------------
 #p 6-31g* mp2
 -------------

 ------------------------------------------------------
 Input file generated by CHIRIPA (05-May-2021 14:55:24)
 ------------------------------------------------------
 Symbolic Z-matrix:
 Charge =  0 Multiplicity = 1

                         Standard orientation:
 ---------------------------------------------------------------------
 Center     Atomic      Atomic             Coordinates (Angstroms)
 Number     Number       Type             X           Y           Z
 ---------------------------------------------------------------------
      1          6           0       -4.728057    0.446856   -0.956682
      2          6           0       -3.860940    1.421275   -0.451572
      3          6           0       -2.673475    1.052479    0.187540
      4          6           0       -2.383132   -0.305932    0.304636
      5          6           0       -3.226692   -1.300327   -0.188187
      6          6           0       -4.408729   -0.908446   -0.823612
      7          1           0       -5.648400    0.742313   -1.451728
      8          1           0       -4.106362    2.474568   -0.553484
      9          1           0       -1.984208    1.786054    0.587785
     10          1           0       -2.954939   -2.342418   -0.071505
     11          1           0       -5.080260   -1.667371   -1.214923
     12          7           0       -1.128889   -0.708580    0.979284
     13          8           0       -0.895980   -1.911998    1.069704
     14          8           0       -0.402473    0.186867    1.404879
     15          6           0        3.771203   -0.240131   -0.523916
     16          6           0        3.345175   -1.650085   -0.113408
     17          6           0        4.267583   -2.733060   -0.673874
     18          1           0        3.791792   -0.174825   -1.620390
     19          1           0        4.799543   -0.060831   -0.180749
     20          1           0        2.317452   -1.826169   -0.456039
     21          1           0        3.325413   -1.711985    0.982216
     22          1           0        5.293613   -2.585309   -0.321689
     23          1           0        4.279925   -2.700142   -1.768116
     24          1           0        3.944659   -3.733121   -0.368167
     25          6           0        2.858804    0.853432    0.028694
     26          6           0        3.284832    2.263386   -0.381812
     27          6           0        2.362423    3.346361    0.178653
     28          1           0        1.830464    0.674132   -0.314472
     29          1           0        2.838215    0.788126    1.125168
     30          1           0        3.304594    2.325287   -1.477437
     31          1           0        4.312554    2.439471   -0.039182
     32          1           0        2.350082    3.313444    1.272895
     33          1           0        1.336394    3.198611   -0.173532
     34          1           0        2.685349    4.346422   -0.127055
 ---------------------------------------------------------------------

 SCF Done:  E(RHF) =  -669.535850042     A.U. after   15 cycles
 E2 =    -0.2091841517D+01 EUMP2 =    -0.67162769155944D+03

 The electronic state is 1-A.
 Alpha  occ. eigenvalues --  -20.60952 -20.60933 -15.85960 -11.31300 -11.27863
 Alpha  occ. eigenvalues --  -11.27859 -11.27600 -11.26872 -11.26862 -11.20696
 Alpha  occ. eigenvalues --  -11.20354 -11.20312 -11.20239 -11.20079 -11.19985
 Alpha  occ. eigenvalues --   -1.60000  -1.39556  -1.19469  -1.08871  -1.07282
 Alpha  occ. eigenvalues --   -1.04865  -1.02505  -0.95710  -0.94971  -0.86266
 Alpha  occ. eigenvalues --   -0.85999  -0.82544  -0.78543  -0.77600  -0.77017
 Alpha  occ. eigenvalues --   -0.72176  -0.71314  -0.70575  -0.65122  -0.64867
 Alpha  occ. eigenvalues --   -0.63933  -0.62212  -0.59925  -0.58334  -0.56557
 Alpha  occ. eigenvalues --   -0.55368  -0.54281  -0.53199  -0.52956  -0.51720
 Alpha  occ. eigenvalues --   -0.51394  -0.48960  -0.48950  -0.48937  -0.46884
 Alpha  occ. eigenvalues --   -0.45628  -0.45096  -0.44529  -0.44271  -0.42717
 Alpha  occ. eigenvalues --   -0.37447  -0.36468
 Alpha virt. eigenvalues --    0.04905   0.11182   0.16384   0.21183   0.23802
 Alpha virt. eigenvalues --    0.24997   0.26839   0.27560   0.28039   0.28898
 Alpha virt. eigenvalues --    0.29053   0.30882   0.31634   0.32613   0.32813

 Mulliken charges:
               1
     1  C   -0.170624
     2  C   -0.218535
     3  C   -0.171785
     4  C    0.158031
     5  C   -0.170907
     6  C   -0.218548
     7  H    0.226042
     8  H    0.224039
     9  H    0.276482
    10  H    0.275820
    11  H    0.223843
    12  N    0.487479
    13  O   -0.459526
    14  O   -0.457383
    15  C   -0.299463
    16  C   -0.297551
    17  C   -0.475568
    18  H    0.143133
    19  H    0.144806
    20  H    0.157155
    21  H    0.157737
    22  H    0.151699
    23  H    0.150432
    24  H    0.159638
    25  C   -0.295108
    26  C   -0.299885
    27  C   -0.472119
    28  H    0.154725
    29  H    0.158222
    30  H    0.146464
    31  H    0.148780
    32  H    0.158205
    33  H    0.149879
    34  H    0.154391
 Sum of Mulliken charges =  -0.00000

 Dipole moment (field-independent basis, Debye):
    X=             -4.6971    Y=              1.3196    Z=             -2.1843  Tot=              5.3456
 Quadrupole moment (field-independent basis, Debye-Ang):
   XX=            -75.0417   YY=            -92.5157   ZZ=            -96.4055
   XY=             -0.4242   XZ=              6.0621   YZ=              1.8031

 Normal termination of Gaussian 16 at Thu May  6 19:19:31 2021.
