 Gaussian 16, Revision A.03,
 Gaussian 16:  EM64L-G16RevA.03 25-Dec-2016

 -------------
 #p 6-31g* mp2
 -------------

 ------------------------------------------------------
 Input file generated by CHIRIPA (05-May-2021 14:57:27)
 ------------------------------------------------------
 Symbolic Z-matrix:
 Charge =  0 Multiplicity = 1

                         Standard orientation:
 ---------------------------------------------------------------------
 Center     Atomic      Atomic             Coordinates (Angstroms)
 Number     Number       Type             X           Y           Z
 ---------------------------------------------------------------------
      1          6           0        2.668997    2.392186   -0.482817
      2          6           0        1.804075    1.292958   -0.471409
      3          6           0        2.296964    0.003973   -0.247522
      4          6           0        3.666463   -0.150102   -0.037703
      5          6           0        4.553631    0.925163   -0.043121
      6          6           0        4.038600    2.205109   -0.269013
      7          1           0        2.277509    3.389990   -0.657516
      8          1           0        0.739968    1.435255   -0.637155
      9          1           0        1.649805   -0.864592   -0.233442
     10          1           0        5.609581    0.751821    0.125221
     11          1           0        4.712661    3.056941   -0.277323
     12          7           0        4.199982   -1.509908    0.200378
     13          8           0        5.410569   -1.619060    0.382598
     14          8           0        3.397467   -2.440825    0.200258
     15          6           0       -3.349704    2.409481    0.458821
     16          6           0       -2.237132    1.573840    0.601697
     17          6           0       -2.352269    0.196322    0.392568
     18          6           0       -3.600655   -0.314106    0.040023
     19          6           0       -4.727691    0.492474   -0.110010
     20          6           0       -4.589246    1.867086    0.104049
     21          1           0       -3.251209    3.478441    0.623192
     22          1           0       -1.273248    1.992299    0.877131
     23          1           0       -1.507326   -0.473534    0.496398
     24          1           0       -5.675481    0.046122   -0.385477
     25          1           0       -5.454999    2.513651   -0.007620
     26          7           0       -3.734882   -1.770884   -0.183983
     27          8           0       -4.845734   -2.195911   -0.493817
     28          8           0       -2.726696   -2.460098   -0.045482
 ---------------------------------------------------------------------

 SCF Done:  E(RHF) =  -868.336454178     A.U. after   16 cycles
 E2 =    -0.2600438587D+01 EUMP2 =    -0.87093689276568D+03

 The electronic state is 1-A.
 Alpha  occ. eigenvalues --  -20.61174 -20.61167 -20.60939 -20.60921 -15.86235
 Alpha  occ. eigenvalues --  -15.85994 -11.31804 -11.31556 -11.28482 -11.28369
 Alpha  occ. eigenvalues --  -11.28188 -11.28186 -11.28146 -11.27989 -11.27532
 Alpha  occ. eigenvalues --  -11.27400 -11.27285 -11.27189  -1.60246  -1.60007
 Alpha  occ. eigenvalues --   -1.39794  -1.39554  -1.20007  -1.19765  -1.09356
 Alpha  occ. eigenvalues --   -1.09129  -1.05461  -1.05202  -0.96156  -0.95925
 Alpha  occ. eigenvalues --   -0.86843  -0.86591  -0.83010  -0.82748  -0.78039
 Alpha  occ. eigenvalues --   -0.77739  -0.72445  -0.72206  -0.71575  -0.71336
 Alpha  occ. eigenvalues --   -0.71109  -0.70878  -0.65675  -0.65579  -0.65419
 Alpha  occ. eigenvalues --   -0.65130  -0.62927  -0.62407  -0.55934  -0.55710
 Alpha  occ. eigenvalues --   -0.53777  -0.53633  -0.53502  -0.53193  -0.49222
 Alpha  occ. eigenvalues --   -0.49193  -0.48986  -0.48949  -0.45155  -0.44916
 Alpha  occ. eigenvalues --   -0.37979  -0.37764  -0.37061  -0.36813
 Alpha virt. eigenvalues --    0.04515   0.04781   0.10556   0.10761   0.15782
 Alpha virt. eigenvalues --    0.16161   0.18876   0.22019   0.24767   0.26100
 Alpha virt. eigenvalues --    0.27911   0.29190   0.30115   0.31131   0.31886

 Mulliken charges:
               1
     1  C   -0.171505
     2  C   -0.226551
     3  C   -0.173369
     4  C    0.159329
     5  C   -0.169612
     6  C   -0.218276
     7  H    0.223822
     8  H    0.220836
     9  H    0.280043
    10  H    0.277505
    11  H    0.224581
    12  N    0.487689
    13  O   -0.459794
    14  O   -0.456103
    15  C   -0.170585
    16  C   -0.224208
    17  C   -0.173064
    18  C    0.159723
    19  C   -0.169171
    20  C   -0.218179
    21  H    0.226191
    22  H    0.220192
    23  H    0.274357
    24  H    0.278374
    25  H    0.225870
    26  N    0.487796
    27  O   -0.458126
    28  O   -0.457768
 Sum of Mulliken charges =  -0.00000

 Dipole moment (field-independent basis, Debye):
    X=             -1.4839    Y=              9.7732    Z=             -0.0553  Tot=              9.8853
 Quadrupole moment (field-independent basis, Debye-Ang):
   XX=           -111.2073   YY=           -109.6889   ZZ=           -106.1870
   XY=              0.4040   XZ=             -4.2824   YZ=             -0.0499

 Normal termination of Gaussian 16 at Thu May  6 16:32:14 2021.
