 Gaussian 16, Revision A.03,
 Gaussian 16:  EM64L-G16RevA.03 25-Dec-2016

 -------------
 #p 6-31g* mp2
 -------------

 ------------------------------------------------------
 Input file generated by CHIRIPA (05-May-2021 14:57:24)
 ------------------------------------------------------
 Symbolic Z-matrix:
 Charge =  0 Multiplicity = 1

                         Standard orientation:
 ---------------------------------------------------------------------
 Center     Atomic      Atomic             Coordinates (Angstroms)
 Number     Number       Type             X           Y           Z
 ---------------------------------------------------------------------
      1          6           0       -3.777069   -1.869688   -0.137967
      2          6           0       -2.661782   -1.767803   -0.975987
      3          6           0       -1.985951   -0.551741   -1.113797
      4          6           0       -2.454738    0.547205   -0.395573
      5          6           0       -3.562947    0.477447    0.447219
      6          6           0       -4.223305   -0.748714    0.569713
      7          1           0       -4.296060   -2.818277   -0.036862
      8          1           0       -2.312992   -2.636710   -1.526796
      9          1           0       -1.119905   -0.444848   -1.755635
     10          1           0       -3.887062    1.361069    0.983482
     11          1           0       -5.089176   -0.824903    1.221256
     12          7           0       -1.747457    1.839941   -0.533359
     13          8           0       -2.180364    2.793378    0.110213
     14          8           0       -0.773575    1.875273   -1.282320
     15          6           0        0.456899   -0.801739    1.667682
     16          6           0        1.243626    0.309113    1.989531
     17          6           0        2.417171    0.577922    1.278841
     18          6           0        2.775720   -0.288941    0.247686
     19          6           0        2.012989   -1.403770   -0.096821
     20          6           0        0.843409   -1.653135    0.627367
     21          1           0       -0.453200   -1.003004    2.225007
     22          1           0        0.945911    0.972038    2.796960
     23          1           0        3.044851    1.430795    1.506970
     24          1           0        2.335631   -2.046484   -0.906908
     25          1           0        0.234378   -2.516584    0.375210
     26          7           0        4.016001   -0.014658   -0.511836
     27          8           0        4.310045   -0.793666   -1.415894
     28          8           0        4.670604    0.974140   -0.188709
 ---------------------------------------------------------------------

 SCF Done:  E(RHF) =  -868.336645818     A.U. after   16 cycles
 E2 =    -0.2603541627D+01 EUMP2 =    -0.87094018744478D+03

 The electronic state is 1-A.
 Alpha  occ. eigenvalues --  -20.61285 -20.61245 -20.60482 -20.60463 -15.86326
 Alpha  occ. eigenvalues --  -15.85532 -11.31835 -11.30955 -11.28500 -11.28447
 Alpha  occ. eigenvalues --  -11.28278 -11.27604 -11.27509 -11.27497 -11.27490
 Alpha  occ. eigenvalues --  -11.27321 -11.26657 -11.26528  -1.60339  -1.59544
 Alpha  occ. eigenvalues --   -1.39888  -1.39099  -1.20088  -1.19145  -1.09436
 Alpha  occ. eigenvalues --   -1.08542  -1.05518  -1.04573  -0.96235  -0.95361
 Alpha  occ. eigenvalues --   -0.86884  -0.85976  -0.83067  -0.82201  -0.78080
 Alpha  occ. eigenvalues --   -0.77229  -0.72542  -0.71758  -0.71678  -0.71166
 Alpha  occ. eigenvalues --   -0.70854  -0.70276  -0.65723  -0.65496  -0.64816
 Alpha  occ. eigenvalues --   -0.64609  -0.62838  -0.61929  -0.55992  -0.55102
 Alpha  occ. eigenvalues --   -0.53999  -0.53593  -0.52747  -0.52652  -0.49318
 Alpha  occ. eigenvalues --   -0.49284  -0.48522  -0.48501  -0.45254  -0.44495
 Alpha  occ. eigenvalues --   -0.38279  -0.37567  -0.36730  -0.35888
 Alpha virt. eigenvalues --    0.04382   0.05335   0.10311   0.11667   0.15743
 Alpha virt. eigenvalues --    0.16850   0.20422   0.21727   0.26010   0.27603
 Alpha virt. eigenvalues --    0.27961   0.28379   0.29911   0.31270   0.31994

 Mulliken charges:
               1
     1  C   -0.172450
     2  C   -0.227656
     3  C   -0.164238
     4  C    0.157723
     5  C   -0.174277
     6  C   -0.221402
     7  H    0.227318
     8  H    0.223036
     9  H    0.279571
    10  H    0.276837
    11  H    0.225095
    12  N    0.488312
    13  O   -0.462261
    14  O   -0.454967
    15  C   -0.173873
    16  C   -0.218028
    17  C   -0.163396
    18  C    0.163192
    19  C   -0.174249
    20  C   -0.219803
    21  H    0.224675
    22  H    0.226024
    23  H    0.278191
    24  H    0.272344
    25  H    0.216652
    26  N    0.488542
    27  O   -0.462876
    28  O   -0.458035
 Sum of Mulliken charges =  -0.00000

 Dipole moment (field-independent basis, Debye):
    X=             -6.7827    Y=             -5.2519    Z=              3.1372  Tot=              9.1340
 Quadrupole moment (field-independent basis, Debye-Ang):
   XX=           -115.6007   YY=           -106.1861   ZZ=           -101.1606
   XY=              8.0599   XZ=              4.5045   YZ=              5.3199

 Normal termination of Gaussian 16 at Fri May  7 09:32:51 2021.
