 Gaussian 16, Revision A.03,
 Gaussian 16:  EM64L-G16RevA.03 25-Dec-2016

 -------------
 #p 6-31g* mp2
 -------------

 ------------------------------------------------------
 Input file generated by CHIRIPA (05-May-2021 14:57:23)
 ------------------------------------------------------
 Symbolic Z-matrix:
 Charge =  0 Multiplicity = 1

                         Standard orientation:
 ---------------------------------------------------------------------
 Center     Atomic      Atomic             Coordinates (Angstroms)
 Number     Number       Type             X           Y           Z
 ---------------------------------------------------------------------
      1          6           0       -1.399184   -1.503774    0.928485
      2          6           0       -2.411005   -1.131454    1.819617
      3          6           0       -3.559031   -0.480319    1.358523
      4          6           0       -3.662808   -0.215925   -0.006254
      5          6           0       -2.671996   -0.574278   -0.919032
      6          6           0       -1.532674   -1.224491   -0.435591
      7          1           0       -0.510750   -2.009233    1.295354
      8          1           0       -2.310037   -1.347067    2.879505
      9          1           0       -4.357605   -0.180964    2.026419
     10          1           0       -2.801124   -0.345833   -1.970011
     11          1           0       -0.748479   -1.512474   -1.129961
     12          7           0       -4.873565    0.472914   -0.506222
     13          8           0       -4.940950    0.694440   -1.713294
     14          8           0       -5.732246    0.778258    0.318442
     15          6           0        4.866758   -1.738996   -0.419133
     16          6           0        3.488874   -1.780756   -0.656229
     17          6           0        2.701422   -0.640760   -0.469478
     18          6           0        3.327576    0.529424   -0.042988
     19          6           0        4.698011    0.602698    0.201614
     20          6           0        5.465872   -0.549498    0.008278
     21          1           0        5.470860   -2.629311   -0.566764
     22          1           0        3.020890   -2.703153   -0.988222
     23          1           0        1.632607   -0.645147   -0.645638
     24          1           0        5.136024    1.536751    0.531928
     25          1           0        6.535733   -0.514138    0.193184
     26          7           0        2.504306    1.742745    0.158202
     27          8           0        3.080008    2.761384    0.534473
     28          8           0        1.298914    1.652134   -0.064187
 ---------------------------------------------------------------------

 SCF Done:  E(RHF) =  -868.336524477     A.U. after   16 cycles
 E2 =    -0.2600490867D+01 EUMP2 =    -0.87093701534326D+03

 The electronic state is 1-A.
 Alpha  occ. eigenvalues --  -20.61306 -20.61301 -20.60456 -20.60451 -15.86363
 Alpha  occ. eigenvalues --  -15.85514 -11.31883 -11.30909 -11.28542 -11.28404
 Alpha  occ. eigenvalues --  -11.28183 -11.27551 -11.27535 -11.27498 -11.27437
 Alpha  occ. eigenvalues --  -11.27360 -11.26674 -11.26525  -1.60381  -1.59528
 Alpha  occ. eigenvalues --   -1.39930  -1.39082  -1.20057  -1.19108  -1.09411
 Alpha  occ. eigenvalues --   -1.08521  -1.05495  -1.04537  -0.96229  -0.95343
 Alpha  occ. eigenvalues --   -0.86877  -0.85963  -0.83063  -0.82183  -0.78105
 Alpha  occ. eigenvalues --   -0.77206  -0.72573  -0.71741  -0.71711  -0.71164
 Alpha  occ. eigenvalues --   -0.70844  -0.70274  -0.65706  -0.65519  -0.64796
 Alpha  occ. eigenvalues --   -0.64616  -0.62851  -0.61885  -0.55950  -0.55111
 Alpha  occ. eigenvalues --   -0.53796  -0.53607  -0.52803  -0.52662  -0.49345
 Alpha  occ. eigenvalues --   -0.49326  -0.48501  -0.48484  -0.45302  -0.44481
 Alpha  occ. eigenvalues --   -0.38017  -0.37135  -0.37055  -0.36093
 Alpha virt. eigenvalues --    0.04435   0.05369   0.10537   0.11386   0.15920
 Alpha virt. eigenvalues --    0.16826   0.19060   0.22009   0.25212   0.27208
 Alpha virt. eigenvalues --    0.28166   0.29350   0.30265   0.30940   0.31961

 Mulliken charges:
               1
     1  C   -0.166026
     2  C   -0.217127
     3  C   -0.168795
     4  C    0.159328
     5  C   -0.166319
     6  C   -0.211977
     7  H    0.219727
     8  H    0.222954
     9  H    0.275841
    10  H    0.276069
    11  H    0.210828
    12  N    0.488321
    13  O   -0.460235
    14  O   -0.460609
    15  C   -0.170483
    16  C   -0.220302
    17  C   -0.178813
    18  C    0.158920
    19  C   -0.169613
    20  C   -0.218237
    21  H    0.227601
    22  H    0.220782
    23  H    0.274152
    24  H    0.278053
    25  H    0.226112
    26  N    0.486779
    27  O   -0.457658
    28  O   -0.459273
 Sum of Mulliken charges =  -0.00000

 Dipole moment (field-independent basis, Debye):
    X=              7.2303    Y=             -6.5186    Z=              1.1228  Tot=              9.7995
 Quadrupole moment (field-independent basis, Debye-Ang):
   XX=           -112.2683   YY=           -108.4371   ZZ=           -100.9232
   XY=             -2.5624   XZ=             -9.6532   YZ=              0.4354

 Normal termination of Gaussian 16 at Wed May  5 19:25:54 2021.
