 Gaussian 16, Revision A.03,
 Gaussian 16:  EM64L-G16RevA.03 25-Dec-2016

 -------------
 #p 6-31g* mp2
 -------------

 ------------------------------------------------------
 Input file generated by CHIRIPA (05-May-2021 14:57:25)
 ------------------------------------------------------
 Symbolic Z-matrix:
 Charge =  0 Multiplicity = 1

                         Standard orientation:
 ---------------------------------------------------------------------
 Center     Atomic      Atomic             Coordinates (Angstroms)
 Number     Number       Type             X           Y           Z
 ---------------------------------------------------------------------
      1          6           0        1.484673    2.514849   -0.042534
      2          6           0        0.928659    1.344911   -0.570374
      3          6           0        1.690826    0.176753   -0.665545
      4          6           0        3.011677    0.214296   -0.221436
      5          6           0        3.594136    1.364286    0.309182
      6          6           0        2.813295    2.520792    0.394788
      7          1           0        0.885350    3.417776    0.027681
      8          1           0       -0.102898    1.337371   -0.910781
      9          1           0        1.285516   -0.742782   -1.070018
     10          1           0        4.625258    1.340984    0.640336
     11          1           0        3.247737    3.427933    0.805152
     12          7           0        3.828433   -1.016213   -0.317125
     13          8           0        4.989729   -0.957119    0.081041
     14          8           0        3.291846   -2.016480   -0.788482
     15          6           0       -4.707028    0.950746   -0.864925
     16          6           0       -4.278211    1.248853    0.432677
     17          6           0       -3.265037    0.497665    1.035790
     18          6           0       -2.700151   -0.549337    0.309165
     19          6           0       -3.105704   -0.870964   -0.985197
     20          6           0       -4.120440   -0.106347   -1.568480
     21          1           0       -5.494692    1.539503   -1.325735
     22          1           0       -4.731955    2.069231    0.981439
     23          1           0       -2.913922    0.706728    2.038998
     24          1           0       -2.634340   -1.694806   -1.507229
     25          1           0       -4.451460   -0.340137   -2.576355
     26          7           0       -1.626723   -1.351694    0.937157
     27          8           0       -1.145141   -2.268997    0.275892
     28          8           0       -1.287277   -1.048086    2.078751
 ---------------------------------------------------------------------

 SCF Done:  E(RHF) =  -868.337543290     A.U. after   16 cycles
 E2 =    -0.2601039301D+01 EUMP2 =    -0.87093858259097D+03

 The electronic state is 1-A.
 Alpha  occ. eigenvalues --  -20.61371 -20.61344 -20.60028 -20.59987 -15.86397
 Alpha  occ. eigenvalues --  -15.85069 -11.31914 -11.30525 -11.28464 -11.28459
 Alpha  occ. eigenvalues --  -11.28189 -11.27483 -11.27468 -11.27180 -11.27076
 Alpha  occ. eigenvalues --  -11.27004 -11.26227 -11.26214  -1.60426  -1.59083
 Alpha  occ. eigenvalues --   -1.39974  -1.38632  -1.20084  -1.18742  -1.09440
 Alpha  occ. eigenvalues --   -1.08137  -1.05480  -1.04178  -0.96247  -0.94946
 Alpha  occ. eigenvalues --   -0.86864  -0.85574  -0.83061  -0.81790  -0.78104
 Alpha  occ. eigenvalues --   -0.76797  -0.72590  -0.71782  -0.71291  -0.71137
 Alpha  occ. eigenvalues --   -0.70400  -0.69878  -0.65705  -0.65449  -0.64415
 Alpha  occ. eigenvalues --   -0.64218  -0.62805  -0.61512  -0.55941  -0.54730
 Alpha  occ. eigenvalues --   -0.53851  -0.53544  -0.52483  -0.52267  -0.49366
 Alpha  occ. eigenvalues --   -0.49356  -0.48069  -0.48029  -0.45329  -0.44017
 Alpha  occ. eigenvalues --   -0.38069  -0.37107  -0.36748  -0.35768
 Alpha virt. eigenvalues --    0.04387   0.05753   0.10528   0.11887   0.15838
 Alpha virt. eigenvalues --    0.17177   0.20786   0.21797   0.26694   0.27313
 Alpha virt. eigenvalues --    0.27715   0.28794   0.30474   0.31198   0.31923

 Mulliken charges:
               1
     1  C   -0.169925
     2  C   -0.224289
     3  C   -0.167990
     4  C    0.158884
     5  C   -0.169934
     6  C   -0.218783
     7  H    0.220659
     8  H    0.218708
     9  H    0.284494
    10  H    0.274456
    11  H    0.220625
    12  N    0.488097
    13  O   -0.463932
    14  O   -0.455296
    15  C   -0.171660
    16  C   -0.219604
    17  C   -0.173645
    18  C    0.154747
    19  C   -0.176543
    20  C   -0.218750
    21  H    0.227838
    22  H    0.225098
    23  H    0.277563
    24  H    0.278419
    25  H    0.226450
    26  N    0.487196
    27  O   -0.457980
    28  O   -0.454906
 Sum of Mulliken charges =  -0.00000

 Dipole moment (field-independent basis, Debye):
    X=             -6.8186    Y=              6.9312    Z=             -1.8110  Tot=              9.8901
 Quadrupole moment (field-independent basis, Debye-Ang):
   XX=            -99.3369   YY=           -104.4459   ZZ=           -102.9079
   XY=              8.4822   XZ=              8.1038   YZ=              5.0833

 Normal termination of Gaussian 16 at Fri May  7 06:33:45 2021.
