 Gaussian 16, Revision A.03,
 Gaussian 16:  EM64L-G16RevA.03 25-Dec-2016

 -------------
 #p 6-31g* mp2
 -------------

 ------------------------------------------------------
 Input file generated by CHIRIPA (05-May-2021 14:55:25)
 ------------------------------------------------------
 Symbolic Z-matrix:
 Charge =  0 Multiplicity = 1

                         Standard orientation:
 ---------------------------------------------------------------------
 Center     Atomic      Atomic             Coordinates (Angstroms)
 Number     Number       Type             X           Y           Z
 ---------------------------------------------------------------------
      1          6           0        1.679029    2.504673    0.057110
      2          6           0        1.345953    1.759194    1.192822
      3          6           0        1.519798    0.372074    1.207762
      4          6           0        2.031394   -0.239789    0.064441
      5          6           0        2.372602    0.475449   -1.082425
      6          6           0        2.190389    1.861555   -1.074893
      7          1           0        1.540732    3.581828    0.054233
      8          1           0        0.948628    2.255976    2.073382
      9          1           0        1.270196   -0.229316    2.073467
     10          1           0        2.766613   -0.047924   -1.945127
     11          1           0        2.449926    2.437960   -1.958320
     12          7           0        2.219865   -1.707735    0.068362
     13          8           0        2.672322   -2.223016   -0.951641
     14          8           0        1.911562   -2.315233    1.091363
     15          6           0       -2.923715   -0.631625   -0.318222
     16          6           0       -2.312855   -1.924614    0.223088
     17          6           0       -3.050602   -3.174059   -0.259000
     18          1           0       -3.978130   -0.576591   -0.014700
     19          1           0       -2.915819   -0.662327   -1.416580
     20          1           0       -2.320636   -1.890887    1.320092
     21          1           0       -1.259720   -1.976485   -0.081597
     22          1           0       -3.031352   -3.235152   -1.351932
     23          1           0       -4.098297   -3.149068    0.057721
     24          1           0       -2.597287   -4.086902    0.139851
     25          6           0       -2.197133    0.626132    0.154908
     26          6           0       -2.807993    1.919121   -0.386402
     27          6           0       -2.070246    3.168565    0.095687
     28          1           0       -2.205029    0.656833    1.253266
     29          1           0       -1.142718    0.571097   -0.148614
     30          1           0       -3.861128    1.970992   -0.081717
     31          1           0       -2.800212    1.885394   -1.483406
     32          1           0       -1.022552    3.143575   -0.221035
     33          1           0       -2.089496    3.229658    1.188618
     34          1           0       -2.523562    4.081409   -0.303165
 ---------------------------------------------------------------------

 SCF Done:  E(RHF) =  -669.533934789     A.U. after   15 cycles
 E2 =    -0.2095732052D+01 EUMP2 =    -0.67162966684120D+03

 The electronic state is 1-A.
 Alpha  occ. eigenvalues --  -20.60882 -20.60862 -15.85920 -11.31289 -11.27870
 Alpha  occ. eigenvalues --  -11.27808 -11.27565 -11.26882 -11.26804 -11.21863
 Alpha  occ. eigenvalues --  -11.21544 -11.21407 -11.21320 -11.21252 -11.20686
 Alpha  occ. eigenvalues --   -1.59946  -1.39497  -1.19475  -1.08872  -1.08434
 Alpha  occ. eigenvalues --   -1.04859  -1.03538  -0.96034  -0.95677  -0.87046
 Alpha  occ. eigenvalues --   -0.86251  -0.82516  -0.79640  -0.78232  -0.77556
 Alpha  occ. eigenvalues --   -0.72134  -0.71270  -0.70576  -0.65131  -0.65068
 Alpha  occ. eigenvalues --   -0.64848  -0.62195  -0.60962  -0.59411  -0.57604
 Alpha  occ. eigenvalues --   -0.55494  -0.55201  -0.53337  -0.52938  -0.52688
 Alpha  occ. eigenvalues --   -0.52456  -0.49992  -0.48897  -0.48891  -0.47914
 Alpha  occ. eigenvalues --   -0.46642  -0.45758  -0.45633  -0.44848  -0.43773
 Alpha  occ. eigenvalues --   -0.37375  -0.36380
 Alpha virt. eigenvalues --    0.04919   0.11119   0.16280   0.20884   0.22940
 Alpha virt. eigenvalues --    0.24301   0.26010   0.26765   0.27101   0.28208
 Alpha virt. eigenvalues --    0.28936   0.30234   0.31553   0.31824   0.32158

 Mulliken charges:
               1
     1  C   -0.173887
     2  C   -0.211795
     3  C   -0.171682
     4  C    0.158476
     5  C   -0.172114
     6  C   -0.219489
     7  H    0.227935
     8  H    0.225157
     9  H    0.276289
    10  H    0.276012
    11  H    0.224204
    12  N    0.488109
    13  O   -0.460118
    14  O   -0.459213
    15  C   -0.298430
    16  C   -0.299107
    17  C   -0.476052
    18  H    0.148397
    19  H    0.149179
    20  H    0.150943
    21  H    0.154472
    22  H    0.154920
    23  H    0.152510
    24  H    0.165897
    25  C   -0.303004
    26  C   -0.297481
    27  C   -0.480788
    28  H    0.143303
    29  H    0.158795
    30  H    0.152635
    31  H    0.152144
    32  H    0.154632
    33  H    0.149822
    34  H    0.159329
 Sum of Mulliken charges =  -0.00000

 Dipole moment (field-independent basis, Debye):
    X=             -0.5262    Y=              5.0494    Z=             -0.0093  Tot=              5.0767
 Quadrupole moment (field-independent basis, Debye-Ang):
   XX=            -97.6972   YY=            -98.9313   ZZ=            -89.8734
   XY=             10.7479   XZ=             -2.4911   YZ=             -0.1701

 Normal termination of Gaussian 16 at Wed May  5 16:10:52 2021.
