 Gaussian 16, Revision A.03,
 Gaussian 16:  EM64L-G16RevA.03 25-Dec-2016

 -------------
 #p 6-31g* mp2
 -------------

 ------------------------------------------------------
 Input file generated by CHIRIPA (05-May-2021 14:55:24)
 ------------------------------------------------------
 Symbolic Z-matrix:
 Charge =  0 Multiplicity = 1

                         Standard orientation:
 ---------------------------------------------------------------------
 Center     Atomic      Atomic             Coordinates (Angstroms)
 Number     Number       Type             X           Y           Z
 ---------------------------------------------------------------------
      1          6           0        3.180628    2.599133    0.236584
      2          6           0        4.408415    1.980443   -0.020870
      3          6           0        4.472693    0.606128   -0.269213
      4          6           0        3.284285   -0.122358   -0.252325
      5          6           0        2.045753    0.465150    0.000977
      6          6           0        2.005287    1.840848    0.246669
      7          1           0        3.139944    3.667271    0.428473
      8          1           0        5.322807    2.566838   -0.029334
      9          1           0        5.409742    0.101651   -0.471354
     10          1           0        1.151186   -0.145723    0.002749
     11          1           0        1.050361    2.318657    0.446315
     12          7           0        3.339729   -1.578016   -0.513831
     13          8           0        2.278434   -2.197588   -0.493325
     14          8           0        4.443431   -2.071826   -0.734353
     15          6           0       -4.857699    0.213616    0.178526
     16          6           0       -5.461496    0.040193   -1.215512
     17          6           0       -6.792711    0.774389   -1.378665
     18          1           0       -5.573029   -0.150103    0.928829
     19          1           0       -4.713591    1.284627    0.377431
     20          1           0       -5.603138   -1.030245   -1.412276
     21          1           0       -4.744568    0.404190   -1.962596
     22          1           0       -6.663750    1.848224   -1.208820
     23          1           0       -7.527200    0.405638   -0.655373
     24          1           0       -7.206572    0.636979   -2.382506
     25          6           0       -3.526679   -0.514550    0.357093
     26          6           0       -2.922881   -0.341126    1.751130
     27          6           0       -1.591666   -1.075322    1.914284
     28          1           0       -3.670786   -1.585560    0.158187
     29          1           0       -2.811348   -0.150830   -0.393210
     30          1           0       -3.639811   -0.705123    2.498214
     31          1           0       -2.781240    0.729312    1.947894
     32          1           0       -0.857178   -0.706572    1.190991
     33          1           0       -1.720627   -2.149157    1.744439
     34          1           0       -1.177805   -0.937912    2.918125
 ---------------------------------------------------------------------

 SCF Done:  E(RHF) =  -669.535313336     A.U. after   15 cycles
 E2 =    -0.2091027811D+01 EUMP2 =    -0.67162634114690D+03

 The electronic state is 1-A.
 Alpha  occ. eigenvalues --  -20.60736 -20.60729 -15.85788 -11.31166 -11.27741
 Alpha  occ. eigenvalues --  -11.27730 -11.27492 -11.26765 -11.26755 -11.21881
 Alpha  occ. eigenvalues --  -11.21738 -11.21612 -11.21549 -11.21347 -11.21198
 Alpha  occ. eigenvalues --   -1.59810  -1.39363  -1.19344  -1.08738  -1.08640
 Alpha  occ. eigenvalues --   -1.04753  -1.03737  -0.96182  -0.95570  -0.87195
 Alpha  occ. eigenvalues --   -0.86149  -0.82402  -0.79793  -0.78443  -0.77446
 Alpha  occ. eigenvalues --   -0.72008  -0.71133  -0.70465  -0.65286  -0.64998
 Alpha  occ. eigenvalues --   -0.64762  -0.62146  -0.61120  -0.59543  -0.57783
 Alpha  occ. eigenvalues --   -0.55522  -0.55221  -0.53080  -0.52917  -0.52851
 Alpha  occ. eigenvalues --   -0.52538  -0.50119  -0.48768  -0.48761  -0.48101
 Alpha  occ. eigenvalues --   -0.46836  -0.45984  -0.45914  -0.44765  -0.43985
 Alpha  occ. eigenvalues --   -0.37328  -0.36352
 Alpha virt. eigenvalues --    0.05083   0.11289   0.16575   0.20054   0.22797
 Alpha virt. eigenvalues --    0.23832   0.25491   0.26776   0.27490   0.27831
 Alpha virt. eigenvalues --    0.29080   0.30513   0.31456   0.31622   0.31904

 Mulliken charges:
               1
     1  C   -0.170746
     2  C   -0.218886
     3  C   -0.170222
     4  C    0.159005
     5  C   -0.179308
     6  C   -0.221403
     7  H    0.225499
     8  H    0.223414
     9  H    0.275624
    10  H    0.287481
    11  H    0.223016
    12  N    0.486843
    13  O   -0.459869
    14  O   -0.460601
    15  C   -0.298214
    16  C   -0.299819
    17  C   -0.475776
    18  H    0.150703
    19  H    0.147271
    20  H    0.153898
    21  H    0.151583
    22  H    0.154169
    23  H    0.155675
    24  H    0.161107
    25  C   -0.297697
    26  C   -0.300435
    27  C   -0.476599
    28  H    0.153882
    29  H    0.146127
    30  H    0.154425
    31  H    0.146983
    32  H    0.146767
    33  H    0.164522
    34  H    0.161580
 Sum of Mulliken charges =  -0.00000

 Dipole moment (field-independent basis, Debye):
    X=             -0.2770    Y=              5.0252    Z=              0.9486  Tot=              5.1215
 Quadrupole moment (field-independent basis, Debye-Ang):
   XX=            -91.4614   YY=            -95.9854   ZZ=            -95.9687
   XY=             18.6191   XZ=              2.0045   YZ=             -1.7172

 Normal termination of Gaussian 16 at Wed May  5 16:05:17 2021.
