 Gaussian 16, Revision A.03,
 Gaussian 16:  EM64L-G16RevA.03 25-Dec-2016

 -------------
 #p 6-31g* mp2
 -------------

 ------------------------------------------------------
 Input file generated by CHIRIPA (05-May-2021 14:51:13)
 ------------------------------------------------------
 Symbolic Z-matrix:
 Charge =  0 Multiplicity = 1

                         Standard orientation:
 ---------------------------------------------------------------------
 Center     Atomic      Atomic             Coordinates (Angstroms)
 Number     Number       Type             X           Y           Z
 ---------------------------------------------------------------------
      1          6           0        3.318679    0.907140   -0.307292
      2          6           0        2.206077    1.952718   -0.224412
      3          6           0        2.743116    3.381027   -0.127888
      4          1           0        3.965372    0.998319    0.576121
      5          1           0        3.950130    1.122224   -1.180448
      6          1           0        1.576093    1.734915    0.647538
      7          1           0        1.561846    1.858913   -1.108031
      8          1           0        3.355014    3.622488   -1.003033
      9          1           0        3.369342    3.497786    0.762511
     10          1           0        1.930856    4.112261   -0.069648
     11          6           0        2.797579   -0.525613   -0.404259
     12          6           0        3.910181   -1.571191   -0.487139
     13          6           0        3.373142   -2.999500   -0.583664
     14          1           0        2.166128   -0.740697    0.468897
     15          1           0        2.150886   -0.616792   -1.287673
     16          1           0        4.554412   -1.477385    0.396480
     17          1           0        4.540165   -1.353388   -1.359089
     18          1           0        2.746916   -3.116259   -1.474062
     19          1           0        2.761244   -3.240961    0.291482
     20          1           0        4.185402   -3.730734   -0.641903
     21          6           0       -3.410350   -0.195452   -0.321979
     22          6           0       -4.913557    0.067480   -0.225971
     23          6           0       -5.604181    0.054959   -1.590036
     24          1           0       -2.952925    0.561995   -0.973118
     25          1           0       -3.245415   -1.166736   -0.808601
     26          1           0       -5.075636    1.037350    0.261575
     27          1           0       -5.367427   -0.690568    0.425168
     28          1           0       -5.471963   -0.915179   -2.079886
     29          1           0       -5.178515    0.822555   -2.244410
     30          1           0       -6.678091    0.245015   -1.498066
     31          6           0       -2.705909   -0.186074    1.033530
     32          6           0       -1.202700   -0.449008    0.937522
     33          6           0       -0.512076   -0.436485    2.301587
     34          1           0       -2.870844    0.785208    1.520152
     35          1           0       -3.163333   -0.943522    1.684669
     36          1           0       -0.748832    0.309040    0.286383
     37          1           0       -1.040621   -1.418877    0.449976
     38          1           0       -0.937743   -1.204083    2.955961
     39          1           0       -0.644296    0.533651    2.791436
     40          1           0        0.561833   -0.626542    2.209617
 ---------------------------------------------------------------------

 SCF Done:  E(RHF) =  -470.732984709     A.U. after   11 cycles
 E2 =    -0.1583859761D+01 EUMP2 =    -0.47231684446961D+03

 The electronic state is 1-A.
 Alpha  occ. eigenvalues --  -11.21609 -11.21596 -11.21591 -11.21539 -11.21397
 Alpha  occ. eigenvalues --  -11.21385 -11.21327 -11.21325 -11.21091 -11.21087
 Alpha  occ. eigenvalues --  -11.21072 -11.21065  -1.08456  -1.08389  -1.03541
 Alpha  occ. eigenvalues --   -1.03515  -0.96009  -0.95955  -0.87013  -0.86983
 Alpha  occ. eigenvalues --   -0.79622  -0.79559  -0.78344  -0.78127  -0.65114
 Alpha  occ. eigenvalues --   -0.65017  -0.61004  -0.60852  -0.59378  -0.59342
 Alpha  occ. eigenvalues --   -0.57716  -0.57483  -0.55280  -0.55257  -0.52736
 Alpha  occ. eigenvalues --   -0.52652  -0.52465  -0.52333  -0.49934  -0.49905
 Alpha  occ. eigenvalues --   -0.48005  -0.47837  -0.46649  -0.46594  -0.45936
 Alpha  occ. eigenvalues --   -0.45714  -0.45673  -0.45503  -0.43787  -0.43757
 Alpha virt. eigenvalues --    0.20684   0.23108   0.23888   0.24101   0.25813
 Alpha virt. eigenvalues --    0.26338   0.26896   0.27872   0.28100   0.29393
 Alpha virt. eigenvalues --    0.30315   0.31336   0.31641   0.31948   0.32343

 Mulliken charges:
               1
     1  C   -0.297736
     2  C   -0.304495
     3  C   -0.475546
     4  H    0.149323
     5  H    0.149527
     6  H    0.157206
     7  H    0.151724
     8  H    0.155258
     9  H    0.155324
    10  H    0.159934
    11  C   -0.306903
    12  C   -0.299223
    13  C   -0.475682
    14  H    0.158253
    15  H    0.150173
    16  H    0.151667
    17  H    0.151932
    18  H    0.155240
    19  H    0.154898
    20  H    0.160270
    21  C   -0.298225
    22  C   -0.299627
    23  C   -0.475697
    24  H    0.149587
    25  H    0.149529
    26  H    0.151885
    27  H    0.151931
    28  H    0.155160
    29  H    0.155105
    30  H    0.160219
    31  C   -0.298308
    32  C   -0.303292
    33  C   -0.480867
    34  H    0.149278
    35  H    0.149408
    36  H    0.157342
    37  H    0.152193
    38  H    0.155399
    39  H    0.154937
    40  H    0.162897
 Sum of Mulliken charges =  -0.00000

 Dipole moment (field-independent basis, Debye):
    X=              0.0071    Y=              0.0028    Z=             -0.0069  Tot=              0.0103
 Quadrupole moment (field-independent basis, Debye-Ang):
   XX=            -85.3199   YY=            -84.9700   ZZ=            -84.5987
   XY=             -0.0576   XZ=             -0.5784   YZ=             -0.2187

 Normal termination of Gaussian 16 at Wed May  5 21:36:26 2021.
