 Gaussian 16, Revision A.03,
 Gaussian 16:  EM64L-G16RevA.03 25-Dec-2016

 -------------
 #p 6-31g* mp2
 -------------

 ------------------------------------------------------
 Input file generated by CHIRIPA (05-May-2021 14:53:14)
 ------------------------------------------------------
 Symbolic Z-matrix:
 Charge =  0 Multiplicity = 1

                         Standard orientation:
 ---------------------------------------------------------------------
 Center     Atomic      Atomic             Coordinates (Angstroms)
 Number     Number       Type             X           Y           Z
 ---------------------------------------------------------------------
      1          6           0        3.747228    0.644870   -0.302274
      2          6           0        3.541459    2.033856    0.303004
      3          6           0        2.425400    2.819570   -0.386096
      4          1           0        3.976056    0.748178   -1.371811
      5          1           0        2.806367    0.081034   -0.236968
      6          1           0        4.482810    2.594415    0.237828
      7          1           0        3.313283    1.927240    1.371267
      8          1           0        1.473399    2.284426   -0.309185
      9          1           0        2.649571    2.955392   -1.449064
     10          1           0        2.295358    3.809428    0.062381
     11          6           0        4.859611   -0.152806    0.375992
     12          6           0        5.065380   -1.541792   -0.229286
     13          6           0        6.181440   -2.327506    0.459814
     14          1           0        5.800472    0.411030    0.310686
     15          1           0        4.630783   -0.256114    1.445529
     16          1           0        5.293556   -1.435176   -1.297549
     17          1           0        4.124029   -2.102351   -0.164110
     18          1           0        5.957269   -2.463328    1.522782
     19          1           0        7.133441   -1.792362    0.382903
     20          1           0        6.311482   -3.317364    0.011337
     21          6           0       -0.883119    0.131535   -0.369425
     22          6           0       -1.683680    1.211780    0.016184
     23          6           0       -3.058334    1.043990    0.207806
     24          6           0       -3.601700   -0.223511    0.004135
     25          6           0       -2.830479   -1.319328   -0.380174
     26          6           0       -1.458060   -1.128350   -0.566027
     27          1           0        0.183877    0.270885   -0.516041
     28          1           0       -1.239897    2.191357    0.169588
     29          1           0       -3.701394    1.863037    0.506229
     30          1           0       -3.301576   -2.283883   -0.525501
     31          1           0       -0.838775   -1.969090   -0.865507
     32          7           0       -5.055802   -0.413417    0.203943
     33          8           0       -5.510267   -1.540164    0.018096
     34          8           0       -5.713528    0.568079    0.542615
 ---------------------------------------------------------------------

 SCF Done:  E(RHF) =  -669.535160306     A.U. after   15 cycles
 E2 =    -0.2091781614D+01 EUMP2 =    -0.67162694191991D+03

 The electronic state is 1-A.
 Alpha  occ. eigenvalues --  -20.60724 -20.60719 -15.85778 -11.31135 -11.27706
 Alpha  occ. eigenvalues --  -11.27702 -11.27414 -11.26717 -11.26699 -11.22699
 Alpha  occ. eigenvalues --  -11.22542 -11.22394 -11.22392 -11.22252 -11.21701
 Alpha  occ. eigenvalues --   -1.59800  -1.39354  -1.19307  -1.09429  -1.08703
 Alpha  occ. eigenvalues --   -1.04711  -1.04498  -0.96965  -0.95543  -0.87979
 Alpha  occ. eigenvalues --   -0.86109  -0.82378  -0.80571  -0.79229  -0.77421
 Alpha  occ. eigenvalues --   -0.71996  -0.71123  -0.70457  -0.66061  -0.64962
 Alpha  occ. eigenvalues --   -0.64724  -0.62093  -0.61857  -0.60340  -0.58559
 Alpha  occ. eigenvalues --   -0.56277  -0.55228  -0.53630  -0.53386  -0.53038
 Alpha  occ. eigenvalues --   -0.52798  -0.50909  -0.48872  -0.48754  -0.48750
 Alpha  occ. eigenvalues --   -0.47592  -0.46760  -0.46666  -0.44761  -0.44751
 Alpha  occ. eigenvalues --   -0.37285  -0.36316
 Alpha virt. eigenvalues --    0.05112   0.11337   0.16593   0.18750   0.22435
 Alpha virt. eigenvalues --    0.23733   0.24772   0.25475   0.26326   0.27930
 Alpha virt. eigenvalues --    0.29188   0.29812   0.30860   0.31011   0.31340

 Mulliken charges:
               1
     1  C   -0.301693
     2  C   -0.300865
     3  C   -0.480413
     4  H    0.152644
     5  H    0.141810
     6  H    0.157474
     7  H    0.154636
     8  H    0.144854
     9  H    0.160351
    10  H    0.165522
    11  C   -0.298779
    12  C   -0.299898
    13  C   -0.476300
    14  H    0.152961
    15  H    0.151767
    16  H    0.153120
    17  H    0.149267
    18  H    0.156504
    19  H    0.156906
    20  H    0.162157
    21  C   -0.179176
    22  C   -0.222752
    23  C   -0.170507
    24  C    0.158146
    25  C   -0.170722
    26  C   -0.220263
    27  H    0.236733
    28  H    0.225446
    29  H    0.275473
    30  H    0.275379
    31  H    0.223331
    32  N    0.487971
    33  O   -0.460551
    34  O   -0.460534
 Sum of Mulliken charges =  -0.00000

 Dipole moment (field-independent basis, Debye):
    X=              5.4351    Y=              0.7232    Z=             -0.6845  Tot=              5.5256
 Quadrupole moment (field-independent basis, Debye-Ang):
   XX=           -131.0972   YY=            -90.3653   ZZ=            -94.9945
   XY=             -3.0964   XZ=              1.7478   YZ=              1.5246

 Normal termination of Gaussian 16 at Thu May  6 02:38:41 2021.
