 Gaussian 16, Revision A.03,
 Gaussian 16:  EM64L-G16RevA.03 25-Dec-2016

 -------------
 #p 6-31g* mp2
 -------------

 ------------------------------------------------------
 Input file generated by CHIRIPA (05-May-2021 14:53:11)
 ------------------------------------------------------
 Symbolic Z-matrix:
 Charge =  0 Multiplicity = 1

                         Standard orientation:
 ---------------------------------------------------------------------
 Center     Atomic      Atomic             Coordinates (Angstroms)
 Number     Number       Type             X           Y           Z
 ---------------------------------------------------------------------
      1          6           0       -2.681386    1.168143   -0.185725
      2          6           0       -1.501771    2.100612    0.091754
      3          6           0       -1.857021    3.575673   -0.097417
      4          1           0       -3.036878    1.332436   -1.212164
      5          1           0       -3.514323    1.433925    0.479837
      6          1           0       -0.670825    1.832254   -0.573175
      7          1           0       -1.148924    1.933944    1.117589
      8          1           0       -2.669488    3.865764    0.576634
      9          1           0       -2.188673    3.763496   -1.123736
     10          1           0       -0.999392    4.224460    0.106074
     11          6           0       -2.341869   -0.309784   -0.000830
     12          6           0       -3.521484   -1.242253   -0.278308
     13          6           0       -3.166235   -2.717314   -0.089137
     14          1           0       -1.508932   -0.575566   -0.666391
     15          1           0       -1.986377   -0.474077    1.025610
     16          1           0       -3.874331   -1.075585   -1.304143
     17          1           0       -4.352430   -0.973895    0.386620
     18          1           0       -2.834582   -2.905137    0.937181
     19          1           0       -2.353767   -3.007405   -0.763189
     20          1           0       -4.023863   -3.366101   -0.292629
     21          6           0        1.523143   -2.818851    0.144262
     22          6           0        2.061893   -2.236066   -1.007532
     23          6           0        2.309305   -0.861017   -1.058304
     24          6           0        2.004657   -0.095196    0.065971
     25          6           0        1.467169   -0.646414    1.228105
     26          6           0        1.228021   -2.023568    1.256443
     27          1           0        1.334157   -3.887840    0.174990
     28          1           0        2.292071   -2.851238   -1.872763
     29          1           0        2.725755   -0.383880   -1.937126
     30          1           0        1.248057   -0.007315    2.074840
     31          1           0        0.809553   -2.473446    2.152290
     32          7           0        2.262206    1.361621    0.024096
     33          8           0        1.985080    2.014475    1.027898
     34          8           0        2.736323    1.823035   -1.011736
 ---------------------------------------------------------------------

 SCF Done:  E(RHF) =  -669.535799834     A.U. after   15 cycles
 E2 =    -0.2094326041D+01 EUMP2 =    -0.67163012587492D+03

 The electronic state is 1-A.
 Alpha  occ. eigenvalues --  -20.60845 -20.60831 -15.85863 -11.31212 -11.27795
 Alpha  occ. eigenvalues --  -11.27774 -11.27524 -11.26806 -11.26781 -11.21732
 Alpha  occ. eigenvalues --  -11.21424 -11.21350 -11.21130 -11.21061 -11.20369
 Alpha  occ. eigenvalues --   -1.59901  -1.39455  -1.19388  -1.08786  -1.08291
 Alpha  occ. eigenvalues --   -1.04788  -1.03341  -0.95804  -0.95625  -0.86832
 Alpha  occ. eigenvalues --   -0.86186  -0.82461  -0.79454  -0.78093  -0.77497
 Alpha  occ. eigenvalues --   -0.72097  -0.71212  -0.70494  -0.65044  -0.64934
 Alpha  occ. eigenvalues --   -0.64791  -0.62139  -0.60749  -0.59206  -0.57376
 Alpha  occ. eigenvalues --   -0.55289  -0.55120  -0.53152  -0.52884  -0.52461
 Alpha  occ. eigenvalues --   -0.52230  -0.49786  -0.48865  -0.48856  -0.47750
 Alpha  occ. eigenvalues --   -0.46499  -0.45690  -0.45506  -0.44721  -0.43579
 Alpha  occ. eigenvalues --   -0.37348  -0.36348
 Alpha virt. eigenvalues --    0.04988   0.11213   0.16432   0.21033   0.22977
 Alpha virt. eigenvalues --    0.24310   0.25910   0.26812   0.27673   0.28269
 Alpha virt. eigenvalues --    0.28846   0.30143   0.31255   0.31688   0.32421

 Mulliken charges:
               1
     1  C   -0.299058
     2  C   -0.298035
     3  C   -0.477343
     4  H    0.148983
     5  H    0.148169
     6  H    0.149048
     7  H    0.155257
     8  H    0.151243
     9  H    0.152604
    10  H    0.172398
    11  C   -0.297798
    12  C   -0.299338
    13  C   -0.474325
    14  H    0.151368
    15  H    0.143540
    16  H    0.152832
    17  H    0.152363
    18  H    0.149887
    19  H    0.152320
    20  H    0.160416
    21  C   -0.170480
    22  C   -0.219213
    23  C   -0.172399
    24  C    0.156796
    25  C   -0.167576
    26  C   -0.216672
    27  H    0.226259
    28  H    0.223543
    29  H    0.275620
    30  H    0.275222
    31  H    0.223430
    32  N    0.489890
    33  O   -0.458502
    34  O   -0.460448
 Sum of Mulliken charges =  -0.00000

 Dipole moment (field-independent basis, Debye):
    X=             -0.7739    Y=             -5.0133    Z=              0.1689  Tot=              5.0755
 Quadrupole moment (field-independent basis, Debye-Ang):
   XX=            -98.8837   YY=            -95.3128   ZZ=            -89.5354
   XY=            -10.4538   XZ=             -1.8628   YZ=              0.3699

 Normal termination of Gaussian 16 at Wed May  5 20:07:07 2021.
