 Gaussian 16, Revision A.03,
 Gaussian 16:  EM64L-G16RevA.03 25-Dec-2016

 -------------
 #p 6-31g* mp2
 -------------

 ------------------------------------------------------
 Input file generated by CHIRIPA (05-May-2021 14:51:10)
 ------------------------------------------------------
 Symbolic Z-matrix:
 Charge =  0 Multiplicity = 1

                         Standard orientation:
 ---------------------------------------------------------------------
 Center     Atomic      Atomic             Coordinates (Angstroms)
 Number     Number       Type             X           Y           Z
 ---------------------------------------------------------------------
      1          6           0        4.336004   -0.144511    0.182718
      2          6           0        4.838653    1.200200   -0.343667
      3          6           0        6.316243    1.441532   -0.033377
      4          1           0        4.496108   -0.188980    1.268689
      5          1           0        4.940133   -0.950936   -0.255577
      6          1           0        4.232861    2.003763    0.094419
      7          1           0        4.677158    1.241549   -1.428483
      8          1           0        6.937097    0.660538   -0.484142
      9          1           0        6.490275    1.427083    1.047412
     10          1           0        6.654641    2.408460   -0.418599
     11          6           0        2.860588   -0.400255   -0.119725
     12          6           0        2.357939   -1.744966    0.406659
     13          6           0        0.880349   -1.986298    0.096369
     14          1           0        2.256459    0.406170    0.318569
     15          1           0        2.700484   -0.355786   -1.205697
     16          1           0        2.519434   -1.786315    1.491475
     17          1           0        2.963731   -2.548529   -0.031427
     18          1           0        0.706317   -1.971848   -0.984420
     19          1           0        0.259495   -1.205304    0.547135
     20          1           0        0.541951   -2.953226    0.481591
     21          6           0       -3.284009    0.966759   -0.081462
     22          6           0       -4.274967    2.101203    0.181263
     23          6           0       -3.631295    3.484227    0.077695
     24          1           0       -2.453591    1.040789    0.633989
     25          1           0       -2.847300    1.095002   -1.081579
     26          1           0       -4.710706    1.970086    1.180042
     27          1           0       -5.103218    2.024351   -0.534773
     28          1           0       -3.212202    3.640235   -0.921616
     29          1           0       -2.817458    3.585662    0.802941
     30          1           0       -4.357493    4.280375    0.269113
     31          6           0       -3.912583   -0.421993    0.018470
     32          6           0       -2.921625   -1.556437   -0.244255
     33          6           0       -3.565297   -2.939461   -0.140687
     34          1           0       -4.349292   -0.550236    1.018587
     35          1           0       -4.743001   -0.496023   -0.696982
     36          1           0       -2.093373   -1.479586    0.471781
     37          1           0       -2.485887   -1.425321   -1.243034
     38          1           0       -4.379134   -3.040896   -0.865933
     39          1           0       -3.984390   -3.095470    0.858624
     40          1           0       -2.839098   -3.735610   -0.332106
 ---------------------------------------------------------------------

 SCF Done:  E(RHF) =  -470.732850054     A.U. after   11 cycles
 E2 =    -0.1582813181D+01 EUMP2 =    -0.47231566323433D+03

 The electronic state is 1-A.
 Alpha  occ. eigenvalues --  -11.21597 -11.21582 -11.21579 -11.21444 -11.21398
 Alpha  occ. eigenvalues --  -11.21363 -11.21339 -11.21288 -11.21068 -11.21060
 Alpha  occ. eigenvalues --  -11.21035 -11.20987  -1.08426  -1.08372  -1.03539
 Alpha  occ. eigenvalues --   -1.03452  -0.95987  -0.95914  -0.87017  -0.86922
 Alpha  occ. eigenvalues --   -0.79702  -0.79432  -0.78274  -0.78135  -0.65081
 Alpha  occ. eigenvalues --   -0.64988  -0.60996  -0.60805  -0.59373  -0.59268
 Alpha  occ. eigenvalues --   -0.57599  -0.57519  -0.55296  -0.55193  -0.52700
 Alpha  occ. eigenvalues --   -0.52600  -0.52453  -0.52299  -0.50008  -0.49809
 Alpha  occ. eigenvalues --   -0.48094  -0.47674  -0.46755  -0.46445  -0.45889
 Alpha  occ. eigenvalues --   -0.45733  -0.45655  -0.45448  -0.43774  -0.43715
 Alpha virt. eigenvalues --    0.22018   0.23055   0.23723   0.24629   0.25557
 Alpha virt. eigenvalues --    0.26565   0.27012   0.27339   0.27864   0.29210
 Alpha virt. eigenvalues --    0.30633   0.31072   0.31325   0.31916   0.32440

 Mulliken charges:
               1
     1  C   -0.298238
     2  C   -0.299629
     3  C   -0.475699
     4  H    0.149551
     5  H    0.149517
     6  H    0.151947
     7  H    0.151940
     8  H    0.155166
     9  H    0.155143
    10  H    0.160258
    11  C   -0.298285
    12  C   -0.300565
    13  C   -0.475849
    14  H    0.149539
    15  H    0.149639
    16  H    0.151556
    17  H    0.151657
    18  H    0.155789
    19  H    0.156876
    20  H    0.159770
    21  C   -0.298150
    22  C   -0.299545
    23  C   -0.475635
    24  H    0.148466
    25  H    0.149679
    26  H    0.151818
    27  H    0.152046
    28  H    0.155219
    29  H    0.154884
    30  H    0.160184
    31  C   -0.298125
    32  C   -0.303917
    33  C   -0.475951
    34  H    0.148902
    35  H    0.149163
    36  H    0.159774
    37  H    0.151639
    38  H    0.154584
    39  H    0.154477
    40  H    0.160404
 Sum of Mulliken charges =  -0.00000

 Dipole moment (field-independent basis, Debye):
    X=              0.0179    Y=             -0.0066    Z=             -0.0058  Tot=              0.0199
 Quadrupole moment (field-independent basis, Debye-Ang):
   XX=            -86.1302   YY=            -85.9029   ZZ=            -83.0009
   XY=             -0.8097   XZ=             -0.1557   YZ=              0.3627

 Normal termination of Gaussian 16 at Thu May  6 05:25:11 2021.
