 Gaussian 16, Revision A.03,
 Gaussian 16:  EM64L-G16RevA.03 25-Dec-2016

 -------------
 #p 6-31g* mp2
 -------------

 ------------------------------------------------------
 Input file generated by CHIRIPA (05-May-2021 14:55:25)
 ------------------------------------------------------
 Symbolic Z-matrix:
 Charge =  0 Multiplicity = 1

                         Standard orientation:
 ---------------------------------------------------------------------
 Center     Atomic      Atomic             Coordinates (Angstroms)
 Number     Number       Type             X           Y           Z
 ---------------------------------------------------------------------
      1          6           0       -1.586767    2.643402    0.731395
      2          6           0       -0.712873    1.567480    0.543726
      3          6           0       -1.193073    0.331847    0.099690
      4          6           0       -2.559171    0.206781   -0.148149
      5          6           0       -3.455057    1.259959    0.029320
      6          6           0       -2.952663    2.486485    0.474047
      7          1           0       -1.205116    3.599734    1.076601
      8          1           0        0.348383    1.686452    0.742794
      9          1           0       -0.538771   -0.517676   -0.053988
     10          1           0       -4.507879    1.110882   -0.177466
     11          1           0       -3.633672    3.320322    0.618913
     12          7           0       -3.079286   -1.096507   -0.618596
     13          8           0       -4.287117   -1.180957   -0.829897
     14          8           0       -2.269272   -2.008896   -0.767122
     15          6           0        2.740418   -0.854281    0.641103
     16          6           0        1.995913   -2.110899    0.188766
     17          6           0        1.148809   -2.728890    1.301555
     18          1           0        3.382476   -1.104252    1.496802
     19          1           0        2.012066   -0.115048    1.002257
     20          1           0        2.725350   -2.847015   -0.172718
     21          1           0        1.355699   -1.857949   -0.666077
     22          1           0        0.399444   -2.014366    1.657236
     23          1           0        1.776878   -3.009052    2.153399
     24          1           0        0.625311   -3.625957    0.956473
     25          6           0        3.591612   -0.224962   -0.460330
     26          6           0        4.336119    1.031657   -0.007995
     27          6           0        5.183223    1.649648   -1.120782
     28          1           0        4.319966   -0.964194   -0.821485
     29          1           0        2.949556    0.025010   -1.316030
     30          1           0        4.976333    0.778706    0.846849
     31          1           0        3.606682    1.767772    0.353490
     32          1           0        4.555154    1.929810   -1.972626
     33          1           0        5.932588    0.935124   -1.476465
     34          1           0        5.706719    2.546715   -0.775701
 ---------------------------------------------------------------------

 SCF Done:  E(RHF) =  -669.534690879     A.U. after   15 cycles
 E2 =    -0.2093779154D+01 EUMP2 =    -0.67162847003292D+03

 The electronic state is 1-A.
 Alpha  occ. eigenvalues --  -20.60772 -20.60766 -15.85819 -11.31173 -11.27752
 Alpha  occ. eigenvalues --  -11.27695 -11.27491 -11.26768 -11.26743 -11.22247
 Alpha  occ. eigenvalues --  -11.22082 -11.21956 -11.21940 -11.21569 -11.21132
 Alpha  occ. eigenvalues --   -1.59843  -1.39397  -1.19352  -1.09012  -1.08748
 Alpha  occ. eigenvalues --   -1.04765  -1.03982  -0.96407  -0.95583  -0.87416
 Alpha  occ. eigenvalues --   -0.86157  -0.82423  -0.80041  -0.78825  -0.77478
 Alpha  occ. eigenvalues --   -0.72043  -0.71164  -0.70498  -0.65755  -0.64992
 Alpha  occ. eigenvalues --   -0.64801  -0.62298  -0.61117  -0.59762  -0.57998
 Alpha  occ. eigenvalues --   -0.55767  -0.55231  -0.53089  -0.53028  -0.52942
 Alpha  occ. eigenvalues --   -0.52674  -0.50376  -0.48800  -0.48792  -0.48325
 Alpha  occ. eigenvalues --   -0.47120  -0.46341  -0.46287  -0.44799  -0.44243
 Alpha  occ. eigenvalues --   -0.37333  -0.36348
 Alpha virt. eigenvalues --    0.05031   0.11237   0.16523   0.18617   0.22972
 Alpha virt. eigenvalues --    0.23404   0.24761   0.26314   0.27489   0.28482
 Alpha virt. eigenvalues --    0.30054   0.31076   0.31417   0.31591   0.32113

 Mulliken charges:
               1
     1  C   -0.170402
     2  C   -0.228682
     3  C   -0.180853
     4  C    0.156341
     5  C   -0.169757
     6  C   -0.218947
     7  H    0.225922
     8  H    0.228772
     9  H    0.293740
    10  H    0.275615
    11  H    0.223473
    12  N    0.487174
    13  O   -0.460218
    14  O   -0.461505
    15  C   -0.302630
    16  C   -0.311363
    17  C   -0.476079
    18  H    0.154367
    19  H    0.138574
    20  H    0.158939
    21  H    0.155122
    22  H    0.150320
    23  H    0.154526
    24  H    0.174438
    25  C   -0.299022
    26  C   -0.298890
    27  C   -0.476073
    28  H    0.154355
    29  H    0.149779
    30  H    0.154430
    31  H    0.143672
    32  H    0.155921
    33  H    0.157992
    34  H    0.160950
 Sum of Mulliken charges =  -0.00000

 Dipole moment (field-independent basis, Debye):
    X=              1.9389    Y=              4.3931    Z=              1.6023  Tot=              5.0623
 Quadrupole moment (field-independent basis, Debye-Ang):
   XX=            -99.0797   YY=            -91.9739   ZZ=            -96.5623
   XY=            -14.6565   XZ=             -3.8913   YZ=             -0.1919

 Normal termination of Gaussian 16 at Wed May  5 16:08:37 2021.
