 Gaussian 16, Revision A.03,
 Gaussian 16:  EM64L-G16RevA.03 25-Dec-2016

 -------------
 #p 6-31g* mp2
 -------------

 ------------------------------------------------------
 Input file generated by CHIRIPA (05-May-2021 14:57:21)
 ------------------------------------------------------
 Symbolic Z-matrix:
 Charge =  0 Multiplicity = 1

                         Standard orientation:
 ---------------------------------------------------------------------
 Center     Atomic      Atomic             Coordinates (Angstroms)
 Number     Number       Type             X           Y           Z
 ---------------------------------------------------------------------
      1          6           0        1.117407   -0.992367   -0.405594
      2          6           0        1.317720   -0.071459    0.628004
      3          6           0        2.589620    0.454173    0.874033
      4          6           0        3.643426    0.035031    0.063415
      5          6           0        3.475761   -0.880916   -0.973995
      6          6           0        2.195167   -1.393449   -1.201891
      7          1           0        0.125988   -1.395603   -0.589672
      8          1           0        0.482567    0.241833    1.248014
      9          1           0        2.772853    1.168500    1.667494
     10          1           0        4.327766   -1.174183   -1.575243
     11          1           0        2.042552   -2.108492   -2.005301
     12          7           0        4.994532    0.584561    0.314276
     13          8           0        5.906487    0.199224   -0.414070
     14          8           0        5.115989    1.390215    1.234498
     15          6           0       -3.093179   -2.348154    0.671390
     16          6           0       -3.751243   -1.456761    1.525140
     17          6           0       -3.938364   -0.122686    1.151271
     18          6           0       -3.452416    0.287918   -0.089111
     19          6           0       -2.792756   -0.576167   -0.961749
     20          6           0       -2.616876   -1.905792   -0.567147
     21          1           0       -2.952184   -3.382768    0.969873
     22          1           0       -4.122201   -1.797519    2.487596
     23          1           0       -4.444274    0.588606    1.792782
     24          1           0       -2.434072   -0.207117   -1.914936
     25          1           0       -2.105443   -2.595837   -1.232218
     26          7           0       -3.644563    1.697888   -0.495884
     27          8           0       -3.207066    2.034838   -1.593926
     28          8           0       -4.229027    2.439374    0.291032
 ---------------------------------------------------------------------

 SCF Done:  E(RHF) =  -868.336630322     A.U. after   16 cycles
 E2 =    -0.2601479347D+01 EUMP2 =    -0.87093810966880D+03

 The electronic state is 1-A.
 Alpha  occ. eigenvalues --  -20.61652 -20.61646 -20.60798 -20.60791 -15.86718
 Alpha  occ. eigenvalues --  -15.85853 -11.32329 -11.31256 -11.28988 -11.28897
 Alpha  occ. eigenvalues --  -11.28699 -11.28042 -11.27896 -11.27850 -11.27811
 Alpha  occ. eigenvalues --  -11.27524 -11.26899 -11.26825  -1.60726  -1.59872
 Alpha  occ. eigenvalues --   -1.40271  -1.39424  -1.20552  -1.19434  -1.09876
 Alpha  occ. eigenvalues --   -1.08829  -1.05995  -1.04846  -0.96661  -0.95658
 Alpha  occ. eigenvalues --   -0.87349  -0.86246  -0.83506  -0.82487  -0.78509
 Alpha  occ. eigenvalues --   -0.77525  -0.72922  -0.72073  -0.72062  -0.71586
 Alpha  occ. eigenvalues --   -0.71195  -0.70598  -0.66175  -0.65960  -0.65089
 Alpha  occ. eigenvalues --   -0.64868  -0.63300  -0.62196  -0.56418  -0.55594
 Alpha  occ. eigenvalues --   -0.54128  -0.54000  -0.53171  -0.52941  -0.49703
 Alpha  occ. eigenvalues --   -0.49666  -0.48834  -0.48822  -0.45620  -0.44821
 Alpha  occ. eigenvalues --   -0.38527  -0.37627  -0.37376  -0.36449
 Alpha virt. eigenvalues --    0.04004   0.05016   0.09951   0.11206   0.15310
 Alpha virt. eigenvalues --    0.16491   0.19779   0.21794   0.25590   0.27145
 Alpha virt. eigenvalues --    0.27303   0.28960   0.29997   0.31434   0.32124

 Mulliken charges:
               1
     1  C   -0.174819
     2  C   -0.222233
     3  C   -0.169898
     4  C    0.158469
     5  C   -0.170006
     6  C   -0.221213
     7  H    0.227221
     8  H    0.224813
     9  H    0.276698
    10  H    0.275556
    11  H    0.219854
    12  N    0.487999
    13  O   -0.460518
    14  O   -0.459554
    15  C   -0.170478
    16  C   -0.219471
    17  C   -0.170399
    18  C    0.157694
    19  C   -0.172164
    20  C   -0.231882
    21  H    0.230177
    22  H    0.228343
    23  H    0.279865
    24  H    0.279363
    25  H    0.222999
    26  N    0.487843
    27  O   -0.457175
    28  O   -0.457085
 Sum of Mulliken charges =  -0.00000

 Dipole moment (field-independent basis, Debye):
    X=             -4.3957    Y=             -6.7813    Z=              0.6833  Tot=              8.1101
 Quadrupole moment (field-independent basis, Debye-Ang):
   XX=           -142.4834   YY=           -107.2078   ZZ=            -98.9520
   XY=              8.6999   XZ=            -12.7493   YZ=              3.7971

 Normal termination of Gaussian 16 at Wed May  5 19:16:39 2021.
