 Gaussian 16, Revision A.03,
 Gaussian 16:  EM64L-G16RevA.03 25-Dec-2016

 -------------
 #p 6-31g* mp2
 -------------

 ------------------------------------------------------
 Input file generated by CHIRIPA (05-May-2021 14:51:09)
 ------------------------------------------------------
 Symbolic Z-matrix:
 Charge =  0 Multiplicity = 1

                         Standard orientation:
 ---------------------------------------------------------------------
 Center     Atomic      Atomic             Coordinates (Angstroms)
 Number     Number       Type             X           Y           Z
 ---------------------------------------------------------------------
      1          6           0       -4.618232   -0.069356   -0.242404
      2          6           0       -4.906848   -1.508026    0.187612
      3          6           0       -6.399976   -1.782417    0.369468
      4          1           0       -5.030646    0.620273    0.506777
      5          1           0       -5.147300    0.137997   -1.182875
      6          1           0       -4.376279   -1.713042    1.126271
      7          1           0       -4.493531   -2.194315   -0.562583
      8          1           0       -6.940918   -1.605284   -0.565736
      9          1           0       -6.823001   -1.121276    1.132714
     10          1           0       -6.583576   -2.816638    0.676937
     11          6           0       -3.129866    0.220365   -0.428298
     12          6           0       -2.841250    1.659035   -0.858314
     13          6           0       -1.348122    1.933426   -1.040170
     14          1           0       -2.600798    0.013012    0.512174
     15          1           0       -2.717452   -0.469264   -1.177478
     16          1           0       -3.254567    2.345324   -0.108119
     17          1           0       -3.371819    1.864051   -1.796973
     18          1           0       -0.925097    1.272285   -1.803416
     19          1           0       -0.807180    1.756293   -0.104966
     20          1           0       -1.164522    2.967647   -1.347639
     21          6           0        3.328977   -0.077747    0.870443
     22          6           0        2.381766    1.118868    0.776146
     23          6           0        1.296786    1.100287    1.853303
     24          1           0        2.746377   -1.005683    0.790096
     25          1           0        3.797730   -0.088039    1.864203
     26          1           0        1.915985    1.127688   -0.217627
     27          1           0        2.966712    2.044066    0.856534
     28          1           0        1.745127    1.115314    2.851986
     29          1           0        0.688430    0.193730    1.771720
     30          1           0        0.630878    1.964599    1.767333
     31          6           0        4.419121   -0.073263   -0.199741
     32          6           0        5.366332   -1.269877   -0.105445
     33          6           0        6.451311   -1.251296   -1.182602
     34          1           0        3.950367   -0.062970   -1.193502
     35          1           0        5.001721    0.854674   -0.119394
     36          1           0        4.781387   -2.195074   -0.185833
     37          1           0        5.832113   -1.278698    0.888329
     38          1           0        7.059668   -0.344739   -1.101018
     39          1           0        6.002972   -1.266324   -2.181285
     40          1           0        7.117221   -2.115608   -1.096631
 ---------------------------------------------------------------------

 SCF Done:  E(RHF) =  -470.732936312     A.U. after   11 cycles
 E2 =    -0.1582920282D+01 EUMP2 =    -0.47231585659354D+03

 The electronic state is 1-A.
 Alpha  occ. eigenvalues --  -11.21597 -11.21589 -11.21575 -11.21564 -11.21395
 Alpha  occ. eigenvalues --  -11.21387 -11.21335 -11.21327 -11.21093 -11.21067
 Alpha  occ. eigenvalues --  -11.21061 -11.20980  -1.08427  -1.08403  -1.03559
 Alpha  occ. eigenvalues --   -1.03476  -0.96039  -0.95907  -0.87049  -0.86932
 Alpha  occ. eigenvalues --   -0.79584  -0.79576  -0.78239  -0.78214  -0.65090
 Alpha  occ. eigenvalues --   -0.65009  -0.61061  -0.60820  -0.59391  -0.59310
 Alpha  occ. eigenvalues --   -0.57722  -0.57458  -0.55398  -0.55115  -0.52748
 Alpha  occ. eigenvalues --   -0.52646  -0.52456  -0.52256  -0.49990  -0.49798
 Alpha  occ. eigenvalues --   -0.47901  -0.47875  -0.46636  -0.46561  -0.45812
 Alpha  occ. eigenvalues --   -0.45745  -0.45683  -0.45662  -0.43775  -0.43759
 Alpha virt. eigenvalues --    0.21612   0.23052   0.23541   0.25024   0.26215
 Alpha virt. eigenvalues --    0.26418   0.27075   0.27363   0.28009   0.29174
 Alpha virt. eigenvalues --    0.30731   0.31103   0.31455   0.31814   0.32242

 Mulliken charges:
               1
     1  C   -0.298244
     2  C   -0.299663
     3  C   -0.475696
     4  H    0.149730
     5  H    0.149528
     6  H    0.151950
     7  H    0.151780
     8  H    0.155163
     9  H    0.155230
    10  H    0.160213
    11  C   -0.298755
    12  C   -0.299271
    13  C   -0.485102
    14  H    0.149915
    15  H    0.149234
    16  H    0.151654
    17  H    0.151640
    18  H    0.153944
    19  H    0.167386
    20  H    0.159686
    21  C   -0.298261
    22  C   -0.302434
    23  C   -0.479785
    24  H    0.149711
    25  H    0.149332
    26  H    0.156391
    27  H    0.151934
    28  H    0.156345
    29  H    0.155368
    30  H    0.161088
    31  C   -0.298289
    32  C   -0.299651
    33  C   -0.475695
    34  H    0.149648
    35  H    0.149650
    36  H    0.151914
    37  H    0.151876
    38  H    0.155173
    39  H    0.155174
    40  H    0.160193
 Sum of Mulliken charges =  -0.00000

 Dipole moment (field-independent basis, Debye):
    X=              0.0178    Y=              0.0052    Z=              0.0138  Tot=              0.0231
 Quadrupole moment (field-independent basis, Debye-Ang):
   XX=            -86.2887   YY=            -84.5933   ZZ=            -84.0188
   XY=              0.1272   XZ=              1.1797   YZ=              0.6348

 Normal termination of Gaussian 16 at Thu May  6 03:43:30 2021.
