 Gaussian 16, Revision A.03,
 Gaussian 16:  EM64L-G16RevA.03 25-Dec-2016

 -------------
 #p 6-31g* mp2
 -------------

 ------------------------------------------------------
 Input file generated by CHIRIPA (05-May-2021 14:57:27)
 ------------------------------------------------------
 Symbolic Z-matrix:
 Charge =  0 Multiplicity = 1

                         Standard orientation:
 ---------------------------------------------------------------------
 Center     Atomic      Atomic             Coordinates (Angstroms)
 Number     Number       Type             X           Y           Z
 ---------------------------------------------------------------------
      1          6           0        6.065474    0.973275    0.138518
      2          6           0        5.853918   -0.406117    0.233612
      3          6           0        4.566060   -0.936826    0.113956
      4          6           0        3.507933   -0.055184   -0.101367
      5          6           0        3.686521    1.323776   -0.200692
      6          6           0        4.983009    1.832305   -0.077949
      7          1           0        7.069265    1.376928    0.232668
      8          1           0        6.692692   -1.075634    0.401690
      9          1           0        4.373876   -2.000613    0.183533
     10          1           0        2.830547    1.966070   -0.368580
     11          1           0        5.144328    2.903988   -0.152224
     12          7           0        2.139967   -0.605281   -0.229675
     13          8           0        1.224508    0.192650   -0.419088
     14          8           0        2.009118   -1.823962   -0.138401
     15          6           0       -5.143104    2.054585   -0.021066
     16          6           0       -3.781191    2.142999    0.285357
     17          6           0       -2.990469    0.991547    0.344235
     18          6           0       -3.597104   -0.237539    0.090012
     19          6           0       -4.951318   -0.358254   -0.217923
     20          6           0       -5.722800    0.806441   -0.271286
     21          1           0       -5.749884    2.954204   -0.064661
     22          1           0       -3.328304    3.110987    0.480137
     23          1           0       -1.933743    1.031206    0.579128
     24          1           0       -5.374446   -1.337295   -0.407293
     25          1           0       -6.780231    0.734759   -0.509502
     26          7           0       -2.770186   -1.463539    0.149424
     27          8           0       -3.328552   -2.534460   -0.078597
     28          8           0       -1.579341   -1.330343    0.422887
 ---------------------------------------------------------------------

 SCF Done:  E(RHF) =  -868.335381534     A.U. after   16 cycles
 E2 =    -0.2600779221D+01 EUMP2 =    -0.87093616075557D+03

 The electronic state is 1-A.
 Alpha  occ. eigenvalues --  -20.60077 -20.60012 -20.59346 -20.59191 -15.85124
 Alpha  occ. eigenvalues --  -15.84322 -11.30793 -11.30081 -11.27430 -11.27365
 Alpha  occ. eigenvalues --  -11.27188 -11.26759 -11.26628 -11.26587 -11.26496
 Alpha  occ. eigenvalues --  -11.26453 -11.25859 -11.25818  -1.59090  -1.58355
 Alpha  occ. eigenvalues --   -1.38652  -1.37886  -1.18989  -1.18313  -1.08320
 Alpha  occ. eigenvalues --   -1.07648  -1.04441  -1.03772  -0.95106  -0.94403
 Alpha  occ. eigenvalues --   -0.85824  -0.85152  -0.81948  -0.81227  -0.76944
 Alpha  occ. eigenvalues --   -0.76194  -0.71328  -0.70572  -0.70393  -0.70097
 Alpha  occ. eigenvalues --   -0.69704  -0.69422  -0.64639  -0.64444  -0.63952
 Alpha  occ. eigenvalues --   -0.63791  -0.61789  -0.61098  -0.54924  -0.54292
 Alpha  occ. eigenvalues --   -0.52749  -0.52539  -0.52092  -0.51869  -0.48104
 Alpha  occ. eigenvalues --   -0.48038  -0.47331  -0.47209  -0.43997  -0.43187
 Alpha  occ. eigenvalues --   -0.36984  -0.36340  -0.36058  -0.35396
 Alpha virt. eigenvalues --    0.05596   0.06335   0.11591   0.12252   0.17027
 Alpha virt. eigenvalues --    0.17736   0.21672   0.22308   0.27567   0.28141
 Alpha virt. eigenvalues --    0.28570   0.29282   0.31187   0.31798   0.32803

 Mulliken charges:
               1
     1  C   -0.171809
     2  C   -0.218383
     3  C   -0.171040
     4  C    0.159521
     5  C   -0.171653
     6  C   -0.218305
     7  H    0.223976
     8  H    0.222755
     9  H    0.277189
    10  H    0.271359
    11  H    0.220936
    12  N    0.488823
    13  O   -0.463240
    14  O   -0.448287
    15  C   -0.172089
    16  C   -0.219736
    17  C   -0.172222
    18  C    0.157454
    19  C   -0.171880
    20  C   -0.219241
    21  H    0.221041
    22  H    0.219153
    23  H    0.287182
    24  H    0.273488
    25  H    0.219453
    26  N    0.485348
    27  O   -0.469433
    28  O   -0.440359
 Sum of Mulliken charges =  -0.00000

 Dipole moment (field-independent basis, Debye):
    X=              2.2289    Y=              6.0072    Z=              0.2779  Tot=              6.4134
 Quadrupole moment (field-independent basis, Debye-Ang):
   XX=            -49.8671   YY=           -102.2425   ZZ=           -106.4115
   XY=             -8.0370   XZ=              2.9850   YZ=              0.2440

 Normal termination of Gaussian 16 at Thu May  6 21:25:25 2021.
