 Gaussian 16, Revision A.03,
 Gaussian 16:  EM64L-G16RevA.03 25-Dec-2016

 -------------
 #p 6-31g* mp2
 -------------

 ------------------------------------------------------
 Input file generated by CHIRIPA (05-May-2021 14:55:22)
 ------------------------------------------------------
 Symbolic Z-matrix:
 Charge =  0 Multiplicity = 1

                         Standard orientation:
 ---------------------------------------------------------------------
 Center     Atomic      Atomic             Coordinates (Angstroms)
 Number     Number       Type             X           Y           Z
 ---------------------------------------------------------------------
      1          6           0        1.374211    1.934988   -0.243614
      2          6           0        2.742590    2.120352   -0.466549
      3          6           0        3.633010    1.049232   -0.346547
      4          6           0        3.118397   -0.199259   -0.000521
      5          6           0        1.760372   -0.415721    0.227956
      6          6           0        0.888326    0.669774    0.102317
      7          1           0        0.689649    2.772644   -0.339024
      8          1           0        3.122758    3.101818   -0.735330
      9          1           0        4.697062    1.164693   -0.513523
     10          1           0        1.411140   -1.405862    0.494559
     11          1           0       -0.173882    0.522878    0.276040
     12          7           0        4.051319   -1.340815    0.129503
     13          8           0        3.572837   -2.430803    0.435477
     14          8           0        5.243360   -1.123964   -0.077019
     15          6           0       -4.098247   -0.542156   -0.398225
     16          6           0       -4.227793   -1.872669    0.344026
     17          6           0       -4.836612   -2.975892   -0.522018
     18          1           0       -5.090249   -0.228131   -0.750740
     19          1           0       -3.480029   -0.689051   -1.294675
     20          1           0       -4.844439   -1.723005    1.239551
     21          1           0       -3.235396   -2.183468    0.694980
     22          1           0       -4.219700   -3.154175   -1.408717
     23          1           0       -5.837885   -2.691095   -0.861054
     24          1           0       -4.920040   -3.918257    0.028297
     25          6           0       -3.491232    0.570615    0.454419
     26          6           0       -3.361686    1.901128   -0.287833
     27          6           0       -2.752867    3.004350    0.578212
     28          1           0       -4.109451    0.717510    1.350868
     29          1           0       -2.499230    0.256590    0.806933
     30          1           0       -4.354083    2.211927   -0.638788
     31          1           0       -2.745040    1.751464   -1.183358
     32          1           0       -1.751595    2.719554    0.917247
     33          1           0       -3.369778    3.182634    1.464911
     34          1           0       -2.669440    3.946716    0.027896
 ---------------------------------------------------------------------

 SCF Done:  E(RHF) =  -669.535320217     A.U. after   15 cycles
 E2 =    -0.2092056307D+01 EUMP2 =    -0.67162737652350D+03

 The electronic state is 1-A.
 Alpha  occ. eigenvalues --  -20.60747 -20.60742 -15.85800 -11.31164 -11.27734
 Alpha  occ. eigenvalues --  -11.27731 -11.27454 -11.26741 -11.26718 -11.22714
 Alpha  occ. eigenvalues --  -11.22477 -11.22317 -11.22246 -11.22165 -11.21535
 Alpha  occ. eigenvalues --   -1.59823  -1.39376  -1.19335  -1.09367  -1.08727
 Alpha  occ. eigenvalues --   -1.04742  -1.04412  -0.96872  -0.95563  -0.87882
 Alpha  occ. eigenvalues --   -0.86142  -0.82399  -0.80489  -0.79138  -0.77450
 Alpha  occ. eigenvalues --   -0.72019  -0.71146  -0.70446  -0.66123  -0.64987
 Alpha  occ. eigenvalues --   -0.64693  -0.62172  -0.61705  -0.60252  -0.58456
 Alpha  occ. eigenvalues --   -0.56228  -0.55197  -0.53539  -0.53282  -0.53065
 Alpha  occ. eigenvalues --   -0.52842  -0.50813  -0.48817  -0.48774  -0.48746
 Alpha  occ. eigenvalues --   -0.47537  -0.46667  -0.46576  -0.44782  -0.44670
 Alpha  occ. eigenvalues --   -0.37310  -0.36343
 Alpha virt. eigenvalues --    0.05085   0.11268   0.16574   0.18132   0.22692
 Alpha virt. eigenvalues --    0.23802   0.24816   0.25939   0.26526   0.28652
 Alpha virt. eigenvalues --    0.29357   0.30469   0.30808   0.31237   0.31417

 Mulliken charges:
               1
     1  C   -0.176123
     2  C   -0.218535
     3  C   -0.171024
     4  C    0.158793
     5  C   -0.173600
     6  C   -0.227933
     7  H    0.229550
     8  H    0.223471
     9  H    0.275509
    10  H    0.275626
    11  H    0.236081
    12  N    0.488079
    13  O   -0.460516
    14  O   -0.460530
    15  C   -0.299297
    16  C   -0.299838
    17  C   -0.476395
    18  H    0.153026
    19  H    0.150167
    20  H    0.153851
    21  H    0.150345
    22  H    0.156564
    23  H    0.156256
    24  H    0.163238
    25  C   -0.303233
    26  C   -0.302725
    27  C   -0.479926
    28  H    0.155237
    29  H    0.142960
    30  H    0.158290
    31  H    0.150546
    32  H    0.147679
    33  H    0.162191
    34  H    0.162216
 Sum of Mulliken charges =  -0.00000

 Dipole moment (field-independent basis, Debye):
    X=             -3.5621    Y=              4.0078    Z=             -0.4740  Tot=              5.3829
 Quadrupole moment (field-independent basis, Debye-Ang):
   XX=           -110.5948   YY=            -95.3774   ZZ=            -95.4576
   XY=             15.3023   XZ=             -3.0312   YZ=             -1.0731

 Normal termination of Gaussian 16 at Wed May  5 15:59:16 2021.
