 Gaussian 16, Revision A.03,
 Gaussian 16:  EM64L-G16RevA.03 25-Dec-2016

 -------------
 #p 6-31g* mp2
 -------------

 ------------------------------------------------------
 Input file generated by CHIRIPA (05-May-2021 14:57:23)
 ------------------------------------------------------
 Symbolic Z-matrix:
 Charge =  0 Multiplicity = 1

                         Standard orientation:
 ---------------------------------------------------------------------
 Center     Atomic      Atomic             Coordinates (Angstroms)
 Number     Number       Type             X           Y           Z
 ---------------------------------------------------------------------
      1          6           0        4.600756    0.499678   -0.681009
      2          6           0        3.914753   -0.514679   -1.357027
      3          6           0        2.744774   -1.060214   -0.820288
      4          6           0        2.287042   -0.565466    0.399956
      5          6           0        2.948122    0.444339    1.097494
      6          6           0        4.116105    0.975111    0.541938
      7          1           0        5.508849    0.917729   -1.105269
      8          1           0        4.288814   -0.885854   -2.306949
      9          1           0        2.193925   -1.846222   -1.322459
     10          1           0        2.550740    0.793819    2.042676
     11          1           0        4.646792    1.762798    1.069163
     12          7           0        1.049494   -1.135186    0.978138
     13          8           0        0.666916   -0.681983    2.054650
     14          8           0        0.485515   -2.024147    0.343857
     15          6           0       -3.818843   -1.672441   -0.227260
     16          6           0       -4.110785   -0.635654    0.665132
     17          6           0       -3.381593    0.556690    0.631299
     18          6           0       -2.362635    0.678844   -0.312148
     19          6           0       -2.047835   -0.335979   -1.214548
     20          6           0       -2.790114   -1.519564   -1.162603
     21          1           0       -4.390381   -2.595279   -0.193944
     22          1           0       -4.909155   -0.751590    1.392599
     23          1           0       -3.586488    1.375352    1.310436
     24          1           0       -1.246142   -0.191015   -1.928474
     25          1           0       -2.561175   -2.323066   -1.856876
     26          7           0       -1.583745    1.936489   -0.357553
     27          8           0       -0.690970    2.019292   -1.198228
     28          8           0       -1.880773    2.815614    0.448394
 ---------------------------------------------------------------------

 SCF Done:  E(RHF) =  -868.338907287     A.U. after   16 cycles
 E2 =    -0.2600963033D+01 EUMP2 =    -0.87093987031999D+03

 The electronic state is 1-A.
 Alpha  occ. eigenvalues --  -20.60761 -20.60741 -20.60123 -20.60093 -15.85762
 Alpha  occ. eigenvalues --  -15.85148 -11.30889 -11.30151 -11.27499 -11.27395
 Alpha  occ. eigenvalues --  -11.27152 -11.26731 -11.26704 -11.26449 -11.26409
 Alpha  occ. eigenvalues --  -11.26376 -11.25676 -11.25639  -1.59812  -1.59189
 Alpha  occ. eigenvalues --   -1.39379  -1.38755  -1.19036  -1.18293  -1.08487
 Alpha  occ. eigenvalues --   -1.07774  -1.04420  -1.03663  -0.95368  -0.94672
 Alpha  occ. eigenvalues --   -0.85841  -0.85111  -0.82223  -0.81529  -0.77297
 Alpha  occ. eigenvalues --   -0.76612  -0.72016  -0.71393  -0.71180  -0.70441
 Alpha  occ. eigenvalues --   -0.70183  -0.69473  -0.64716  -0.64448  -0.63985
 Alpha  occ. eigenvalues --   -0.63724  -0.61794  -0.61066  -0.54952  -0.54236
 Alpha  occ. eigenvalues --   -0.52742  -0.52536  -0.51954  -0.51812  -0.48782
 Alpha  occ. eigenvalues --   -0.48722  -0.48157  -0.48108  -0.44851  -0.44239
 Alpha  occ. eigenvalues --   -0.36998  -0.36244  -0.35990  -0.35122
 Alpha virt. eigenvalues --    0.05188   0.05976   0.11644   0.12436   0.16756
 Alpha virt. eigenvalues --    0.17535   0.21679   0.22372   0.27496   0.28116
 Alpha virt. eigenvalues --    0.28671   0.29221   0.31230   0.31879   0.32682

 Mulliken charges:
               1
     1  C   -0.168922
     2  C   -0.217051
     3  C   -0.170378
     4  C    0.162129
     5  C   -0.165994
     6  C   -0.216514
     7  H    0.225348
     8  H    0.221512
     9  H    0.269009
    10  H    0.276732
    11  H    0.224314
    12  N    0.487021
    13  O   -0.458933
    14  O   -0.466592
    15  C   -0.168136
    16  C   -0.216865
    17  C   -0.166658
    18  C    0.157710
    19  C   -0.161880
    20  C   -0.205735
    21  H    0.222524
    22  H    0.220016
    23  H    0.272366
    24  H    0.267563
    25  H    0.219863
    26  N    0.488020
    27  O   -0.468690
    28  O   -0.461778
 Sum of Mulliken charges =  -0.00000

 Dipole moment (field-independent basis, Debye):
    X=              1.7298    Y=             -2.4649    Z=             -1.7455  Tot=              3.4806
 Quadrupole moment (field-independent basis, Debye-Ang):
   XX=            -71.3373   YY=           -111.9338   ZZ=           -101.3928
   XY=             10.8568   XZ=             -4.6191   YZ=              8.0186

 Normal termination of Gaussian 16 at Thu May  6 06:36:23 2021.
