 Gaussian 16, Revision A.03,
 Gaussian 16:  EM64L-G16RevA.03 25-Dec-2016

 -------------
 #p 6-31g* mp2
 -------------

 ------------------------------------------------------
 Input file generated by CHIRIPA (05-May-2021 14:57:24)
 ------------------------------------------------------
 Symbolic Z-matrix:
 Charge =  0 Multiplicity = 1

                         Standard orientation:
 ---------------------------------------------------------------------
 Center     Atomic      Atomic             Coordinates (Angstroms)
 Number     Number       Type             X           Y           Z
 ---------------------------------------------------------------------
      1          6           0       -4.836315   -0.336762   -1.549780
      2          6           0       -3.496747   -0.637272   -1.817684
      3          6           0       -2.529104   -0.522419   -0.815176
      4          6           0       -2.937955   -0.102380    0.449616
      5          6           0       -4.264770    0.204321    0.747588
      6          6           0       -5.215383    0.082337   -0.270255
      7          1           0       -5.581388   -0.428752   -2.334509
      8          1           0       -3.199475   -0.962979   -2.810453
      9          1           0       -1.485147   -0.748626   -0.995179
     10          1           0       -4.530722    0.526586    1.747004
     11          1           0       -6.254984    0.316392   -0.059325
     12          7           0       -1.922570    0.022984    1.519044
     13          8           0       -2.308420    0.395079    2.625074
     14          8           0       -0.760087   -0.253223    1.230982
     15          6           0        2.180287    2.426181   -0.727037
     16          6           0        3.429238    2.281703   -0.114039
     17          6           0        3.951609    1.010468    0.142164
     18          6           0        3.194730   -0.099617   -0.229502
     19          6           0        1.947311    0.011663   -0.841754
     20          6           0        1.444606    1.292698   -1.088302
     21          1           0        1.782136    3.417513   -0.922311
     22          1           0        4.002788    3.160202    0.167609
     23          1           0        4.915807    0.869794    0.615398
     24          1           0        1.398862   -0.882811   -1.111083
     25          1           0        0.474372    1.401880   -1.564504
     26          7           0        3.737331   -1.450604    0.036617
     27          8           0        3.050853   -2.412766   -0.300471
     28          8           0        4.838825   -1.521763    0.577251
 ---------------------------------------------------------------------

 SCF Done:  E(RHF) =  -868.336869819     A.U. after   16 cycles
 E2 =    -0.2601247323D+01 EUMP2 =    -0.87093811714197D+03

 The electronic state is 1-A.
 Alpha  occ. eigenvalues --  -20.61233 -20.61218 -20.60093 -20.60087 -15.86266
 Alpha  occ. eigenvalues --  -15.85147 -11.31732 -11.30435 -11.28370 -11.28242
 Alpha  occ. eigenvalues --  -11.27992 -11.27332 -11.27273 -11.27085 -11.27034
 Alpha  occ. eigenvalues --  -11.26819 -11.26099 -11.26050  -1.60294  -1.59162
 Alpha  occ. eigenvalues --   -1.39849  -1.38721  -1.19891  -1.18623  -1.09257
 Alpha  occ. eigenvalues --   -1.08045  -1.05309  -1.04050  -0.96088  -0.94893
 Alpha  occ. eigenvalues --   -0.86698  -0.85467  -0.82922  -0.81752  -0.77985
 Alpha  occ. eigenvalues --   -0.76786  -0.72495  -0.71618  -0.71381  -0.70991
 Alpha  occ. eigenvalues --   -0.70466  -0.69796  -0.65539  -0.65305  -0.64315
 Alpha  occ. eigenvalues --   -0.64118  -0.62687  -0.61419  -0.55774  -0.54601
 Alpha  occ. eigenvalues --   -0.53624  -0.53393  -0.52320  -0.52203  -0.49261
 Alpha  occ. eigenvalues --   -0.49235  -0.48131  -0.48129  -0.45228  -0.44145
 Alpha  occ. eigenvalues --   -0.37850  -0.36916  -0.36599  -0.35544
 Alpha virt. eigenvalues --    0.04536   0.05807   0.10678   0.12052   0.16041
 Alpha virt. eigenvalues --    0.17267   0.19561   0.22046   0.25078   0.27267
 Alpha virt. eigenvalues --    0.28376   0.29147   0.30890   0.31153   0.32084

 Mulliken charges:
               1
     1  C   -0.170674
     2  C   -0.219275
     3  C   -0.175064
     4  C    0.158792
     5  C   -0.170399
     6  C   -0.217965
     7  H    0.227569
     8  H    0.224764
     9  H    0.271275
    10  H    0.277318
    11  H    0.225522
    12  N    0.489711
    13  O   -0.457833
    14  O   -0.462376
    15  C   -0.170300
    16  C   -0.218290
    17  C   -0.170001
    18  C    0.158134
    19  C   -0.152843
    20  C   -0.210531
    21  H    0.222167
    22  H    0.220955
    23  H    0.273905
    24  H    0.268525
    25  H    0.212270
    26  N    0.489148
    27  O   -0.462143
    28  O   -0.462362
 Sum of Mulliken charges =  -0.00000

 Dipole moment (field-independent basis, Debye):
    X=             -5.7204    Y=              4.2844    Z=             -4.5326  Tot=              8.4631
 Quadrupole moment (field-independent basis, Debye-Ang):
   XX=            -90.1383   YY=           -105.9906   ZZ=           -106.0742
   XY=             17.8712   XZ=              6.5381   YZ=              1.3726

 Normal termination of Gaussian 16 at Fri May  7 11:05:11 2021.
