 Gaussian 16, Revision A.03,
 Gaussian 16:  EM64L-G16RevA.03 25-Dec-2016

 -------------
 #p 6-31g* mp2
 -------------

 ------------------------------------------------------
 Input file generated by CHIRIPA (05-May-2021 14:51:11)
 ------------------------------------------------------
 Symbolic Z-matrix:
 Charge =  0 Multiplicity = 1

                         Standard orientation:
 ---------------------------------------------------------------------
 Center     Atomic      Atomic             Coordinates (Angstroms)
 Number     Number       Type             X           Y           Z
 ---------------------------------------------------------------------
      1          6           0       -3.649582   -0.638221    0.032640
      2          6           0       -4.141529    0.504706   -0.856005
      3          6           0       -5.643433    0.433371   -1.133475
      4          1           0       -3.890149   -1.596829   -0.447093
      5          1           0       -4.200397   -0.617479    0.983201
      6          1           0       -3.588975    0.482656   -1.804064
      7          1           0       -3.899592    1.460707   -0.374192
      8          1           0       -6.210558    0.478315   -0.198088
      9          1           0       -5.898177   -0.505294   -1.636084
     10          1           0       -5.973701    1.259795   -1.770505
     11          6           0       -2.150110   -0.580641    0.318990
     12          6           0       -1.658162   -1.723569    1.207635
     13          6           0       -0.156258   -1.652233    1.485105
     14          1           0       -1.599294   -0.601384   -0.631571
     15          1           0       -1.909542    0.377966    0.798723
     16          1           0       -1.900100   -2.679570    0.725822
     17          1           0       -2.210716   -1.701518    2.155693
     18          1           0        0.098486   -0.713569    1.987713
     19          1           0        0.410867   -1.697177    0.549718
     20          1           0        0.174010   -2.478657    2.122135
     21          6           0        3.556312    0.286026   -0.394661
     22          6           0        3.441592   -1.220656   -0.628613
     23          6           0        4.763068   -1.853292   -1.065952
     24          1           0        3.907735    0.768186   -1.317141
     25          1           0        4.324222    0.474127    0.368442
     26          1           0        2.673152   -1.405939   -1.390050
     27          1           0        3.090218   -1.699261    0.294473
     28          1           0        5.534989   -1.697744   -0.305331
     29          1           0        5.115553   -1.402756   -1.999426
     30          1           0        4.658294   -2.930672   -1.227614
     31          6           0        2.243379    0.932836    0.043031
     32          6           0        2.358099    2.439518    0.276983
     33          6           0        1.036623    3.072154    0.714323
     34          1           0        1.475470    0.744734   -0.720072
     35          1           0        1.891956    0.450677    0.965511
     36          1           0        2.709474    2.918123   -0.646103
     37          1           0        3.126540    2.624801    1.038420
     38          1           0        0.684138    2.621618    1.647796
     39          1           0        0.264702    2.916607   -0.046298
     40          1           0        1.141397    4.149535    0.875984
 ---------------------------------------------------------------------

 SCF Done:  E(RHF) =  -470.732179039     A.U. after   11 cycles
 E2 =    -0.1584329188D+01 EUMP2 =    -0.47231650822735D+03

 The electronic state is 1-A.
 Alpha  occ. eigenvalues --  -11.21590 -11.21568 -11.21560 -11.21541 -11.21378
 Alpha  occ. eigenvalues --  -11.21326 -11.21317 -11.21209 -11.21061 -11.21059
 Alpha  occ. eigenvalues --  -11.21050 -11.20968  -1.08426  -1.08352  -1.03505
 Alpha  occ. eigenvalues --   -1.03490  -0.95995  -0.95900  -0.87003  -0.86937
 Alpha  occ. eigenvalues --   -0.79630  -0.79556  -0.78362  -0.77998  -0.65062
 Alpha  occ. eigenvalues --   -0.64987  -0.60966  -0.60837  -0.59361  -0.59269
 Alpha  occ. eigenvalues --   -0.57728  -0.57413  -0.55296  -0.55181  -0.52714
 Alpha  occ. eigenvalues --   -0.52641  -0.52501  -0.52224  -0.49975  -0.49814
 Alpha  occ. eigenvalues --   -0.48064  -0.47853  -0.46703  -0.46482  -0.46064
 Alpha  occ. eigenvalues --   -0.45746  -0.45540  -0.45142  -0.43757  -0.43728
 Alpha virt. eigenvalues --    0.21365   0.23082   0.23446   0.24130   0.25070
 Alpha virt. eigenvalues --    0.25956   0.26597   0.27886   0.28773   0.29820
 Alpha virt. eigenvalues --    0.30300   0.30932   0.31809   0.32015   0.32336

 Mulliken charges:
               1
     1  C   -0.298225
     2  C   -0.299681
     3  C   -0.475667
     4  H    0.149502
     5  H    0.149545
     6  H    0.151500
     7  H    0.152211
     8  H    0.155231
     9  H    0.155112
    10  H    0.160188
    11  C   -0.299361
    12  C   -0.300097
    13  C   -0.480877
    14  H    0.149122
    15  H    0.151310
    16  H    0.151585
    17  H    0.151397
    18  H    0.155603
    19  H    0.163034
    20  H    0.158601
    21  C   -0.297454
    22  C   -0.302812
    23  C   -0.475493
    24  H    0.148955
    25  H    0.149068
    26  H    0.150538
    27  H    0.156031
    28  H    0.155222
    29  H    0.155020
    30  H    0.160049
    31  C   -0.304101
    32  C   -0.299420
    33  C   -0.476361
    34  H    0.148984
    35  H    0.158643
    36  H    0.151411
    37  H    0.151409
    38  H    0.153907
    39  H    0.156270
    40  H    0.160102
 Sum of Mulliken charges =  -0.00000

 Dipole moment (field-independent basis, Debye):
    X=              0.0060    Y=             -0.0135    Z=              0.0137  Tot=              0.0201
 Quadrupole moment (field-independent basis, Debye-Ang):
   XX=            -86.7494   YY=            -84.9178   ZZ=            -83.3701
   XY=              0.3923   XZ=              0.1380   YZ=              0.1578

 Normal termination of Gaussian 16 at Thu May  6 02:18:03 2021.
