 Gaussian 16, Revision A.03,
 Gaussian 16:  EM64L-G16RevA.03 25-Dec-2016

 -------------
 #p 6-31g* mp2
 -------------

 ------------------------------------------------------
 Input file generated by CHIRIPA (05-May-2021 14:57:25)
 ------------------------------------------------------
 Symbolic Z-matrix:
 Charge =  0 Multiplicity = 1

                         Standard orientation:
 ---------------------------------------------------------------------
 Center     Atomic      Atomic             Coordinates (Angstroms)
 Number     Number       Type             X           Y           Z
 ---------------------------------------------------------------------
      1          6           0       -3.686904   -2.299245    0.625630
      2          6           0       -4.903734   -1.609887    0.600478
      3          6           0       -4.946249   -0.257045    0.250391
      4          6           0       -3.747489    0.378139   -0.070241
      5          6           0       -2.519432   -0.281343   -0.054380
      6          6           0       -2.500728   -1.633946    0.298697
      7          1           0       -3.663126   -3.350072    0.898747
      8          1           0       -5.826500   -2.124008    0.853906
      9          1           0       -5.874425    0.300759    0.222802
     10          1           0       -1.616086    0.258125   -0.311980
     11          1           0       -1.554271   -2.166781    0.317380
     12          7           0       -3.779894    1.810205   -0.442445
     13          8           0       -2.709843    2.347036   -0.720727
     14          8           0       -4.874731    2.368711   -0.448850
     15          6           0        5.368736    1.706212    0.560092
     16          6           0        4.043990    1.784663    1.002148
     17          6           0        3.134067    0.766390    0.702635
     18          6           0        3.584896   -0.320806   -0.044390
     19          6           0        4.898312   -0.427826   -0.499114
     20          6           0        5.790925    0.602165   -0.187810
     21          1           0        6.068863    2.501781    0.797340
     22          1           0        3.713320    2.640897    1.583151
     23          1           0        2.102791    0.801662    1.032248
     24          1           0        5.198516   -1.293831   -1.076463
     25          1           0        6.819142    0.538569   -0.532438
     26          7           0        2.630763   -1.405009   -0.367713
     27          8           0        3.052787   -2.352304   -1.027383
     28          8           0        1.478958   -1.286981    0.044660
 ---------------------------------------------------------------------

 SCF Done:  E(RHF) =  -868.340908463     A.U. after   16 cycles
 E2 =    -0.2598233605D+01 EUMP2 =    -0.87093914206840D+03

 The electronic state is 1-A.
 Alpha  occ. eigenvalues --  -20.61527 -20.61479 -20.60229 -20.60220 -15.86534
 Alpha  occ. eigenvalues --  -15.85267 -11.31558 -11.30389 -11.28088 -11.28079
 Alpha  occ. eigenvalues --  -11.27765 -11.27035 -11.27003 -11.26971 -11.26795
 Alpha  occ. eigenvalues --  -11.26593 -11.25973 -11.25653  -1.60557  -1.59306
 Alpha  occ. eigenvalues --   -1.40125  -1.38866  -1.19697  -1.18521  -1.09155
 Alpha  occ. eigenvalues --   -1.07969  -1.05048  -1.03850  -0.96048  -0.94847
 Alpha  occ. eigenvalues --   -0.86465  -0.85272  -0.82901  -0.81660  -0.77978
 Alpha  occ. eigenvalues --   -0.76735  -0.72780  -0.71850  -0.71495  -0.70805
 Alpha  occ. eigenvalues --   -0.70624  -0.69637  -0.65358  -0.65048  -0.64156
 Alpha  occ. eigenvalues --   -0.63813  -0.62401  -0.61169  -0.55564  -0.54393
 Alpha  occ. eigenvalues --   -0.53395  -0.53137  -0.52245  -0.51904  -0.49533
 Alpha  occ. eigenvalues --   -0.49479  -0.48260  -0.48224  -0.45602  -0.44325
 Alpha  occ. eigenvalues --   -0.37657  -0.36633  -0.36521  -0.35456
 Alpha virt. eigenvalues --    0.04529   0.05735   0.11024   0.12182   0.16090
 Alpha virt. eigenvalues --    0.17295   0.21055   0.22404   0.26858   0.27479
 Alpha virt. eigenvalues --    0.28718   0.29179   0.30887   0.31910   0.32176

 Mulliken charges:
               1
     1  C   -0.172139
     2  C   -0.218733
     3  C   -0.173293
     4  C    0.158161
     5  C   -0.174487
     6  C   -0.225242
     7  H    0.224551
     8  H    0.220044
     9  H    0.272099
    10  H    0.278377
    11  H    0.246486
    12  N    0.488228
    13  O   -0.463743
    14  O   -0.463085
    15  C   -0.169652
    16  C   -0.218172
    17  C   -0.169575
    18  C    0.157715
    19  C   -0.170333
    20  C   -0.218572
    21  H    0.227724
    22  H    0.227008
    23  H    0.275006
    24  H    0.275698
    25  H    0.224756
    26  N    0.492721
    27  O   -0.456640
    28  O   -0.474909
 Sum of Mulliken charges =  -0.00000

 Dipole moment (field-independent basis, Debye):
    X=              3.9992    Y=             -1.2878    Z=              2.4550  Tot=              4.8661
 Quadrupole moment (field-independent basis, Debye-Ang):
   XX=            -74.6522   YY=           -110.8897   ZZ=           -105.3247
   XY=             30.3877   XZ=             -3.6873   YZ=              1.9266

 Normal termination of Gaussian 16 at Thu May  6 09:52:46 2021.
