 Gaussian 16, Revision A.03,
 Gaussian 16:  EM64L-G16RevA.03 25-Dec-2016

 -------------
 #p 6-31g* mp2
 -------------

 ------------------------------------------------------
 Input file generated by CHIRIPA (05-May-2021 14:51:11)
 ------------------------------------------------------
 Symbolic Z-matrix:
 Charge =  0 Multiplicity = 1

                         Standard orientation:
 ---------------------------------------------------------------------
 Center     Atomic      Atomic             Coordinates (Angstroms)
 Number     Number       Type             X           Y           Z
 ---------------------------------------------------------------------
      1          6           0        3.016661    0.549875   -0.206347
      2          6           0        2.764519    1.656193   -1.231271
      3          6           0        1.534718    2.501461   -0.898251
      4          1           0        2.130303   -0.096638   -0.148587
      5          1           0        3.139345    1.001634    0.787764
      6          1           0        2.643723    1.202589   -2.223374
      7          1           0        3.651654    2.300034   -1.286737
      8          1           0        1.649851    2.980655    0.079358
      9          1           0        0.636193    1.876975   -0.862601
     10          1           0        1.373081    3.286232   -1.643817
     11          6           0        4.242709   -0.303726   -0.525566
     12          6           0        4.494850   -1.410044    0.499358
     13          6           0        5.724652   -2.255312    0.166338
     14          1           0        4.120024   -0.755485   -1.519677
     15          1           0        5.129067    0.342787   -0.583326
     16          1           0        3.607716   -2.053885    0.554824
     17          1           0        4.615647   -0.956440    1.491461
     18          1           0        6.623177   -1.630826    0.130688
     19          1           0        5.609518   -2.734506   -0.811271
     20          1           0        5.886288   -3.040083    0.911904
     21          6           0       -3.147812    0.447780    0.525190
     22          6           0       -2.197032    0.134174    1.680895
     23          6           0       -1.239186    1.285829    1.987516
     24          1           0       -2.559080    0.685519   -0.371370
     25          1           0       -3.724657    1.350709    0.768837
     26          1           0       -1.623137   -0.768686    1.435734
     27          1           0       -2.788097   -0.103033    2.574758
     28          1           0       -1.796317    2.188777    2.257495
     29          1           0       -0.624739    1.519341    1.112000
     30          1           0       -0.568588    1.040270    2.816890
     31          6           0       -4.111558   -0.693929    0.206723
     32          6           0       -5.062337   -0.380323   -0.948981
     33          6           0       -6.020184   -1.531977   -1.255603
     34          1           0       -3.534712   -1.596858   -0.036924
     35          1           0       -4.700290   -0.931668    1.103283
     36          1           0       -4.471273   -0.143116   -1.842844
     37          1           0       -5.636232    0.522538   -0.703821
     38          1           0       -6.634631   -1.765490   -0.380088
     39          1           0       -5.463053   -2.434926   -1.525582
     40          1           0       -6.690781   -1.286419   -2.084977
 ---------------------------------------------------------------------

 SCF Done:  E(RHF) =  -470.733109323     A.U. after   11 cycles
 E2 =    -0.1582696151D+01 EUMP2 =    -0.47231580547365D+03

 The electronic state is 1-A.
 Alpha  occ. eigenvalues --  -11.21636 -11.21616 -11.21593 -11.21553 -11.21426
 Alpha  occ. eigenvalues --  -11.21391 -11.21367 -11.21331 -11.21113 -11.21083
 Alpha  occ. eigenvalues --  -11.21066 -11.20924  -1.08456  -1.08405  -1.03567
 Alpha  occ. eigenvalues --   -1.03485  -0.96026  -0.95923  -0.87057  -0.86927
 Alpha  occ. eigenvalues --   -0.79669  -0.79513  -0.78277  -0.78208  -0.65104
 Alpha  occ. eigenvalues --   -0.65024  -0.61017  -0.60851  -0.59377  -0.59308
 Alpha  occ. eigenvalues --   -0.57713  -0.57480  -0.55359  -0.55178  -0.52702
 Alpha  occ. eigenvalues --   -0.52633  -0.52583  -0.52226  -0.50023  -0.49826
 Alpha  occ. eigenvalues --   -0.48077  -0.47729  -0.46709  -0.46521  -0.45867
 Alpha  occ. eigenvalues --   -0.45736  -0.45716  -0.45583  -0.43810  -0.43751
 Alpha virt. eigenvalues --    0.21311   0.23117   0.23552   0.24923   0.25998
 Alpha virt. eigenvalues --    0.26726   0.27125   0.27417   0.27934   0.29097
 Alpha virt. eigenvalues --    0.30666   0.31525   0.31732   0.31843   0.32057

 Mulliken charges:
               1
     1  C   -0.298490
     2  C   -0.299778
     3  C   -0.479480
     4  H    0.149442
     5  H    0.150180
     6  H    0.151754
     7  H    0.152218
     8  H    0.157244
     9  H    0.157394
    10  H    0.160800
    11  C   -0.298309
    12  C   -0.299631
    13  C   -0.475727
    14  H    0.149429
    15  H    0.149776
    16  H    0.151874
    17  H    0.152082
    18  H    0.155226
    19  H    0.155149
    20  H    0.160318
    21  C   -0.298448
    22  C   -0.299364
    23  C   -0.483267
    24  H    0.148825
    25  H    0.149818
    26  H    0.151022
    27  H    0.151700
    28  H    0.154517
    29  H    0.164304
    30  H    0.159602
    31  C   -0.298218
    32  C   -0.299626
    33  C   -0.475686
    34  H    0.149225
    35  H    0.149779
    36  H    0.151831
    37  H    0.152014
    38  H    0.155199
    39  H    0.155071
    40  H    0.160231
 Sum of Mulliken charges =  -0.00000

 Dipole moment (field-independent basis, Debye):
    X=              0.0397    Y=              0.0271    Z=             -0.0127  Tot=              0.0497
 Quadrupole moment (field-independent basis, Debye-Ang):
   XX=            -85.2788   YY=            -85.2164   ZZ=            -84.2448
   XY=              0.1929   XZ=             -0.2656   YZ=              0.2789

 Normal termination of Gaussian 16 at Wed May  5 18:16:58 2021.
