 Gaussian 16, Revision A.03,
 Gaussian 16:  EM64L-G16RevA.03 25-Dec-2016

 -------------
 #p 6-31g* mp2
 -------------

 ------------------------------------------------------
 Input file generated by CHIRIPA (05-May-2021 14:55:25)
 ------------------------------------------------------
 Symbolic Z-matrix:
 Charge =  0 Multiplicity = 1

                         Standard orientation:
 ---------------------------------------------------------------------
 Center     Atomic      Atomic             Coordinates (Angstroms)
 Number     Number       Type             X           Y           Z
 ---------------------------------------------------------------------
      1          6           0       -3.846586    1.737406   -0.179113
      2          6           0       -4.504576    0.525320    0.054165
      3          6           0       -3.782279   -0.667954    0.148667
      4          6           0       -2.396877   -0.612277    0.004265
      5          6           0       -1.712491    0.579605   -0.228810
      6          6           0       -2.455096    1.760639   -0.319608
      7          1           0       -4.415571    2.659616   -0.251086
      8          1           0       -5.585135    0.504269    0.163685
      9          1           0       -4.266248   -1.620207    0.328685
     10          1           0       -0.634388    0.568887   -0.333674
     11          1           0       -1.941428    2.700504   -0.500835
     12          7           0       -1.621464   -1.869064    0.102350
     13          8           0       -0.401724   -1.793245   -0.028507
     14          8           0       -2.248118   -2.906154    0.308228
     15          6           0        3.670302   -0.043156    0.289836
     16          6           0        3.663503   -1.299213   -0.582094
     17          6           0        4.545827   -2.414078   -0.019623
     18          1           0        4.702305    0.319754    0.390886
     19          1           0        3.330809   -0.305619    1.301396
     20          1           0        4.001589   -1.034191   -1.592082
     21          1           0        2.631373   -1.659065   -0.681237
     22          1           0        4.206624   -2.706898    0.979276
     23          1           0        5.584626   -2.078473    0.063256
     24          1           0        4.526268   -3.302489   -0.658530
     25          6           0        2.792866    1.080322   -0.259372
     26          6           0        2.799664    2.336379    0.612558
     27          6           0        1.917341    3.451243    0.050087
     28          1           0        3.132360    1.342784   -1.270932
     29          1           0        1.760863    0.717412   -0.360422
     30          1           0        3.831795    2.696231    0.711701
     31          1           0        2.461578    2.071356    1.622546
     32          1           0        0.878542    3.115639   -0.032792
     33          1           0        2.256544    3.744064   -0.948812
     34          1           0        1.936899    4.339655    0.688994
 ---------------------------------------------------------------------

 SCF Done:  E(RHF) =  -669.535887971     A.U. after   15 cycles
 E2 =    -0.2092650065D+01 EUMP2 =    -0.67162853803631D+03

 The electronic state is 1-A.
 Alpha  occ. eigenvalues --  -20.60907 -20.60899 -15.85951 -11.31249 -11.27813
 Alpha  occ. eigenvalues --  -11.27797 -11.27545 -11.26818 -11.26800 -11.21751
 Alpha  occ. eigenvalues --  -11.21608 -11.21316 -11.20919 -11.20720 -11.20295
 Alpha  occ. eigenvalues --   -1.59971  -1.39528  -1.19417  -1.08824  -1.08179
 Alpha  occ. eigenvalues --   -1.04813  -1.03262  -0.95773  -0.95670  -0.86799
 Alpha  occ. eigenvalues --   -0.86214  -0.82507  -0.79397  -0.77927  -0.77521
 Alpha  occ. eigenvalues --   -0.72175  -0.71287  -0.70537  -0.65076  -0.64923
 Alpha  occ. eigenvalues --   -0.64717  -0.62173  -0.60627  -0.59209  -0.57338
 Alpha  occ. eigenvalues --   -0.55320  -0.55095  -0.53143  -0.52926  -0.52475
 Alpha  occ. eigenvalues --   -0.52177  -0.49739  -0.48934  -0.48922  -0.47688
 Alpha  occ. eigenvalues --   -0.46417  -0.45439  -0.45246  -0.44943  -0.43509
 Alpha  occ. eigenvalues --   -0.37395  -0.36410
 Alpha virt. eigenvalues --    0.04967   0.11242   0.16455   0.18931   0.23194
 Alpha virt. eigenvalues --    0.24082   0.25498   0.26058   0.27443   0.28370
 Alpha virt. eigenvalues --    0.29483   0.31049   0.31660   0.31984   0.32402

 Mulliken charges:
               1
     1  C   -0.170078
     2  C   -0.219289
     3  C   -0.169116
     4  C    0.154605
     5  C   -0.179367
     6  C   -0.226709
     7  H    0.226162
     8  H    0.223687
     9  H    0.275766
    10  H    0.293609
    11  H    0.227256
    12  N    0.490769
    13  O   -0.467611
    14  O   -0.458998
    15  C   -0.295768
    16  C   -0.308926
    17  C   -0.475203
    18  H    0.146637
    19  H    0.152466
    20  H    0.146477
    21  H    0.176318
    22  H    0.157527
    23  H    0.150048
    24  H    0.160981
    25  C   -0.308437
    26  C   -0.299970
    27  C   -0.475654
    28  H    0.149054
    29  H    0.154900
    30  H    0.154402
    31  H    0.153720
    32  H    0.141521
    33  H    0.157374
    34  H    0.161845
 Sum of Mulliken charges =  -0.00000

 Dipole moment (field-independent basis, Debye):
    X=             -2.7710    Y=              4.2854    Z=             -0.3166  Tot=              5.1131
 Quadrupole moment (field-independent basis, Debye-Ang):
   XX=            -78.0469   YY=           -100.0344   ZZ=            -95.3594
   XY=             -5.8467   XZ=             -0.3940   YZ=             -0.1512

 Normal termination of Gaussian 16 at Wed May  5 19:13:12 2021.
