 Gaussian 16, Revision A.03,
 Gaussian 16:  EM64L-G16RevA.03 25-Dec-2016

 -------------
 #p 6-31g* mp2
 -------------

 ------------------------------------------------------
 Input file generated by CHIRIPA (05-May-2021 14:53:15)
 ------------------------------------------------------
 Symbolic Z-matrix:
 Charge =  0 Multiplicity = 1

                         Standard orientation:
 ---------------------------------------------------------------------
 Center     Atomic      Atomic             Coordinates (Angstroms)
 Number     Number       Type             X           Y           Z
 ---------------------------------------------------------------------
      1          6           0       -3.313332    0.221190   -0.132215
      2          6           0       -2.882024    1.629195   -0.543897
      3          6           0       -1.368541    1.831004   -0.463675
      4          1           0       -2.969512    0.024159    0.892437
      5          1           0       -2.809987   -0.512251   -0.777275
      6          1           0       -3.387099    2.359825    0.100847
      7          1           0       -3.227077    1.822968   -1.567619
      8          1           0       -0.850363    1.124581   -1.120225
      9          1           0       -1.011295    1.664487    0.557721
     10          1           0       -1.082250    2.844289   -0.762257
     11          6           0       -4.823610    0.004014   -0.207186
     12          6           0       -5.254918   -1.403991    0.204496
     13          6           0       -6.768401   -1.605800    0.124273
     14          1           0       -5.326955    0.737455    0.437874
     15          1           0       -5.167430    0.201045   -1.231838
     16          1           0       -4.909865   -1.597764    1.228218
     17          1           0       -4.749842   -2.134621   -0.440248
     18          1           0       -7.125647   -1.439283   -0.897122
     19          1           0       -7.286579   -0.899376    0.780824
     20          1           0       -7.054692   -2.619085    0.422856
     21          6           0        2.031969    2.062719    0.785221
     22          6           0        2.649732    1.950129   -0.464664
     23          6           0        3.287974    0.763261   -0.836875
     24          6           0        3.289334   -0.295892    0.069483
     25          6           0        2.682689   -0.214523    1.321941
     26          6           0        2.050386    0.981939    1.672970
     27          1           0        1.538475    2.988433    1.066135
     28          1           0        2.637001    2.787844   -1.156124
     29          1           0        3.774032    0.648913   -1.798171
     30          1           0        2.711936   -1.066805    1.989906
     31          1           0        1.571441    1.066529    2.644309
     32          7           0        3.961868   -1.557454   -0.313347
     33          8           0        3.949088   -2.476041    0.503152
     34          8           0        4.489045   -1.603790   -1.422659
 ---------------------------------------------------------------------

 SCF Done:  E(RHF) =  -669.535277171     A.U. after   15 cycles
 E2 =    -0.2091755872D+01 EUMP2 =    -0.67162703304324D+03

 The electronic state is 1-A.
 Alpha  occ. eigenvalues --  -20.60740 -20.60735 -15.85795 -11.31145 -11.27738
 Alpha  occ. eigenvalues --  -11.27734 -11.27467 -11.26733 -11.26722 -11.22030
 Alpha  occ. eigenvalues --  -11.21804 -11.21731 -11.21635 -11.21630 -11.21238
 Alpha  occ. eigenvalues --   -1.59817  -1.39371  -1.19332  -1.08765  -1.08713
 Alpha  occ. eigenvalues --   -1.04737  -1.03867  -0.96333  -0.95557  -0.87349
 Alpha  occ. eigenvalues --   -0.86135  -0.82395  -0.79934  -0.78548  -0.77442
 Alpha  occ. eigenvalues --   -0.72014  -0.71141  -0.70443  -0.65382  -0.64987
 Alpha  occ. eigenvalues --   -0.64741  -0.62088  -0.61265  -0.59712  -0.57936
 Alpha  occ. eigenvalues --   -0.55643  -0.55215  -0.53360  -0.52957  -0.52831
 Alpha  occ. eigenvalues --   -0.52535  -0.50264  -0.48771  -0.48769  -0.48237
 Alpha  occ. eigenvalues --   -0.46961  -0.46095  -0.46009  -0.44780  -0.44131
 Alpha  occ. eigenvalues --   -0.37231  -0.36336
 Alpha virt. eigenvalues --    0.05093   0.11228   0.16573   0.20941   0.22638
 Alpha virt. eigenvalues --    0.24048   0.26279   0.26951   0.27035   0.27434
 Alpha virt. eigenvalues --    0.28891   0.30725   0.31042   0.31412   0.31858

 Mulliken charges:
               1
     1  C   -0.298207
     2  C   -0.300838
     3  C   -0.474358
     4  H    0.147999
     5  H    0.152100
     6  H    0.150536
     7  H    0.153177
     8  H    0.160727
     9  H    0.150905
    10  H    0.152239
    11  C   -0.298468
    12  C   -0.299946
    13  C   -0.475895
    14  H    0.148948
    15  H    0.150426
    16  H    0.151621
    17  H    0.153539
    18  H    0.155640
    19  H    0.154822
    20  H    0.161324
    21  C   -0.163697
    22  C   -0.218903
    23  C   -0.171403
    24  C    0.158000
    25  C   -0.170626
    26  C   -0.220059
    27  H    0.226476
    28  H    0.223374
    29  H    0.275461
    30  H    0.275477
    31  H    0.222834
    32  N    0.488124
    33  O   -0.460632
    34  O   -0.460717
 Sum of Mulliken charges =  -0.00000

 Dipole moment (field-independent basis, Debye):
    X=             -2.4017    Y=              4.4140    Z=              1.3263  Tot=              5.1972
 Quadrupole moment (field-independent basis, Debye-Ang):
   XX=           -111.9202   YY=            -97.3027   ZZ=            -89.8938
   XY=             15.9336   XZ=              3.0073   YZ=             -1.7845

 Normal termination of Gaussian 16 at Thu May  6 04:16:12 2021.
