 Gaussian 16, Revision A.03,
 Gaussian 16:  EM64L-G16RevA.03 25-Dec-2016

 -------------
 #p 6-31g* mp2
 -------------

 ------------------------------------------------------
 Input file generated by CHIRIPA (05-May-2021 14:57:24)
 ------------------------------------------------------
 Symbolic Z-matrix:
 Charge =  0 Multiplicity = 1

                         Standard orientation:
 ---------------------------------------------------------------------
 Center     Atomic      Atomic             Coordinates (Angstroms)
 Number     Number       Type             X           Y           Z
 ---------------------------------------------------------------------
      1          6           0       -3.952241    2.251801    0.132339
      2          6           0       -3.011586    2.082398   -0.888931
      3          6           0       -2.366385    0.854466   -1.063424
      4          6           0       -2.687397   -0.187370   -0.194620
      5          6           0       -3.620032   -0.049729    0.832286
      6          6           0       -4.252932    1.187075    0.988179
      7          1           0       -4.448670    3.209134    0.260664
      8          1           0       -2.776083    2.907523   -1.555077
      9          1           0       -1.634135    0.695842   -1.845770
     10          1           0       -3.833911   -0.890751    1.480635
     11          1           0       -4.983035    1.315756    1.782178
     12          7           0       -2.010863   -1.492022   -0.369502
     13          8           0       -2.311304   -2.394266    0.409169
     14          8           0       -1.192965   -1.587662   -1.281935
     15          6           0        3.910820    2.231812    0.009686
     16          6           0        3.374198    1.798296    1.226493
     17          6           0        2.755838    0.548276    1.324621
     18          6           0        2.691401   -0.246090    0.180890
     19          6           0        3.216622    0.157750   -1.045629
     20          6           0        3.830461    1.411601   -1.120500
     21          1           0        4.389420    3.204346   -0.057509
     22          1           0        3.435160    2.433171    2.105847
     23          1           0        2.332083    0.187882    2.254119
     24          1           0        3.140622   -0.497375   -1.904962
     25          1           0        4.246337    1.745678   -2.066799
     26          7           0        2.039164   -1.571458    0.272462
     27          8           0        1.995253   -2.252509   -0.749730
     28          8           0        1.584202   -1.904133    1.364696
 ---------------------------------------------------------------------

 SCF Done:  E(RHF) =  -868.335030412     A.U. after   16 cycles
 E2 =    -0.2601526531D+01 EUMP2 =    -0.87093655694379D+03

 The electronic state is 1-A.
 Alpha  occ. eigenvalues --  -20.59948 -20.59929 -20.59824 -20.59711 -15.85009
 Alpha  occ. eigenvalues --  -15.84833 -11.30759 -11.30670 -11.27397 -11.27349
 Alpha  occ. eigenvalues --  -11.27306 -11.27270 -11.27193 -11.27134 -11.26495
 Alpha  occ. eigenvalues --  -11.26458 -11.26426 -11.26407  -1.59004  -1.58816
 Alpha  occ. eigenvalues --   -1.38555  -1.38367  -1.18969  -1.18889  -1.08292
 Alpha  occ. eigenvalues --   -1.08196  -1.04430  -1.04360  -0.95062  -0.94947
 Alpha  occ. eigenvalues --   -0.85810  -0.85734  -0.81897  -0.81782  -0.76879
 Alpha  occ. eigenvalues --   -0.76746  -0.71268  -0.71024  -0.70543  -0.70079
 Alpha  occ. eigenvalues --   -0.69992  -0.69926  -0.64613  -0.64527  -0.64438
 Alpha  occ. eigenvalues --   -0.64366  -0.61774  -0.61697  -0.54922  -0.54851
 Alpha  occ. eigenvalues --   -0.52748  -0.52665  -0.52527  -0.52456  -0.48054
 Alpha  occ. eigenvalues --   -0.47959  -0.47785  -0.47723  -0.44065  -0.43451
 Alpha  occ. eigenvalues --   -0.36984  -0.36891  -0.36053  -0.35992
 Alpha virt. eigenvalues --    0.05652   0.05819   0.11595   0.11656   0.17077
 Alpha virt. eigenvalues --    0.17219   0.21678   0.21750   0.27560   0.27630
 Alpha virt. eigenvalues --    0.28596   0.28698   0.31153   0.31305   0.32837

 Mulliken charges:
               1
     1  C   -0.172366
     2  C   -0.218588
     3  C   -0.172585
     4  C    0.159521
     5  C   -0.170801
     6  C   -0.218748
     7  H    0.223117
     8  H    0.220295
     9  H    0.273682
    10  H    0.276999
    11  H    0.222089
    12  N    0.487797
    13  O   -0.453706
    14  O   -0.456622
    15  C   -0.172993
    16  C   -0.218906
    17  C   -0.172876
    18  C    0.159557
    19  C   -0.171495
    20  C   -0.219682
    21  H    0.222536
    22  H    0.220670
    23  H    0.274800
    24  H    0.277706
    25  H    0.221170
    26  N    0.488415
    27  O   -0.446271
    28  O   -0.462713
 Sum of Mulliken charges =  -0.00000

 Dipole moment (field-independent basis, Debye):
    X=             -0.1283    Y=              8.8394    Z=              0.2245  Tot=              8.8432
 Quadrupole moment (field-independent basis, Debye-Ang):
   XX=            -80.4560   YY=           -109.2356   ZZ=            -97.9447
   XY=              0.9229   XZ=             -5.3997   YZ=             -0.6792

 Normal termination of Gaussian 16 at Thu May  6 08:16:26 2021.
