 Gaussian 16, Revision A.03,
 Gaussian 16:  EM64L-G16RevA.03 25-Dec-2016

 -------------
 #p 6-31g* mp2
 -------------

 ------------------------------------------------------
 Input file generated by CHIRIPA (05-May-2021 14:55:19)
 ------------------------------------------------------
 Symbolic Z-matrix:
 Charge =  0 Multiplicity = 1

                         Standard orientation:
 ---------------------------------------------------------------------
 Center     Atomic      Atomic             Coordinates (Angstroms)
 Number     Number       Type             X           Y           Z
 ---------------------------------------------------------------------
      1          6           0        3.847506    2.284386   -0.616855
      2          6           0        4.036746    1.091001   -1.321512
      3          6           0        3.440632   -0.094945   -0.882504
      4          6           0        2.658029   -0.051087    0.270275
      5          6           0        2.450605    1.122104    0.994076
      6          6           0        3.056434    2.296108    0.536656
      7          1           0        4.314355    3.201019   -0.965039
      8          1           0        4.650589    1.078921   -2.217668
      9          1           0        3.570477   -1.032773   -1.408847
     10          1           0        1.833276    1.102784    1.883992
     11          1           0        2.907721    3.221445    1.085912
     12          7           0        2.021807   -1.300274    0.744779
     13          8           0        1.336909   -1.235158    1.763264
     14          8           0        2.220081   -2.320849    0.089225
     15          6           0       -3.103387   -0.618556   -0.713929
     16          6           0       -2.097723   -1.504139    0.022526
     17          6           0       -1.238588   -2.339173   -0.927422
     18          1           0       -3.751216   -1.250242   -1.337014
     19          1           0       -2.561699    0.046733   -1.400487
     20          1           0       -2.641044   -2.166601    0.708503
     21          1           0       -1.452336   -0.870289    0.644078
     22          1           0       -0.671163   -1.691537   -1.603586
     23          1           0       -1.866625   -2.995214   -1.538796
     24          1           0       -0.526723   -2.964735   -0.379898
     25          6           0       -3.969602    0.222283    0.222228
     26          6           0       -4.975265    1.107867   -0.514227
     27          6           0       -5.834400    1.942899    0.435720
     28          1           0       -4.511289   -0.443005    0.908786
     29          1           0       -3.321772    0.853970    0.845313
     30          1           0       -5.620652    0.474016   -1.135779
     31          1           0       -4.431943    1.770328   -1.200203
     32          1           0       -5.206363    2.598941    1.047095
     33          1           0       -6.401825    1.295264    1.111886
     34          1           0       -6.546264    2.568462   -0.111803
 ---------------------------------------------------------------------

 SCF Done:  E(RHF) =  -669.536358165     A.U. after   15 cycles
 E2 =    -0.2092269044D+01 EUMP2 =    -0.67162862720854D+03

 The electronic state is 1-A.
 Alpha  occ. eigenvalues --  -20.61005 -20.60995 -15.85999 -11.31318 -11.27877
 Alpha  occ. eigenvalues --  -11.27870 -11.27611 -11.26880 -11.26870 -11.21232
 Alpha  occ. eigenvalues --  -11.20851 -11.20797 -11.20652 -11.20460 -11.19741
 Alpha  occ. eigenvalues --   -1.60040  -1.39598  -1.19481  -1.08888  -1.07769
 Alpha  occ. eigenvalues --   -1.04875  -1.02786  -0.95735  -0.95241  -0.86280
 Alpha  occ. eigenvalues --   -0.86262  -0.82567  -0.78885  -0.77626  -0.77527
 Alpha  occ. eigenvalues --   -0.72224  -0.71361  -0.70590  -0.65137  -0.64878
 Alpha  occ. eigenvalues --   -0.64418  -0.62222  -0.60202  -0.58637  -0.56804
 Alpha  occ. eigenvalues --   -0.55379  -0.54571  -0.53208  -0.52967  -0.51889
 Alpha  occ. eigenvalues --   -0.51673  -0.49257  -0.48994  -0.48950  -0.47184
 Alpha  occ. eigenvalues --   -0.46032  -0.45294  -0.45064  -0.44631  -0.42972
 Alpha  occ. eigenvalues --   -0.37456  -0.36475
 Alpha virt. eigenvalues --    0.04859   0.11173   0.16323   0.21295   0.23415
 Alpha virt. eigenvalues --    0.25011   0.27148   0.27273   0.27985   0.28343
 Alpha virt. eigenvalues --    0.28750   0.30861   0.32043   0.32124   0.32659

 Mulliken charges:
               1
     1  C   -0.170529
     2  C   -0.218604
     3  C   -0.170765
     4  C    0.159150
     5  C   -0.171216
     6  C   -0.218586
     7  H    0.226113
     8  H    0.223992
     9  H    0.276218
    10  H    0.275770
    11  H    0.223907
    12  N    0.489176
    13  O   -0.459304
    14  O   -0.458116
    15  C   -0.297456
    16  C   -0.301407
    17  C   -0.483817
    18  H    0.147475
    19  H    0.144407
    20  H    0.151506
    21  H    0.158147
    22  H    0.144221
    23  H    0.148331
    24  H    0.186447
    25  C   -0.296935
    26  C   -0.298814
    27  C   -0.475076
    28  H    0.150006
    29  H    0.147335
    30  H    0.151607
    31  H    0.149440
    32  H    0.153412
    33  H    0.155512
    34  H    0.158452
 Sum of Mulliken charges =  -0.00000

 Dipole moment (field-independent basis, Debye):
    X=              2.5359    Y=              4.2874    Z=             -1.5515  Tot=              5.2172
 Quadrupole moment (field-independent basis, Debye-Ang):
   XX=            -83.2741   YY=            -94.0208   ZZ=            -93.5656
   XY=             11.7826   XZ=             -5.7011   YZ=              2.8834

 Normal termination of Gaussian 16 at Wed May  5 18:51:49 2021.
