 Gaussian 16, Revision A.03,
 Gaussian 16:  EM64L-G16RevA.03 25-Dec-2016

 -------------
 #p 6-31g* mp2
 -------------

 ------------------------------------------------------
 Input file generated by CHIRIPA (05-May-2021 14:53:16)
 ------------------------------------------------------
 Symbolic Z-matrix:
 Charge =  0 Multiplicity = 1

                         Standard orientation:
 ---------------------------------------------------------------------
 Center     Atomic      Atomic             Coordinates (Angstroms)
 Number     Number       Type             X           Y           Z
 ---------------------------------------------------------------------
      1          6           0       -3.263429    0.753323   -0.099383
      2          6           0       -3.751455    2.178795   -0.359854
      3          6           0       -2.613058    3.199345   -0.377900
      4          1           0       -2.728617    0.725188    0.859852
      5          1           0       -2.533457    0.476110   -0.872486
      6          1           0       -4.481323    2.452735    0.412716
      7          1           0       -4.285332    2.203499   -1.318488
      8          1           0       -1.887585    2.953426   -1.160085
      9          1           0       -2.084690    3.204078    0.580956
     10          1           0       -2.984335    4.211647   -0.565671
     11          6           0       -4.389913   -0.278337   -0.078388
     12          6           0       -3.901887   -1.703809    0.182083
     13          6           0       -5.040283   -2.724359    0.200130
     14          1           0       -5.119885   -0.001124    0.694716
     15          1           0       -4.924724   -0.250202   -1.037622
     16          1           0       -3.368009   -1.728513    1.140717
     17          1           0       -3.172018   -1.977749   -0.590487
     18          1           0       -5.568652   -2.729092   -0.758727
     19          1           0       -5.765756   -2.478440    0.982314
     20          1           0       -4.669006   -3.736661    0.387900
     21          6           0        0.484994   -0.269182    0.362610
     22          6           0        1.200238    0.861296    0.771224
     23          6           0        2.588198    0.918613    0.613639
     24          6           0        3.231721   -0.177455    0.041099
     25          6           0        2.547048   -1.317879   -0.375972
     26          6           0        1.159493   -1.353250   -0.208677
     27          1           0       -0.593048   -0.305183    0.488797
     28          1           0        0.679050    1.704677    1.215202
     29          1           0        3.166571    1.781351    0.921187
     30          1           0        3.094367   -2.143024   -0.815285
     31          1           0        0.606610   -2.232499   -0.526933
     32          7           0        4.700877   -0.128393   -0.130869
     33          8           0        5.244376   -1.107182   -0.638035
     34          8           0        5.281084    0.887922    0.244766
 ---------------------------------------------------------------------

 SCF Done:  E(RHF) =  -669.535332872     A.U. after   15 cycles
 E2 =    -0.2092293428D+01 EUMP2 =    -0.67162762629999D+03

 The electronic state is 1-A.
 Alpha  occ. eigenvalues --  -20.60664 -20.60659 -15.85718 -11.31048 -11.27624
 Alpha  occ. eigenvalues --  -11.27620 -11.27226 -11.26606 -11.26594 -11.22776
 Alpha  occ. eigenvalues --  -11.22753 -11.22649 -11.22482 -11.22098 -11.21975
 Alpha  occ. eigenvalues --   -1.59741  -1.39296  -1.19214  -1.09615  -1.08600
 Alpha  occ. eigenvalues --   -1.04622  -1.04599  -0.97053  -0.95447  -0.88062
 Alpha  occ. eigenvalues --   -0.86009  -0.82299  -0.80686  -0.79512  -0.77347
 Alpha  occ. eigenvalues --   -0.71935  -0.71065  -0.70291  -0.66224  -0.64858
 Alpha  occ. eigenvalues --   -0.64622  -0.61997  -0.61960  -0.60415  -0.58707
 Alpha  occ. eigenvalues --   -0.56330  -0.55153  -0.53691  -0.53420  -0.52947
 Alpha  occ. eigenvalues --   -0.52700  -0.50981  -0.48991  -0.48693  -0.48692
 Alpha  occ. eigenvalues --   -0.47713  -0.46936  -0.46896  -0.44887  -0.44709
 Alpha  occ. eigenvalues --   -0.37166  -0.36233
 Alpha virt. eigenvalues --    0.05175   0.11407   0.16619   0.19653   0.22373
 Alpha virt. eigenvalues --    0.22600   0.24827   0.25313   0.26359   0.28153
 Alpha virt. eigenvalues --    0.29356   0.30366   0.30908   0.31369   0.31781

 Mulliken charges:
               1
     1  C   -0.307609
     2  C   -0.298980
     3  C   -0.478271
     4  H    0.143400
     5  H    0.150802
     6  H    0.155448
     7  H    0.156722
     8  H    0.158435
     9  H    0.149490
    10  H    0.166048
    11  C   -0.297278
    12  C   -0.303313
    13  C   -0.475932
    14  H    0.153571
    15  H    0.154253
    16  H    0.150005
    17  H    0.148057
    18  H    0.158167
    19  H    0.158265
    20  H    0.162355
    21  C   -0.178039
    22  C   -0.223442
    23  C   -0.170919
    24  C    0.157918
    25  C   -0.170734
    26  C   -0.222263
    27  H    0.240737
    28  H    0.223832
    29  H    0.275085
    30  H    0.274879
    31  H    0.223079
    32  N    0.488052
    33  O   -0.460941
    34  O   -0.460879
 Sum of Mulliken charges =  -0.00000

 Dipole moment (field-independent basis, Debye):
    X=             -5.5605    Y=             -0.1186    Z=              0.5353  Tot=              5.5874
 Quadrupole moment (field-independent basis, Debye-Ang):
   XX=           -128.0866   YY=            -90.8911   ZZ=            -93.5991
   XY=             -0.2242   XZ=              1.9123   YZ=              2.0696

 Normal termination of Gaussian 16 at Thu May  6 04:18:58 2021.
