 Gaussian 16, Revision A.03,
 Gaussian 16:  EM64L-G16RevA.03 25-Dec-2016

 -------------
 #p 6-31g* mp2
 -------------

 ------------------------------------------------------
 Input file generated by CHIRIPA (05-May-2021 14:53:11)
 ------------------------------------------------------
 Symbolic Z-matrix:
 Charge =  0 Multiplicity = 1

                         Standard orientation:
 ---------------------------------------------------------------------
 Center     Atomic      Atomic             Coordinates (Angstroms)
 Number     Number       Type             X           Y           Z
 ---------------------------------------------------------------------
      1          6           0        2.068623    1.241019    0.376162
      2          6           0        1.418690    1.424058    1.748047
      3          6           0        0.488508    2.636232    1.804516
      4          1           0        2.631402    2.149102    0.120014
      5          1           0        1.281729    1.136238   -0.383583
      6          1           0        2.206583    1.527078    2.505165
      7          1           0        0.857551    0.515360    2.001043
      8          1           0       -0.317842    2.537576    1.070577
      9          1           0        1.038855    3.555042    1.577563
     10          1           0        0.034675    2.748266    2.794134
     11          6           0        3.001337    0.033311    0.303957
     12          6           0        3.651270   -0.149727   -1.067928
     13          6           0        4.581452   -1.361902   -1.124397
     14          1           0        3.788232    0.138093    1.063702
     15          1           0        2.438558   -0.874771    0.560105
     16          1           0        4.212410    0.758970   -1.320924
     17          1           0        2.863377   -0.252748   -1.825046
     18          1           0        4.031106   -2.280712   -0.897444
     19          1           0        5.387803   -1.263246   -0.390458
     20          1           0        5.035285   -1.473936   -2.114015
     21          6           0       -1.242179   -2.429281    1.180080
     22          6           0       -0.398034   -1.943834    0.175947
     23          6           0       -0.796706   -0.874120   -0.631097
     24          6           0       -2.051827   -0.311055   -0.405441
     25          6           0       -2.915437   -0.772272    0.586903
     26          6           0       -2.495976   -1.842985    1.381996
     27          1           0       -0.924405   -3.260648    1.802369
     28          1           0        0.576231   -2.397209    0.016873
     29          1           0       -0.163110   -0.478496   -1.415607
     30          1           0       -3.880852   -0.299783    0.721618
     31          1           0       -3.153638   -2.217914    2.161069
     32          7           0       -2.484888    0.821932   -1.253498
     33          8           0       -3.595531    1.300649   -1.034553
     34          8           0       -1.705478    1.209795   -2.121091
 ---------------------------------------------------------------------

 SCF Done:  E(RHF) =  -669.534362088     A.U. after   15 cycles
 E2 =    -0.2095599413D+01 EUMP2 =    -0.67162996150095D+03

 The electronic state is 1-A.
 Alpha  occ. eigenvalues --  -20.60893 -20.60885 -15.85938 -11.31304 -11.27876
 Alpha  occ. eigenvalues --  -11.27869 -11.27621 -11.26879 -11.26870 -11.22096
 Alpha  occ. eigenvalues --  -11.21838 -11.21631 -11.21607 -11.21501 -11.20963
 Alpha  occ. eigenvalues --   -1.59962  -1.39515  -1.19489  -1.08880  -1.08745
 Alpha  occ. eigenvalues --   -1.04891  -1.03782  -0.96238  -0.95709  -0.87248
 Alpha  occ. eigenvalues --   -0.86290  -0.82544  -0.79867  -0.78528  -0.77599
 Alpha  occ. eigenvalues --   -0.72153  -0.71290  -0.70606  -0.65512  -0.65105
 Alpha  occ. eigenvalues --   -0.64906  -0.62192  -0.61204  -0.59612  -0.57833
 Alpha  occ. eigenvalues --   -0.55594  -0.55324  -0.53198  -0.53033  -0.52894
 Alpha  occ. eigenvalues --   -0.52634  -0.50168  -0.48915  -0.48909  -0.48164
 Alpha  occ. eigenvalues --   -0.46928  -0.46045  -0.45972  -0.44885  -0.44041
 Alpha  occ. eigenvalues --   -0.37442  -0.36421
 Alpha virt. eigenvalues --    0.04913   0.11034   0.16315   0.19090   0.23224
 Alpha virt. eigenvalues --    0.23651   0.24889   0.25740   0.27557   0.28441
 Alpha virt. eigenvalues --    0.29725   0.30774   0.31167   0.31564   0.32116

 Mulliken charges:
               1
     1  C   -0.301844
     2  C   -0.302789
     3  C   -0.475420
     4  H    0.153656
     5  H    0.153204
     6  H    0.150203
     7  H    0.152608
     8  H    0.158044
     9  H    0.157048
    10  H    0.158924
    11  C   -0.302250
    12  C   -0.301226
    13  C   -0.474541
    14  H    0.152220
    15  H    0.140628
    16  H    0.157773
    17  H    0.148391
    18  H    0.147791
    19  H    0.157534
    20  H    0.163484
    21  C   -0.171677
    22  C   -0.219146
    23  C   -0.171375
    24  C    0.158494
    25  C   -0.170363
    26  C   -0.218429
    27  H    0.226554
    28  H    0.225812
    29  H    0.278451
    30  H    0.276206
    31  H    0.224097
    32  N    0.488401
    33  O   -0.459305
    34  O   -0.461157
 Sum of Mulliken charges =  -0.00000

 Dipole moment (field-independent basis, Debye):
    X=              1.4778    Y=             -3.9107    Z=              2.9682  Tot=              5.1272
 Quadrupole moment (field-independent basis, Debye-Ang):
   XX=            -96.9320   YY=            -93.1627   ZZ=            -96.5530
   XY=              8.9219   XZ=             -9.1230   YZ=              0.6386

 Normal termination of Gaussian 16 at Wed May  5 18:29:50 2021.
