 Gaussian 16, Revision A.03,
 Gaussian 16:  EM64L-G16RevA.03 25-Dec-2016

 -------------
 #p 6-31g* mp2
 -------------

 ------------------------------------------------------
 Input file generated by CHIRIPA (05-May-2021 14:55:23)
 ------------------------------------------------------
 Symbolic Z-matrix:
 Charge =  0 Multiplicity = 1

                         Standard orientation:
 ---------------------------------------------------------------------
 Center     Atomic      Atomic             Coordinates (Angstroms)
 Number     Number       Type             X           Y           Z
 ---------------------------------------------------------------------
      1          6           0        1.285292   -1.999240    1.793504
      2          6           0        1.416264   -0.632070    2.058484
      3          6           0        1.968814    0.226511    1.103458
      4          6           0        2.381802   -0.318362   -0.111385
      5          6           0        2.264566   -1.676034   -0.405108
      6          6           0        1.709114   -2.515948    0.564720
      7          1           0        0.854930   -2.658956    2.541140
      8          1           0        1.087976   -0.228008    3.011902
      9          1           0        2.081904    1.288875    1.282376
     10          1           0        2.600860   -2.049524   -1.364707
     11          1           0        1.608625   -3.577296    0.356185
     12          7           0        2.968299    0.580698   -1.130264
     13          8           0        3.324510    0.075927   -2.192788
     14          8           0        3.060679    1.773128   -0.847044
     15          6           0       -2.766060    1.209502    0.355679
     16          6           0       -1.345957    1.738906    0.153140
     17          6           0       -1.043075    2.964058    1.016310
     18          1           0       -3.484548    2.008256    0.126089
     19          1           0       -2.907943    0.956612    1.415544
     20          1           0       -1.206348    1.989423   -0.906278
     21          1           0       -0.630772    0.938741    0.383055
     22          1           0       -1.154771    2.724005    2.078618
     23          1           0       -1.733617    3.780655    0.781960
     24          1           0       -0.022733    3.325966    0.855736
     25          6           0       -3.083900   -0.015163   -0.500417
     26          6           0       -4.504003   -0.544569   -0.297877
     27          6           0       -4.806885   -1.769720   -1.161047
     28          1           0       -2.942017    0.237726   -1.560280
     29          1           0       -2.365413   -0.813919   -0.270827
     30          1           0       -5.219188    0.255597   -0.527792
     31          1           0       -4.643612   -0.795085    0.761541
     32          1           0       -4.116344   -2.586319   -0.926697
     33          1           0       -4.695189   -1.529666   -2.223355
     34          1           0       -5.827228   -2.131629   -1.000473
 ---------------------------------------------------------------------

 SCF Done:  E(RHF) =  -669.534946677     A.U. after   15 cycles
 E2 =    -0.2093321018D+01 EUMP2 =    -0.67162826769455D+03

 The electronic state is 1-A.
 Alpha  occ. eigenvalues --  -20.60819 -20.60814 -15.85872 -11.31249 -11.27839
 Alpha  occ. eigenvalues --  -11.27823 -11.27599 -11.26854 -11.26844 -11.21767
 Alpha  occ. eigenvalues --  -11.21529 -11.21496 -11.21441 -11.21259 -11.21179
 Alpha  occ. eigenvalues --   -1.59891  -1.39445  -1.19453  -1.08833  -1.08531
 Alpha  occ. eigenvalues --   -1.04866  -1.03635  -0.96110  -0.95663  -0.87121
 Alpha  occ. eigenvalues --   -0.86247  -0.82496  -0.79700  -0.78346  -0.77535
 Alpha  occ. eigenvalues --   -0.72092  -0.71213  -0.70556  -0.65194  -0.65087
 Alpha  occ. eigenvalues --   -0.64849  -0.62214  -0.61057  -0.59465  -0.57710
 Alpha  occ. eigenvalues --   -0.55433  -0.55338  -0.53240  -0.52962  -0.52756
 Alpha  occ. eigenvalues --   -0.52511  -0.50053  -0.48851  -0.48844  -0.48009
 Alpha  occ. eigenvalues --   -0.46730  -0.45878  -0.45803  -0.44840  -0.43886
 Alpha  occ. eigenvalues --   -0.37429  -0.36363
 Alpha virt. eigenvalues --    0.04981   0.11148   0.16440   0.20816   0.22832
 Alpha virt. eigenvalues --    0.23949   0.26498   0.26607   0.27310   0.27780
 Alpha virt. eigenvalues --    0.29140   0.29720   0.31369   0.31588   0.31829

 Mulliken charges:
               1
     1  C   -0.171074
     2  C   -0.217935
     3  C   -0.175247
     4  C    0.162297
     5  C   -0.170682
     6  C   -0.218690
     7  H    0.226023
     8  H    0.224526
     9  H    0.278505
    10  H    0.276068
    11  H    0.223869
    12  N    0.488432
    13  O   -0.460143
    14  O   -0.460941
    15  C   -0.296656
    16  C   -0.308596
    17  C   -0.480092
    18  H    0.150454
    19  H    0.144831
    20  H    0.156987
    21  H    0.157483
    22  H    0.147480
    23  H    0.158412
    24  H    0.165540
    25  C   -0.298626
    26  C   -0.299458
    27  C   -0.475356
    28  H    0.152044
    29  H    0.148000
    30  H    0.153127
    31  H    0.149661
    32  H    0.152647
    33  H    0.156833
    34  H    0.160276
 Sum of Mulliken charges =  -0.00000

 Dipole moment (field-independent basis, Debye):
    X=             -1.9832    Y=             -3.1641    Z=              3.5115  Tot=              5.1260
 Quadrupole moment (field-independent basis, Debye-Ang):
   XX=           -105.5287   YY=            -90.2710   ZZ=            -93.8863
   XY=             -8.0703   XZ=              8.6583   YZ=              0.7886

 Normal termination of Gaussian 16 at Thu May  6 15:57:48 2021.
