 Gaussian 16, Revision A.03,
 Gaussian 16:  EM64L-G16RevA.03 25-Dec-2016

 -------------
 #p 6-31g* mp2
 -------------

 ------------------------------------------------------
 Input file generated by CHIRIPA (05-May-2021 14:51:10)
 ------------------------------------------------------
 Symbolic Z-matrix:
 Charge =  0 Multiplicity = 1

                         Standard orientation:
 ---------------------------------------------------------------------
 Center     Atomic      Atomic             Coordinates (Angstroms)
 Number     Number       Type             X           Y           Z
 ---------------------------------------------------------------------
      1          6           0        2.847875   -0.546473    0.076575
      2          6           0        2.434290   -1.383835    1.287260
      3          6           0        1.271951   -2.329388    0.982807
      4          1           0        1.982918    0.033983   -0.272517
      5          1           0        3.126540   -1.218207   -0.747145
      6          1           0        2.157811   -0.710723    2.108902
      7          1           0        3.300382   -1.962220    1.633628
      8          1           0        1.540497   -3.024069    0.180371
      9          1           0        0.391433   -1.765461    0.658345
     10          1           0        0.992626   -2.918297    1.862025
     11          6           0        4.008716    0.403719    0.365210
     12          6           0        4.422300    1.241081   -0.845475
     13          6           0        5.584639    2.186634   -0.541022
     14          1           0        3.730050    1.075453    1.188930
     15          1           0        4.873672   -0.176737    0.714302
     16          1           0        3.556208    1.819466   -1.191843
     17          1           0        4.698779    0.567969   -1.667117
     18          1           0        6.465157    1.622707   -0.216560
     19          1           0        5.316093    2.881315    0.261414
     20          1           0        5.863964    2.775543   -1.420240
     21          6           0       -3.275774   -0.663683   -0.079982
     22          6           0       -2.456006   -1.335010   -1.182383
     23          6           0       -2.158932   -2.805292   -0.886055
     24          1           0       -2.733970   -0.745076    0.872262
     25          1           0       -4.219950   -1.210551    0.049875
     26          1           0       -1.514264   -0.786214   -1.311074
     27          1           0       -2.999736   -1.251842   -2.132149
     28          1           0       -3.089323   -3.372190   -0.778350
     29          1           0       -1.595411   -2.903918    0.047390
     30          1           0       -1.571960   -3.265604   -1.686952
     31          6           0       -3.580816    0.806437   -0.361803
     32          6           0       -4.400584    1.477764    0.740598
     33          6           0       -4.697658    2.948047    0.444269
     34          1           0       -2.636641    1.353304   -0.491660
     35          1           0       -4.122620    0.887830   -1.314047
     36          1           0       -3.856854    1.394595    1.690364
     37          1           0       -5.342326    0.928969    0.869289
     38          1           0       -5.261179    3.046671   -0.489175
     39          1           0       -3.767267    3.514944    0.336565
     40          1           0       -5.284630    3.408357    1.245167
 ---------------------------------------------------------------------

 SCF Done:  E(RHF) =  -470.732938154     A.U. after   11 cycles
 E2 =    -0.1582911921D+01 EUMP2 =    -0.47231585007577D+03

 The electronic state is 1-A.
 Alpha  occ. eigenvalues --  -11.21629 -11.21624 -11.21610 -11.21578 -11.21438
 Alpha  occ. eigenvalues --  -11.21409 -11.21378 -11.21349 -11.21089 -11.21087
 Alpha  occ. eigenvalues --  -11.21081 -11.20934  -1.08464  -1.08423  -1.03580
 Alpha  occ. eigenvalues --   -1.03491  -0.96051  -0.95916  -0.87083  -0.86919
 Alpha  occ. eigenvalues --   -0.79663  -0.79536  -0.78275  -0.78238  -0.65153
 Alpha  occ. eigenvalues --   -0.65014  -0.61121  -0.60784  -0.59382  -0.59318
 Alpha  occ. eigenvalues --   -0.57625  -0.57563  -0.55466  -0.55102  -0.52728
 Alpha  occ. eigenvalues --   -0.52643  -0.52468  -0.52306  -0.50049  -0.49785
 Alpha  occ. eigenvalues --   -0.48006  -0.47800  -0.46679  -0.46566  -0.45864
 Alpha  occ. eigenvalues --   -0.45760  -0.45705  -0.45673  -0.43811  -0.43767
 Alpha virt. eigenvalues --    0.20792   0.23085   0.23692   0.24919   0.26059
 Alpha virt. eigenvalues --    0.26581   0.27130   0.27656   0.28004   0.29146
 Alpha virt. eigenvalues --    0.30528   0.31099   0.31570   0.31981   0.32041

 Mulliken charges:
               1
     1  C   -0.298302
     2  C   -0.300339
     3  C   -0.479499
     4  H    0.149001
     5  H    0.149804
     6  H    0.151623
     7  H    0.152095
     8  H    0.156388
     9  H    0.159624
    10  H    0.159916
    11  C   -0.298296
    12  C   -0.299658
    13  C   -0.475726
    14  H    0.149472
    15  H    0.149839
    16  H    0.151866
    17  H    0.152040
    18  H    0.155240
    19  H    0.155178
    20  H    0.160354
    21  C   -0.299017
    22  C   -0.301319
    23  C   -0.479690
    24  H    0.149439
    25  H    0.149905
    26  H    0.151592
    27  H    0.152205
    28  H    0.154299
    29  H    0.162334
    30  H    0.159851
    31  C   -0.298095
    32  C   -0.299645
    33  C   -0.475681
    34  H    0.148934
    35  H    0.149818
    36  H    0.151836
    37  H    0.152061
    38  H    0.155252
    39  H    0.155014
    40  H    0.160286
 Sum of Mulliken charges =  -0.00000

 Dipole moment (field-independent basis, Debye):
    X=              0.0171    Y=             -0.0206    Z=              0.0062  Tot=              0.0275
 Quadrupole moment (field-independent basis, Debye-Ang):
   XX=            -84.3655   YY=            -85.8404   ZZ=            -84.5318
   XY=             -0.5870   XZ=              0.1180   YZ=              0.3405

 Normal termination of Gaussian 16 at Thu May  6 02:13:18 2021.
