 Gaussian 16, Revision A.03,
 Gaussian 16:  EM64L-G16RevA.03 25-Dec-2016

 -------------
 #p 6-31g* mp2
 -------------

 ------------------------------------------------------
 Input file generated by CHIRIPA (05-May-2021 14:55:20)
 ------------------------------------------------------
 Symbolic Z-matrix:
 Charge =  0 Multiplicity = 1

                         Standard orientation:
 ---------------------------------------------------------------------
 Center     Atomic      Atomic             Coordinates (Angstroms)
 Number     Number       Type             X           Y           Z
 ---------------------------------------------------------------------
      1          6           0       -0.582847   -1.476853    0.323565
      2          6           0       -1.738653   -2.021182    0.893072
      3          6           0       -2.979009   -1.402347    0.711109
      4          6           0       -3.027287   -0.235185   -0.049609
      5          6           0       -1.893541    0.331561   -0.629876
      6          6           0       -0.663837   -0.304287   -0.434754
      7          1           0        0.376554   -1.964187    0.470030
      8          1           0       -1.678753   -2.931711    1.482473
      9          1           0       -3.889513   -1.802203    1.140661
     10          1           0       -1.984842    1.240289   -1.212366
     11          1           0        0.232131    0.120704   -0.878230
     12          7           0       -4.334758    0.428953   -0.249211
     13          8           0       -4.350622    1.456323   -0.923670
     14          8           0       -5.318933   -0.090442    0.272580
     15          6           0        3.011082    0.926546    0.066621
     16          6           0        3.426557    2.348876    0.443899
     17          6           0        2.239181    3.308277    0.530417
     18          1           0        2.484712    0.948656   -0.897429
     19          1           0        2.290511    0.553746    0.807697
     20          1           0        4.147183    2.718372   -0.296903
     21          1           0        3.952166    2.323353    1.407071
     22          1           0        1.521502    2.966132    1.283062
     23          1           0        1.717626    3.363396   -0.430594
     24          1           0        2.558887    4.319326    0.801390
     25          6           0        4.187127   -0.044260   -0.023837
     26          6           0        3.771651   -1.466590   -0.401116
     27          6           0        4.959027   -2.425991   -0.487633
     28          1           0        4.907697    0.328540   -0.764913
     29          1           0        4.713496   -0.066370    0.940212
     30          1           0        3.246043   -1.441067   -1.364288
     31          1           0        3.051026   -1.836086    0.339686
     32          1           0        5.480583   -2.481110    0.473378
     33          1           0        5.676706   -2.083846   -1.240279
     34          1           0        4.639321   -3.437040   -0.758607
 ---------------------------------------------------------------------

 SCF Done:  E(RHF) =  -669.535290123     A.U. after   15 cycles
 E2 =    -0.2092610643D+01 EUMP2 =    -0.67162790076538D+03

 The electronic state is 1-A.
 Alpha  occ. eigenvalues --  -20.60678 -20.60673 -15.85729 -11.31071 -11.27637
 Alpha  occ. eigenvalues --  -11.27608 -11.27335 -11.26652 -11.26544 -11.22843
 Alpha  occ. eigenvalues --  -11.22577 -11.22441 -11.22421 -11.22022 -11.21774
 Alpha  occ. eigenvalues --   -1.59754  -1.39308  -1.19231  -1.09509  -1.08626
 Alpha  occ. eigenvalues --   -1.04629  -1.04498  -0.96926  -0.95471  -0.87942
 Alpha  occ. eigenvalues --   -0.86029  -0.82306  -0.80586  -0.79398  -0.77343
 Alpha  occ. eigenvalues --   -0.71947  -0.71077  -0.70339  -0.66127  -0.64877
 Alpha  occ. eigenvalues --   -0.64635  -0.61997  -0.61881  -0.60306  -0.58551
 Alpha  occ. eigenvalues --   -0.56198  -0.55136  -0.53587  -0.53400  -0.52960
 Alpha  occ. eigenvalues --   -0.52676  -0.50862  -0.48894  -0.48706  -0.48691
 Alpha  occ. eigenvalues --   -0.47621  -0.46816  -0.46795  -0.44778  -0.44719
 Alpha  occ. eigenvalues --   -0.37204  -0.36225
 Alpha virt. eigenvalues --    0.05161   0.11349   0.16646   0.19429   0.22567
 Alpha virt. eigenvalues --    0.22659   0.24322   0.25215   0.27041   0.28349
 Alpha virt. eigenvalues --    0.29322   0.30334   0.30816   0.31268   0.31767

 Mulliken charges:
               1
     1  C   -0.178546
     2  C   -0.219357
     3  C   -0.171344
     4  C    0.158654
     5  C   -0.173482
     6  C   -0.223623
     7  H    0.231205
     8  H    0.222946
     9  H    0.274983
    10  H    0.275344
    11  H    0.233493
    12  N    0.488029
    13  O   -0.460663
    14  O   -0.460894
    15  C   -0.306570
    16  C   -0.299444
    17  C   -0.477579
    18  H    0.144646
    19  H    0.150519
    20  H    0.154818
    21  H    0.155264
    22  H    0.158102
    23  H    0.152866
    24  H    0.165124
    25  C   -0.297381
    26  C   -0.304958
    27  C   -0.475715
    28  H    0.154023
    29  H    0.153644
    30  H    0.151383
    31  H    0.145610
    32  H    0.157957
    33  H    0.159204
    34  H    0.161740
 Sum of Mulliken charges =  -0.00000

 Dipole moment (field-independent basis, Debye):
    X=              4.9290    Y=             -2.2411    Z=              0.7377  Tot=              5.4646
 Quadrupole moment (field-independent basis, Debye-Ang):
   XX=           -121.6507   YY=            -91.7013   ZZ=            -92.9316
   XY=              8.5775   XZ=             -3.7555   YZ=             -2.4732

 Normal termination of Gaussian 16 at Thu May  6 01:23:45 2021.
