 Gaussian 16, Revision A.03,
 Gaussian 16:  EM64L-G16RevA.03 25-Dec-2016

 -------------
 #p 6-31g* mp2
 -------------

 ------------------------------------------------------
 Input file generated by CHIRIPA (05-May-2021 14:53:17)
 ------------------------------------------------------
 Symbolic Z-matrix:
 Charge =  0 Multiplicity = 1

                         Standard orientation:
 ---------------------------------------------------------------------
 Center     Atomic      Atomic             Coordinates (Angstroms)
 Number     Number       Type             X           Y           Z
 ---------------------------------------------------------------------
      1          6           0       -3.287801    0.571940    0.501135
      2          6           0       -3.203828    2.010733   -0.009558
      3          6           0       -2.389504    2.918726    0.912515
      4          1           0       -3.733261    0.571458    1.505381
      5          1           0       -2.271361    0.168924    0.609871
      6          1           0       -4.220170    2.410449   -0.118616
      7          1           0       -2.758693    2.007771   -1.012784
      8          1           0       -1.364842    2.546464    1.012967
      9          1           0       -2.834623    2.951429    1.912215
     10          1           0       -2.342393    3.942516    0.528464
     11          6           0       -4.098670   -0.347931   -0.409940
     12          6           0       -4.182642   -1.786725    0.100752
     13          6           0       -4.996967   -2.694717   -0.821321
     14          1           0       -5.115110    0.055084   -0.518677
     15          1           0       -3.653210   -0.347450   -1.414187
     16          1           0       -4.627778   -1.783763    1.103978
     17          1           0       -3.166301   -2.186440    0.209810
     18          1           0       -4.551848   -2.727421   -1.821021
     19          1           0       -6.021629   -2.322456   -0.921773
     20          1           0       -5.044078   -3.718507   -0.437270
     21          6           0        3.729021   -2.406660    0.489390
     22          6           0        2.405486   -2.060590    0.780959
     23          6           0        1.927220   -0.778526    0.494389
     24          6           0        2.803776    0.136704   -0.086379
     25          6           0        4.127741   -0.177925   -0.388731
     26          6           0        4.584416   -1.465882   -0.093496
     27          1           0        4.092164   -3.404887    0.715369
     28          1           0        1.738927   -2.789168    1.233639
     29          1           0        0.907255   -0.483990    0.709652
     30          1           0        4.768513    0.569886   -0.839960
     31          1           0        5.612780   -1.731854   -0.321029
     32          7           0        2.308885    1.497087   -0.394344
     33          8           0        3.101131    2.285230   -0.906022
     34          8           0        1.138116    1.749453   -0.118217
 ---------------------------------------------------------------------

 SCF Done:  E(RHF) =  -669.536083887     A.U. after   15 cycles
 E2 =    -0.2091198513D+01 EUMP2 =    -0.67162728239998D+03

 The electronic state is 1-A.
 Alpha  occ. eigenvalues --  -20.60938 -20.60923 -15.85981 -11.31296 -11.27865
 Alpha  occ. eigenvalues --  -11.27855 -11.27594 -11.26866 -11.26857 -11.21548
 Alpha  occ. eigenvalues --  -11.21108 -11.21042 -11.20953 -11.20779 -11.19863
 Alpha  occ. eigenvalues --   -1.59999  -1.39557  -1.19465  -1.08868  -1.08036
 Alpha  occ. eigenvalues --   -1.04861  -1.03029  -0.95715  -0.95463  -0.86488
 Alpha  occ. eigenvalues --   -0.86261  -0.82548  -0.79151  -0.77822  -0.77590
 Alpha  occ. eigenvalues --   -0.72210  -0.71315  -0.70575  -0.65125  -0.64866
 Alpha  occ. eigenvalues --   -0.64662  -0.62210  -0.60405  -0.58913  -0.57073
 Alpha  occ. eigenvalues --   -0.55364  -0.54728  -0.53192  -0.52954  -0.52154
 Alpha  occ. eigenvalues --   -0.51896  -0.49431  -0.48959  -0.48922  -0.47439
 Alpha  occ. eigenvalues --   -0.46191  -0.45347  -0.45243  -0.44958  -0.43311
 Alpha  occ. eigenvalues --   -0.37443  -0.36463
 Alpha virt. eigenvalues --    0.04928   0.11191   0.16425   0.20342   0.22890
 Alpha virt. eigenvalues --    0.24303   0.25652   0.27426   0.27648   0.28587
 Alpha virt. eigenvalues --    0.29172   0.30633   0.31606   0.32090   0.32414

 Mulliken charges:
               1
     1  C   -0.297634
     2  C   -0.298102
     3  C   -0.483786
     4  H    0.147328
     5  H    0.145402
     6  H    0.147548
     7  H    0.156458
     8  H    0.178643
     9  H    0.146411
    10  H    0.160335
    11  C   -0.298258
    12  C   -0.297880
    13  C   -0.475394
    14  H    0.149886
    15  H    0.150510
    16  H    0.151467
    17  H    0.145427
    18  H    0.155183
    19  H    0.156206
    20  H    0.158095
    21  C   -0.170489
    22  C   -0.219064
    23  C   -0.172230
    24  C    0.157362
    25  C   -0.170475
    26  C   -0.218647
    27  H    0.226068
    28  H    0.224190
    29  H    0.277212
    30  H    0.275873
    31  H    0.223847
    32  N    0.495446
    33  O   -0.458770
    34  O   -0.468167
 Sum of Mulliken charges =  -0.00000

 Dipole moment (field-independent basis, Debye):
    X=              1.9581    Y=             -4.7103    Z=              1.0268  Tot=              5.2034
 Quadrupole moment (field-independent basis, Debye-Ang):
   XX=            -81.0249   YY=            -96.9567   ZZ=            -95.2378
   XY=            -12.8200   XZ=              0.4935   YZ=             -0.4560

 Normal termination of Gaussian 16 at Thu May  6 18:58:04 2021.
