 Gaussian 16, Revision A.03,
 Gaussian 16:  EM64L-G16RevA.03 25-Dec-2016

 -------------
 #p 6-31g* mp2
 -------------

 ------------------------------------------------------
 Input file generated by CHIRIPA (05-May-2021 14:57:26)
 ------------------------------------------------------
 Symbolic Z-matrix:
 Charge =  0 Multiplicity = 1

                         Standard orientation:
 ---------------------------------------------------------------------
 Center     Atomic      Atomic             Coordinates (Angstroms)
 Number     Number       Type             X           Y           Z
 ---------------------------------------------------------------------
      1          6           0        1.210695   -1.313082    2.173660
      2          6           0        1.972693   -2.069144    1.276860
      3          6           0        2.688579   -1.444600    0.251189
      4          6           0        2.619662   -0.055884    0.151149
      5          6           0        1.869430    0.724906    1.029106
      6          6           0        1.161581    0.079075    2.047144
      7          1           0        0.657699   -1.806511    2.967461
      8          1           0        2.012684   -3.150466    1.372709
      9          1           0        3.286404   -2.005646   -0.456801
     10          1           0        1.849042    1.801190    0.908210
     11          1           0        0.570633    0.668786    2.742173
     12          7           0        3.373283    0.616561   -0.930643
     13          8           0        3.296124    1.841399   -0.997377
     14          8           0        4.026862   -0.093949   -1.691332
     15          6           0       -2.152411    2.564539    0.376721
     16          6           0       -3.351019    1.910244    0.679637
     17          6           0       -3.552030    0.581752    0.293306
     18          6           0       -2.528620   -0.065102   -0.397710
     19          6           0       -1.323293    0.559623   -0.714246
     20          6           0       -1.144151    1.888332   -0.318029
     21          1           0       -2.004756    3.596628    0.680672
     22          1           0       -4.135792    2.432910    1.219080
     23          1           0       -4.470136    0.051249    0.514814
     24          1           0       -0.559368    0.012419   -1.253138
     25          1           0       -0.212268    2.393954   -0.554639
     26          7           0       -2.729845   -1.471632   -0.811934
     27          8           0       -1.812707   -2.019405   -1.419750
     28          8           0       -3.800893   -1.999665   -0.520944
 ---------------------------------------------------------------------

 SCF Done:  E(RHF) =  -868.337187771     A.U. after   16 cycles
 E2 =    -0.2603230447D+01 EUMP2 =    -0.87094041821733D+03

 The electronic state is 1-A.
 Alpha  occ. eigenvalues --  -20.61286 -20.61234 -20.61049 -20.61042 -15.86302
 Alpha  occ. eigenvalues --  -15.86099 -11.31556 -11.31430 -11.28150 -11.28026
 Alpha  occ. eigenvalues --  -11.27999 -11.27961 -11.27760 -11.27707 -11.27064
 Alpha  occ. eigenvalues --  -11.27039 -11.26960 -11.26942  -1.60337  -1.60127
 Alpha  occ. eigenvalues --   -1.39894  -1.39678  -1.19722  -1.19595  -1.09091
 Alpha  occ. eigenvalues --   -1.09026  -1.05159  -1.04911  -0.95956  -0.95856
 Alpha  occ. eigenvalues --   -0.86502  -0.86377  -0.82792  -0.82670  -0.77903
 Alpha  occ. eigenvalues --   -0.77699  -0.72511  -0.72318  -0.71676  -0.71454
 Alpha  occ. eigenvalues --   -0.70782  -0.70720  -0.65327  -0.65268  -0.65178
 Alpha  occ. eigenvalues --   -0.64876  -0.62540  -0.62216  -0.55566  -0.55487
 Alpha  occ. eigenvalues --   -0.53844  -0.53259  -0.52975  -0.52893  -0.49291
 Alpha  occ. eigenvalues --   -0.49251  -0.49077  -0.49069  -0.45315  -0.45089
 Alpha  occ. eigenvalues --   -0.37751  -0.37577  -0.37378  -0.35751
 Alpha virt. eigenvalues --    0.04403   0.05021   0.10682   0.11215   0.15945
 Alpha virt. eigenvalues --    0.16541   0.20396   0.21709   0.25777   0.27437
 Alpha virt. eigenvalues --    0.27837   0.28561   0.30054   0.31416   0.31794

 Mulliken charges:
               1
     1  C   -0.171677
     2  C   -0.213312
     3  C   -0.169800
     4  C    0.153619
     5  C   -0.177700
     6  C   -0.212099
     7  H    0.228753
     8  H    0.228967
     9  H    0.278562
    10  H    0.268134
    11  H    0.223156
    12  N    0.487973
    13  O   -0.467402
    14  O   -0.454811
    15  C   -0.175115
    16  C   -0.219876
    17  C   -0.172649
    18  C    0.155435
    19  C   -0.164081
    20  C   -0.226953
    21  H    0.226131
    22  H    0.223367
    23  H    0.275215
    24  H    0.278190
    25  H    0.231403
    26  N    0.487601
    27  O   -0.459560
    28  O   -0.461470
 Sum of Mulliken charges =  -0.00000

 Dipole moment (field-independent basis, Debye):
    X=             -1.8504    Y=              2.3037    Z=              5.2937  Tot=              6.0625
 Quadrupole moment (field-independent basis, Debye-Ang):
   XX=           -118.6220   YY=           -101.8359   ZZ=           -104.5766
   XY=            -21.0923   XZ=              2.8787   YZ=             -1.2615

 Normal termination of Gaussian 16 at Thu May  6 18:07:08 2021.
