 Gaussian 16, Revision A.03,
 Gaussian 16:  EM64L-G16RevA.03 25-Dec-2016

 -------------
 #p 6-31g* mp2
 -------------

 ------------------------------------------------------
 Input file generated by CHIRIPA (05-May-2021 14:51:13)
 ------------------------------------------------------
 Symbolic Z-matrix:
 Charge =  0 Multiplicity = 1

                         Standard orientation:
 ---------------------------------------------------------------------
 Center     Atomic      Atomic             Coordinates (Angstroms)
 Number     Number       Type             X           Y           Z
 ---------------------------------------------------------------------
      1          6           0        3.624115   -0.369219    0.342063
      2          6           0        3.937798   -0.728145   -1.110782
      3          6           0        5.432044   -0.936759   -1.358781
      4          1           0        4.173276    0.542411    0.614642
      5          1           0        3.997782   -1.167263    0.998488
      6          1           0        3.562422    0.069682   -1.764374
      7          1           0        3.387677   -1.638919   -1.379992
      8          1           0        5.817414   -1.746514   -0.730779
      9          1           0        5.993151   -0.028206   -1.117344
     10          1           0        5.633724   -1.192454   -2.403675
     11          6           0        2.134345   -0.157544    0.605701
     12          6           0        1.820662    0.201382    2.058547
     13          6           0        0.326416    0.409995    2.306545
     14          1           0        1.760678    0.640500   -0.050724
     15          1           0        1.585184   -1.069174    0.333123
     16          1           0        2.370783    1.112156    2.327757
     17          1           0        2.196038   -0.596445    2.712139
     18          1           0       -0.234691   -0.498557    2.065109
     19          1           0       -0.058954    1.219751    1.678543
     20          1           0        0.124736    0.665690    3.351440
     21          6           0       -2.260491    0.589038   -0.781359
     22          6           0       -2.086355    2.055322   -0.384283
     23          6           0       -0.844143    2.692962   -1.007276
     24          1           0       -1.366931    0.025507   -0.479818
     25          1           0       -2.320419    0.517525   -1.876206
     26          1           0       -2.028162    2.124195    0.709558
     27          1           0       -2.980515    2.615391   -0.686633
     28          1           0       -0.897863    2.653685   -2.100058
     29          1           0        0.059901    2.159698   -0.695934
     30          1           0       -0.739035    3.741091   -0.710226
     31          6           0       -3.497969   -0.062275   -0.166406
     32          6           0       -3.672106   -1.528559   -0.563482
     33          6           0       -4.914317   -2.166199    0.059512
     34          1           0       -3.438042    0.009239    0.928441
     35          1           0       -4.391529    0.501256   -0.467947
     36          1           0       -2.777945   -2.088628   -0.261131
     37          1           0       -3.730298   -1.597432   -1.657322
     38          1           0       -5.818361   -1.632934   -0.251831
     39          1           0       -4.860597   -2.126922    1.152293
     40          1           0       -5.019424   -3.214327   -0.237538
 ---------------------------------------------------------------------

 SCF Done:  E(RHF) =  -470.732027835     A.U. after   11 cycles
 E2 =    -0.1585126237D+01 EUMP2 =    -0.47231715407232D+03

 The electronic state is 1-A.
 Alpha  occ. eigenvalues --  -11.21663 -11.21621 -11.21570 -11.21551 -11.21463
 Alpha  occ. eigenvalues --  -11.21398 -11.21328 -11.21256 -11.21105 -11.21084
 Alpha  occ. eigenvalues --  -11.21071 -11.21045  -1.08503  -1.08366  -1.03618
 Alpha  occ. eigenvalues --   -1.03472  -0.96031  -0.95956  -0.87075  -0.86951
 Alpha  occ. eigenvalues --   -0.79651  -0.79572  -0.78351  -0.78147  -0.65246
 Alpha  occ. eigenvalues --   -0.64953  -0.61283  -0.60682  -0.59410  -0.59283
 Alpha  occ. eigenvalues --   -0.57648  -0.57538  -0.55417  -0.55161  -0.52721
 Alpha  occ. eigenvalues --   -0.52651  -0.52492  -0.52358  -0.50080  -0.49813
 Alpha  occ. eigenvalues --   -0.48135  -0.47777  -0.46669  -0.46602  -0.46059
 Alpha  occ. eigenvalues --   -0.45751  -0.45635  -0.45312  -0.43830  -0.43742
 Alpha virt. eigenvalues --    0.20439   0.22736   0.23494   0.24596   0.25712
 Alpha virt. eigenvalues --    0.26155   0.26609   0.27914   0.28712   0.29867
 Alpha virt. eigenvalues --    0.30734   0.31042   0.31626   0.31757   0.32153

 Mulliken charges:
               1
     1  C   -0.297637
     2  C   -0.299862
     3  C   -0.475765
     4  H    0.149891
     5  H    0.149749
     6  H    0.152360
     7  H    0.152060
     8  H    0.155168
     9  H    0.155269
    10  H    0.160427
    11  C   -0.307316
    12  C   -0.299052
    13  C   -0.484841
    14  H    0.156906
    15  H    0.149754
    16  H    0.152125
    17  H    0.152129
    18  H    0.155166
    19  H    0.165297
    20  H    0.160359
    21  C   -0.301360
    22  C   -0.303549
    23  C   -0.484698
    24  H    0.154852
    25  H    0.148895
    26  H    0.154041
    27  H    0.153010
    28  H    0.155935
    29  H    0.161322
    30  H    0.160138
    31  C   -0.298959
    32  C   -0.299469
    33  C   -0.475674
    34  H    0.150597
    35  H    0.149343
    36  H    0.151139
    37  H    0.151859
    38  H    0.155184
    39  H    0.155202
    40  H    0.160008
 Sum of Mulliken charges =  -0.00000

 Dipole moment (field-independent basis, Debye):
    X=              0.0322    Y=              0.0040    Z=              0.0095  Tot=              0.0338
 Quadrupole moment (field-independent basis, Debye-Ang):
   XX=            -86.3160   YY=            -84.1681   ZZ=            -84.3558
   XY=             -0.3771   XZ=              1.0568   YZ=             -0.2501

 Normal termination of Gaussian 16 at Wed May  5 21:35:13 2021.
