 Gaussian 16, Revision A.03,
 Gaussian 16:  EM64L-G16RevA.03 25-Dec-2016

 -------------
 #p 6-31g* mp2
 -------------

 ------------------------------------------------------
 Input file generated by CHIRIPA (05-May-2021 14:51:09)
 ------------------------------------------------------
 Symbolic Z-matrix:
 Charge =  0 Multiplicity = 1

                         Standard orientation:
 ---------------------------------------------------------------------
 Center     Atomic      Atomic             Coordinates (Angstroms)
 Number     Number       Type             X           Y           Z
 ---------------------------------------------------------------------
      1          6           0       -2.534597   -0.522092    0.020229
      2          6           0       -1.883499   -1.878560   -0.251896
      3          6           0       -0.359350   -1.836183   -0.138018
      4          1           0       -2.133214    0.218270   -0.685250
      5          1           0       -2.250421   -0.181904    1.025670
      6          1           0       -2.169940   -2.216732   -1.255991
      7          1           0       -2.286620   -2.615822    0.454188
      8          1           0       -0.056646   -1.523157    0.866465
      9          1           0        0.060698   -1.121800   -0.853431
     10          1           0        0.085461   -2.816311   -0.336394
     11          6           0       -4.058054   -0.548373   -0.089845
     12          6           0       -4.709152    0.808094    0.182280
     13          6           0       -6.233301    0.765718    0.068402
     14          1           0       -4.342230   -0.888561   -1.095286
     15          1           0       -4.459437   -1.288736    0.615634
     16          1           0       -4.306031    1.545356   -0.523804
     17          1           0       -4.422712    1.146267    1.186375
     18          1           0       -6.653349    0.051334    0.783815
     19          1           0       -6.536006    0.452692   -0.936081
     20          1           0       -6.678112    1.745846    0.266778
     21          6           0        3.354457    1.251630   -0.223702
     22          6           0        2.271739    2.183040    0.322357
     23          6           0        2.401371    3.612734   -0.203918
     24          1           0        4.342219    1.653149    0.040974
     25          1           0        3.303483    1.245336   -1.321316
     26          1           0        2.323844    2.186504    1.418663
     27          1           0        1.286436    1.779156    0.056514
     28          1           0        2.327466    3.629390   -1.296100
     29          1           0        3.370769    4.039052    0.073789
     30          1           0        1.617453    4.261510    0.199097
     31          6           0        3.238194   -0.181165    0.293318
     32          6           0        4.320912   -1.112575   -0.252741
     33          6           0        4.191280   -2.542269    0.273533
     34          1           0        3.289168   -0.174871    1.390932
     35          1           0        2.250432   -0.582684    0.028641
     36          1           0        5.306215   -0.708690    0.013101
     37          1           0        4.268807   -1.116039   -1.349048
     38          1           0        3.221882   -2.968587   -0.004173
     39          1           0        4.265185   -2.558925    1.365716
     40          1           0        4.975198   -3.191045   -0.129481
 ---------------------------------------------------------------------

 SCF Done:  E(RHF) =  -470.732901931     A.U. after   11 cycles
 E2 =    -0.1583331542D+01 EUMP2 =    -0.47231623347348D+03

 The electronic state is 1-A.
 Alpha  occ. eigenvalues --  -11.21667 -11.21630 -11.21539 -11.21494 -11.21455
 Alpha  occ. eigenvalues --  -11.21393 -11.21293 -11.21175 -11.21158 -11.21093
 Alpha  occ. eigenvalues --  -11.21030 -11.20982  -1.08483  -1.08326  -1.03590
 Alpha  occ. eigenvalues --   -1.03444  -0.96054  -0.95887  -0.87083  -0.86901
 Alpha  occ. eigenvalues --   -0.79696  -0.79492  -0.78327  -0.78086  -0.65117
 Alpha  occ. eigenvalues --   -0.64965  -0.60982  -0.60850  -0.59418  -0.59250
 Alpha  occ. eigenvalues --   -0.57721  -0.57454  -0.55349  -0.55172  -0.52760
 Alpha  occ. eigenvalues --   -0.52623  -0.52549  -0.52231  -0.49998  -0.49825
 Alpha  occ. eigenvalues --   -0.48048  -0.47812  -0.46687  -0.46542  -0.46018
 Alpha  occ. eigenvalues --   -0.45760  -0.45643  -0.45291  -0.43825  -0.43686
 Alpha virt. eigenvalues --    0.21325   0.22956   0.23904   0.24287   0.25747
 Alpha virt. eigenvalues --    0.26608   0.26967   0.27245   0.27860   0.29832
 Alpha virt. eigenvalues --    0.30149   0.31133   0.31806   0.31922   0.32158

 Mulliken charges:
               1
     1  C   -0.298585
     2  C   -0.300337
     3  C   -0.479391
     4  H    0.149321
     5  H    0.150087
     6  H    0.152029
     7  H    0.152421
     8  H    0.158262
     9  H    0.155188
    10  H    0.161140
    11  C   -0.298310
    12  C   -0.299696
    13  C   -0.475745
    14  H    0.149598
    15  H    0.149848
    16  H    0.151996
    17  H    0.152092
    18  H    0.155239
    19  H    0.155208
    20  H    0.160385
    21  C   -0.297488
    22  C   -0.300504
    23  C   -0.475571
    24  H    0.149139
    25  H    0.148453
    26  H    0.151640
    27  H    0.152462
    28  H    0.154790
    29  H    0.155140
    30  H    0.160026
    31  C   -0.310576
    32  C   -0.298574
    33  C   -0.476962
    34  H    0.147857
    35  H    0.166198
    36  H    0.151242
    37  H    0.151052
    38  H    0.156554
    39  H    0.154754
    40  H    0.159620
 Sum of Mulliken charges =  -0.00000

 Dipole moment (field-independent basis, Debye):
    X=             -0.0774    Y=             -0.0312    Z=              0.0092  Tot=              0.0839
 Quadrupole moment (field-independent basis, Debye-Ang):
   XX=            -85.9315   YY=            -85.9195   ZZ=            -83.2486
   XY=              0.3446   XZ=              0.3357   YZ=              0.2719

 Normal termination of Gaussian 16 at Wed May  5 15:09:00 2021.
