 Gaussian 16, Revision A.03,
 Gaussian 16:  EM64L-G16RevA.03 25-Dec-2016

 -------------
 #p 6-31g* mp2
 -------------

 ------------------------------------------------------
 Input file generated by CHIRIPA (05-May-2021 14:57:23)
 ------------------------------------------------------
 Symbolic Z-matrix:
 Charge =  0 Multiplicity = 1

                         Standard orientation:
 ---------------------------------------------------------------------
 Center     Atomic      Atomic             Coordinates (Angstroms)
 Number     Number       Type             X           Y           Z
 ---------------------------------------------------------------------
      1          6           0        1.490067    0.522343    0.750264
      2          6           0        2.103204   -0.647536    1.210664
      3          6           0        3.446099   -0.906708    0.920816
      4          6           0        4.149167    0.029877    0.164645
      5          6           0        3.566412    1.204596   -0.308346
      6          6           0        2.222337    1.443052   -0.006438
      7          1           0        0.446415    0.715627    0.980109
      8          1           0        1.536965   -1.364352    1.798536
      9          1           0        3.945588   -1.804323    1.264639
     10          1           0        4.156702    1.900384   -0.892174
     11          1           0        1.748768    2.352440   -0.365311
     12          7           0        5.571455   -0.233531   -0.148588
     13          8           0        6.169047    0.607447   -0.816627
     14          8           0        6.061720   -1.275981    0.279870
     15          6           0       -1.550067   -0.272440   -1.073300
     16          6           0       -2.405114   -1.378651   -1.114680
     17          6           0       -3.717325   -1.279814   -0.642579
     18          6           0       -4.143367   -0.054037   -0.133415
     19          6           0       -3.315402    1.066131   -0.078739
     20          6           0       -2.007134    0.944275   -0.556372
     21          1           0       -0.532241   -0.358161   -1.442188
     22          1           0       -2.052864   -2.324820   -1.515590
     23          1           0       -4.400398   -2.120304   -0.662747
     24          1           0       -3.695141    1.996130    0.326624
     25          1           0       -1.345306    1.805040   -0.522992
     26          7           0       -5.530459    0.062783    0.369306
     27          8           0       -5.881656    1.153830    0.813055
     28          8           0       -6.240200   -0.938914    0.310070
 ---------------------------------------------------------------------

 SCF Done:  E(RHF) =  -868.336465488     A.U. after   16 cycles
 E2 =    -0.2601637997D+01 EUMP2 =    -0.87093810348436D+03

 The electronic state is 1-A.
 Alpha  occ. eigenvalues --  -20.61454 -20.61447 -20.61406 -20.61400 -15.86517
 Alpha  occ. eigenvalues --  -15.86466 -11.32044 -11.31985 -11.28714 -11.28632
 Alpha  occ. eigenvalues --  -11.28600 -11.28552 -11.28390 -11.28298 -11.27786
 Alpha  occ. eigenvalues --  -11.27693 -11.27614 -11.27578  -1.60527  -1.60478
 Alpha  occ. eigenvalues --   -1.40075  -1.40027  -1.20271  -1.20184  -1.09679
 Alpha  occ. eigenvalues --   -1.09511  -1.05701  -1.05606  -0.96488  -0.96293
 Alpha  occ. eigenvalues --   -0.87116  -0.86984  -0.83258  -0.83172  -0.78281
 Alpha  occ. eigenvalues --   -0.78192  -0.72734  -0.72677  -0.71856  -0.71806
 Alpha  occ. eigenvalues --   -0.71578  -0.71068  -0.65941  -0.65864  -0.65765
 Alpha  occ. eigenvalues --   -0.65495  -0.63049  -0.62918  -0.56211  -0.56141
 Alpha  occ. eigenvalues --   -0.54029  -0.53834  -0.53775  -0.53682  -0.49502
 Alpha  occ. eigenvalues --   -0.49473  -0.49450  -0.49424  -0.45445  -0.45397
 Alpha  occ. eigenvalues --   -0.38521  -0.37909  -0.37311  -0.37223
 Alpha virt. eigenvalues --    0.04060   0.04529   0.10131   0.10377   0.15408
 Alpha virt. eigenvalues --    0.16040   0.19026   0.21634   0.24773   0.27188
 Alpha virt. eigenvalues --    0.27623   0.28501   0.30257   0.30574   0.31321

 Mulliken charges:
               1
     1  C   -0.181196
     2  C   -0.222197
     3  C   -0.170231
     4  C    0.158635
     5  C   -0.169397
     6  C   -0.225306
     7  H    0.232909
     8  H    0.227462
     9  H    0.278152
    10  H    0.277938
    11  H    0.220466
    12  N    0.487938
    13  O   -0.458654
    14  O   -0.458280
    15  C   -0.174196
    16  C   -0.220006
    17  C   -0.169003
    18  C    0.158238
    19  C   -0.170266
    20  C   -0.229179
    21  H    0.233262
    22  H    0.227285
    23  H    0.278754
    24  H    0.277779
    25  H    0.217832
    26  N    0.488079
    27  O   -0.458902
    28  O   -0.457916
 Sum of Mulliken charges =  -0.00000

 Dipole moment (field-independent basis, Debye):
    X=             -0.1648    Y=              0.3374    Z=             -0.6658  Tot=              0.7644
 Quadrupole moment (field-independent basis, Debye-Ang):
   XX=           -186.4220   YY=            -96.5061   ZZ=           -103.6980
   XY=              6.4380   XZ=             10.7314   YZ=             -0.8448

 Normal termination of Gaussian 16 at Thu May  6 21:10:48 2021.
