 Gaussian 16, Revision A.03,
 Gaussian 16:  EM64L-G16RevA.03 25-Dec-2016

 -------------
 #p 6-31g* mp2
 -------------

 ------------------------------------------------------
 Input file generated by CHIRIPA (05-May-2021 14:53:15)
 ------------------------------------------------------
 Symbolic Z-matrix:
 Charge =  0 Multiplicity = 1

                         Standard orientation:
 ---------------------------------------------------------------------
 Center     Atomic      Atomic             Coordinates (Angstroms)
 Number     Number       Type             X           Y           Z
 ---------------------------------------------------------------------
      1          6           0       -3.527652    0.155125    0.533924
      2          6           0       -2.746591   -1.120485    0.851335
      3          6           0       -1.415836   -0.840360    1.550202
      4          1           0       -2.910153    0.807846   -0.098212
      5          1           0       -3.711171    0.706065    1.466758
      6          1           0       -2.565801   -1.669548   -0.081650
      7          1           0       -3.366094   -1.770329    1.482630
      8          1           0       -1.580624   -0.313375    2.495576
      9          1           0       -0.775784   -0.212022    0.922408
     10          1           0       -0.873975   -1.766052    1.767781
     11          6           0       -4.860288   -0.108554   -0.164847
     12          6           0       -5.641349    1.167055   -0.482258
     13          6           0       -6.972104    0.886930   -1.181125
     14          1           0       -4.676769   -0.659495   -1.097681
     15          1           0       -5.477787   -0.761275    0.467289
     16          1           0       -5.021846    1.816899   -1.113554
     17          1           0       -5.822139    1.716118    0.450727
     18          1           0       -7.612156    0.258592   -0.553331
     19          1           0       -6.807316    0.359946   -2.126500
     20          1           0       -7.513965    1.812623   -1.398704
     21          6           0        4.405531    2.215660    0.173964
     22          6           0        3.454355    1.773939    1.099527
     23          6           0        2.822476    0.537959    0.933300
     24          6           0        3.167392   -0.234152   -0.174927
     25          6           0        4.111019    0.178358   -1.114445
     26          6           0        4.730255    1.417866   -0.928125
     27          1           0        4.891479    3.177168    0.310897
     28          1           0        3.200191    2.391412    1.956367
     29          1           0        2.082530    0.171651    1.634525
     30          1           0        4.343538   -0.459342   -1.958656
     31          1           0        5.468576    1.758360   -1.648535
     32          7           0        2.505142   -1.544496   -0.361540
     33          8           0        2.826611   -2.206008   -1.346271
     34          8           0        1.677142   -1.885219    0.480458
 ---------------------------------------------------------------------

 SCF Done:  E(RHF) =  -669.535572100     A.U. after   15 cycles
 E2 =    -0.2091399181D+01 EUMP2 =    -0.67162697128070D+03

 The electronic state is 1-A.
 Alpha  occ. eigenvalues --  -20.60841 -20.60828 -15.85874 -11.31223 -11.27792
 Alpha  occ. eigenvalues --  -11.27770 -11.27533 -11.26806 -11.26792 -11.21313
 Alpha  occ. eigenvalues --  -11.20984 -11.20903 -11.20842 -11.20822 -11.20118
 Alpha  occ. eigenvalues --   -1.59907  -1.39462  -1.19395  -1.08796  -1.07955
 Alpha  occ. eigenvalues --   -1.04793  -1.02996  -0.95653  -0.95421  -0.86465
 Alpha  occ. eigenvalues --   -0.86191  -0.82467  -0.79090  -0.77778  -0.77494
 Alpha  occ. eigenvalues --   -0.72110  -0.71227  -0.70501  -0.65052  -0.64797
 Alpha  occ. eigenvalues --   -0.64589  -0.62139  -0.60395  -0.58805  -0.57032
 Alpha  occ. eigenvalues --   -0.55299  -0.54744  -0.53127  -0.52888  -0.52079
 Alpha  occ. eigenvalues --   -0.51877  -0.49447  -0.48862  -0.48823  -0.47389
 Alpha  occ. eigenvalues --   -0.46148  -0.45321  -0.45245  -0.44789  -0.43215
 Alpha  occ. eigenvalues --   -0.37378  -0.36395
 Alpha virt. eigenvalues --    0.04998   0.11216   0.16489   0.21262   0.23320
 Alpha virt. eigenvalues --    0.24838   0.26551   0.27134   0.27713   0.27984
 Alpha virt. eigenvalues --    0.29060   0.30675   0.31604   0.32024   0.32643

 Mulliken charges:
               1
     1  C   -0.297666
     2  C   -0.300749
     3  C   -0.474971
     4  H    0.147169
     5  H    0.146301
     6  H    0.156730
     7  H    0.149730
     8  H    0.143114
     9  H    0.149926
    10  H    0.179893
    11  C   -0.297971
    12  C   -0.299078
    13  C   -0.475446
    14  H    0.150445
    15  H    0.149281
    16  H    0.150698
    17  H    0.150502
    18  H    0.155031
    19  H    0.155434
    20  H    0.158771
    21  C   -0.170649
    22  C   -0.218960
    23  C   -0.172895
    24  C    0.157352
    25  C   -0.170903
    26  C   -0.218616
    27  H    0.225727
    28  H    0.223959
    29  H    0.279758
    30  H    0.275577
    31  H    0.223527
    32  N    0.491150
    33  O   -0.460280
    34  O   -0.461892
 Sum of Mulliken charges =  -0.00000

 Dipole moment (field-independent basis, Debye):
    X=              2.5107    Y=              4.4770    Z=              0.6344  Tot=              5.1720
 Quadrupole moment (field-independent basis, Debye-Ang):
   XX=            -80.5555   YY=            -97.3033   ZZ=            -91.3310
   XY=             14.1971   XZ=             -1.6675   YZ=             -0.4115

 Normal termination of Gaussian 16 at Thu May  6 15:30:30 2021.
