 Gaussian 16, Revision A.03,
 Gaussian 16:  EM64L-G16RevA.03 25-Dec-2016

 -------------
 #p 6-31g* mp2
 -------------

 ------------------------------------------------------
 Input file generated by CHIRIPA (05-May-2021 14:51:08)
 ------------------------------------------------------
 Symbolic Z-matrix:
 Charge =  0 Multiplicity = 1

                         Standard orientation:
 ---------------------------------------------------------------------
 Center     Atomic      Atomic             Coordinates (Angstroms)
 Number     Number       Type             X           Y           Z
 ---------------------------------------------------------------------
      1          6           0       -2.636592   -0.838386    0.290101
      2          6           0       -1.436167   -0.821355    1.237031
      3          6           0       -0.678235   -2.149144    1.254637
      4          1           0       -3.318127   -1.647353    0.586795
      5          1           0       -2.290642   -1.077660   -0.725016
      6          1           0       -1.784096   -0.580823    2.249802
      7          1           0       -0.757505   -0.012212    0.938164
      8          1           0       -0.303529   -2.392117    0.255056
      9          1           0       -1.335953   -2.963958    1.574147
     10          1           0        0.175935   -2.114800    1.938065
     11          6           0       -3.404433    0.481967    0.261517
     12          6           0       -4.604857    0.464936   -0.685413
     13          6           0       -5.362790    1.792724   -0.703019
     14          1           0       -3.750382    0.721241    1.276633
     15          1           0       -2.722898    1.290934   -0.035178
     16          1           0       -5.283520   -0.344207   -0.386547
     17          1           0       -4.256929    0.224403   -1.698184
     18          1           0       -4.705072    2.607538   -1.022529
     19          1           0       -5.737496    2.035697    0.296561
     20          1           0       -6.216960    1.758381   -1.386448
     21          6           0        2.954552    0.925730   -0.418267
     22          6           0        3.748470    1.800404    0.552620
     23          6           0        3.606489    3.293352    0.254725
     24          1           0        3.290248    1.129919   -1.444211
     25          1           0        1.894122    1.210193   -0.373926
     26          1           0        4.806878    1.513438    0.507475
     27          1           0        3.410977    1.593971    1.576387
     28          1           0        2.557784    3.601022    0.319215
     29          1           0        3.961617    3.520032   -0.755771
     30          1           0        4.182088    3.900113    0.960691
     31          6           0        3.086473   -0.569311   -0.133351
     32          6           0        2.292554   -1.443985   -1.104238
     33          6           0        2.434536   -2.936933   -0.806343
     34          1           0        4.146903   -0.853774   -0.177692
     35          1           0        2.750776   -0.773499    0.892592
     36          1           0        2.630047   -1.237551   -2.128005
     37          1           0        1.234146   -1.157018   -1.059093
     38          1           0        2.079407   -3.163612    0.204153
     39          1           0        3.483240   -3.244602   -0.870833
     40          1           0        1.858936   -3.543693   -1.512309
 ---------------------------------------------------------------------

 SCF Done:  E(RHF) =  -470.732267978     A.U. after   11 cycles
 E2 =    -0.1584234064D+01 EUMP2 =    -0.47231650204145D+03

 The electronic state is 1-A.
 Alpha  occ. eigenvalues --  -11.21665 -11.21628 -11.21611 -11.21574 -11.21452
 Alpha  occ. eigenvalues --  -11.21413 -11.21391 -11.21348 -11.21090 -11.21081
 Alpha  occ. eigenvalues --  -11.21064 -11.20988  -1.08495  -1.08412  -1.03633
 Alpha  occ. eigenvalues --   -1.03468  -0.96080  -0.95915  -0.87071  -0.86955
 Alpha  occ. eigenvalues --   -0.79644  -0.79584  -0.78288  -0.78249  -0.65340
 Alpha  occ. eigenvalues --   -0.64895  -0.61365  -0.60572  -0.59433  -0.59295
 Alpha  occ. eigenvalues --   -0.57670  -0.57547  -0.55581  -0.54975  -0.52725
 Alpha  occ. eigenvalues --   -0.52663  -0.52428  -0.52379  -0.50017  -0.49813
 Alpha  occ. eigenvalues --   -0.47977  -0.47873  -0.46673  -0.46588  -0.45906
 Alpha  occ. eigenvalues --   -0.45762  -0.45737  -0.45637  -0.43810  -0.43777
 Alpha virt. eigenvalues --    0.19621   0.23192   0.23535   0.24884   0.25676
 Alpha virt. eigenvalues --    0.26075   0.26788   0.27854   0.28633   0.29351
 Alpha virt. eigenvalues --    0.29949   0.31312   0.31721   0.32124   0.32253

 Mulliken charges:
               1
     1  C   -0.298752
     2  C   -0.302237
     3  C   -0.481582
     4  H    0.150139
     5  H    0.149496
     6  H    0.152294
     7  H    0.152321
     8  H    0.164131
     9  H    0.155386
    10  H    0.159416
    11  C   -0.298264
    12  C   -0.299714
    13  C   -0.475750
    14  H    0.149665
    15  H    0.149467
    16  H    0.152031
    17  H    0.152087
    18  H    0.155256
    19  H    0.155206
    20  H    0.160386
    21  C   -0.299453
    22  C   -0.299634
    23  C   -0.475703
    24  H    0.149731
    25  H    0.149601
    26  H    0.152048
    27  H    0.152058
    28  H    0.155065
    29  H    0.155155
    30  H    0.160354
    31  C   -0.298871
    32  C   -0.303055
    33  C   -0.480269
    34  H    0.149698
    35  H    0.150821
    36  H    0.151967
    37  H    0.154271
    38  H    0.160842
    39  H    0.155284
    40  H    0.159109
 Sum of Mulliken charges =  -0.00000

 Dipole moment (field-independent basis, Debye):
    X=             -0.0143    Y=             -0.0207    Z=              0.0098  Tot=              0.0270
 Quadrupole moment (field-independent basis, Debye-Ang):
   XX=            -84.1669   YY=            -86.6793   ZZ=            -83.8927
   XY=              0.7685   XZ=             -0.9894   YZ=             -0.0561

 Normal termination of Gaussian 16 at Wed May  5 15:05:53 2021.
