 Gaussian 16, Revision A.03,
 Gaussian 16:  EM64L-G16RevA.03 25-Dec-2016

 -------------
 #p 6-31g* mp2
 -------------

 ------------------------------------------------------
 Input file generated by CHIRIPA (05-May-2021 14:51:12)
 ------------------------------------------------------
 Symbolic Z-matrix:
 Charge =  0 Multiplicity = 1

                         Standard orientation:
 ---------------------------------------------------------------------
 Center     Atomic      Atomic             Coordinates (Angstroms)
 Number     Number       Type             X           Y           Z
 ---------------------------------------------------------------------
      1          6           0       -4.293584    0.121718    0.067280
      2          6           0       -4.539323    1.559697   -0.390774
      3          6           0       -5.989605    1.808027   -0.806477
      4          1           0       -4.566925   -0.566617   -0.744154
      5          1           0       -4.961589   -0.106731    0.909287
      6          1           0       -3.870078    1.785815   -1.230772
      7          1           0       -4.265184    2.244697    0.421777
      8          1           0       -6.669108    1.609630    0.028697
      9          1           0       -6.271758    1.148141   -1.633242
     10          1           0       -6.142957    2.842182   -1.130307
     11          6           0       -2.848333   -0.142077    0.486074
     12          6           0       -2.602594   -1.580056    0.944128
     13          6           0       -1.152312   -1.828387    1.359831
     14          1           0       -2.180328    0.086371   -0.355933
     15          1           0       -2.574991    0.546257    1.297508
     16          1           0       -2.876733   -2.265057    0.131577
     17          1           0       -3.271839   -1.806175    1.784126
     18          1           0       -0.870159   -1.168501    2.186596
     19          1           0       -0.472808   -1.629990    0.524657
     20          1           0       -0.998959   -2.862542    1.683661
     21          6           0        3.361579   -0.714413   -0.156023
     22          6           0        2.449933   -1.272259   -1.249501
     23          6           0        2.039601   -2.722826   -0.994012
     24          1           0        4.259391   -1.342983   -0.080010
     25          1           0        2.847141   -0.785800    0.812302
     26          1           0        2.965397   -1.198567   -2.215672
     27          1           0        1.554277   -0.642176   -1.323051
     28          1           0        1.502552   -2.809632   -0.043936
     29          1           0        2.921689   -3.369185   -0.941629
     30          1           0        1.388170   -3.101529   -1.787789
     31          6           0        3.780337    0.734772   -0.397331
     32          6           0        4.691983    1.292619    0.696148
     33          6           0        5.102315    2.743186    0.440658
     34          1           0        4.294776    0.806160   -1.365655
     35          1           0        2.882526    1.363343   -0.473344
     36          1           0        5.587640    0.662536    0.769697
     37          1           0        4.176520    1.218927    1.662317
     38          1           0        4.220228    3.389544    0.388274
     39          1           0        5.639365    2.829992   -0.509418
     40          1           0        5.753747    3.121888    1.234435
 ---------------------------------------------------------------------

 SCF Done:  E(RHF) =  -470.733045438     A.U. after   11 cycles
 E2 =    -0.1582795045D+01 EUMP2 =    -0.47231584048275D+03

 The electronic state is 1-A.
 Alpha  occ. eigenvalues --  -11.21631 -11.21623 -11.21595 -11.21581 -11.21437
 Alpha  occ. eigenvalues --  -11.21378 -11.21376 -11.21318 -11.21091 -11.21087
 Alpha  occ. eigenvalues --  -11.21055 -11.20985  -1.08461  -1.08406  -1.03575
 Alpha  occ. eigenvalues --   -1.03492  -0.96043  -0.95922  -0.87069  -0.86932
 Alpha  occ. eigenvalues --   -0.79650  -0.79546  -0.78274  -0.78218  -0.65144
 Alpha  occ. eigenvalues --   -0.64999  -0.61150  -0.60750  -0.59380  -0.59319
 Alpha  occ. eigenvalues --   -0.57617  -0.57563  -0.55550  -0.55013  -0.52724
 Alpha  occ. eigenvalues --   -0.52644  -0.52451  -0.52335  -0.50131  -0.49691
 Alpha  occ. eigenvalues --   -0.47993  -0.47827  -0.46700  -0.46529  -0.45845
 Alpha  occ. eigenvalues --   -0.45769  -0.45696  -0.45658  -0.43809  -0.43760
 Alpha virt. eigenvalues --    0.21050   0.23060   0.23696   0.24935   0.26271
 Alpha virt. eigenvalues --    0.26449   0.27120   0.27826   0.27877   0.28968
 Alpha virt. eigenvalues --    0.30674   0.30855   0.31654   0.31754   0.32191

 Mulliken charges:
               1
     1  C   -0.298327
     2  C   -0.299691
     3  C   -0.475727
     4  H    0.149812
     5  H    0.149661
     6  H    0.151937
     7  H    0.151899
     8  H    0.155224
     9  H    0.155255
    10  H    0.160322
    11  C   -0.298549
    12  C   -0.299479
    13  C   -0.482432
    14  H    0.149229
    15  H    0.149524
    16  H    0.152371
    17  H    0.152019
    18  H    0.154643
    19  H    0.162854
    20  H    0.160480
    21  C   -0.298648
    22  C   -0.300997
    23  C   -0.480882
    24  H    0.149666
    25  H    0.150608
    26  H    0.152093
    27  H    0.151246
    28  H    0.161736
    29  H    0.155098
    30  H    0.159267
    31  C   -0.298326
    32  C   -0.299651
    33  C   -0.475704
    34  H    0.149344
    35  H    0.149717
    36  H    0.151891
    37  H    0.152044
    38  H    0.155178
    39  H    0.155113
    40  H    0.160183
 Sum of Mulliken charges =  -0.00000

 Dipole moment (field-independent basis, Debye):
    X=             -0.0164    Y=             -0.0089    Z=              0.0160  Tot=              0.0246
 Quadrupole moment (field-independent basis, Debye-Ang):
   XX=            -85.2260   YY=            -85.8280   ZZ=            -83.7450
   XY=             -0.3842   XZ=             -0.9198   YZ=              0.5549

 Normal termination of Gaussian 16 at Wed May  5 19:54:32 2021.
