 Gaussian 16, Revision A.03,
 Gaussian 16:  EM64L-G16RevA.03 25-Dec-2016

 -------------
 #p 6-31g* mp2
 -------------

 ------------------------------------------------------
 Input file generated by CHIRIPA (05-May-2021 14:57:22)
 ------------------------------------------------------
 Symbolic Z-matrix:
 Charge =  0 Multiplicity = 1

                         Standard orientation:
 ---------------------------------------------------------------------
 Center     Atomic      Atomic             Coordinates (Angstroms)
 Number     Number       Type             X           Y           Z
 ---------------------------------------------------------------------
      1          6           0        2.323554    2.734861    0.458295
      2          6           0        1.970559    2.118361   -0.746630
      3          6           0        2.365526    0.804222   -1.014188
      4          6           0        3.116150    0.133024   -0.050162
      5          6           0        3.483510    0.719961    1.159731
      6          6           0        3.077574    2.034927    1.405959
      7          1           0        2.012474    3.756037    0.657855
      8          1           0        1.385035    2.659519   -1.484434
      9          1           0        2.106068    0.302863   -1.938709
     10          1           0        4.067798    0.155009    1.875871
     11          1           0        3.353164    2.511184    2.342589
     12          7           0        3.540090   -1.258634   -0.322123
     13          8           0        4.200878   -1.828432    0.543513
     14          8           0        3.203559   -1.753265   -1.395773
     15          6           0       -1.130314   -1.998560    0.139265
     16          6           0       -1.054442   -0.900972   -0.724485
     17          6           0       -2.110031    0.011986   -0.806882
     18          6           0       -3.231509   -0.204207   -0.007607
     19          6           0       -3.336941   -1.288070    0.862688
     20          6           0       -2.269314   -2.188272    0.928703
     21          1           0       -0.305633   -2.702813    0.196911
     22          1           0       -0.171115   -0.751125   -1.338750
     23          1           0       -2.077621    0.870253   -1.466991
     24          1           0       -4.230483   -1.410958    1.462604
     25          1           0       -2.330998   -3.039778    1.600401
     26          7           0       -4.355385    0.755548   -0.086166
     27          8           0       -5.332436    0.542719    0.628475
     28          8           0       -4.237948    1.702459   -0.860895
 ---------------------------------------------------------------------

 SCF Done:  E(RHF) =  -868.338217078     A.U. after   16 cycles
 E2 =    -0.2600551534D+01 EUMP2 =    -0.87093876861172D+03

 The electronic state is 1-A.
 Alpha  occ. eigenvalues --  -20.61743 -20.61711 -20.60884 -20.60869 -15.86766
 Alpha  occ. eigenvalues --  -15.85930 -11.32009 -11.31204 -11.28617 -11.28498
 Alpha  occ. eigenvalues --  -11.28176 -11.27794 -11.27736 -11.27528 -11.27457
 Alpha  occ. eigenvalues --  -11.27370 -11.26709 -11.26696  -1.60807  -1.59956
 Alpha  occ. eigenvalues --   -1.40363  -1.39513  -1.20150  -1.19350  -1.09547
 Alpha  occ. eigenvalues --   -1.08740  -1.05543  -1.04748  -0.96414  -0.95597
 Alpha  occ. eigenvalues --   -0.86941  -0.86133  -0.83252  -0.82445  -0.78346
 Alpha  occ. eigenvalues --   -0.77526  -0.72976  -0.72161  -0.72128  -0.71279
 Alpha  occ. eigenvalues --   -0.71239  -0.70405  -0.65794  -0.65549  -0.64993
 Alpha  occ. eigenvalues --   -0.64739  -0.62922  -0.62083  -0.55983  -0.55171
 Alpha  occ. eigenvalues --   -0.53900  -0.53635  -0.53051  -0.52772  -0.49756
 Alpha  occ. eigenvalues --   -0.49721  -0.48913  -0.48894  -0.45790  -0.44941
 Alpha  occ. eigenvalues --   -0.38087  -0.37348  -0.37125  -0.36269
 Alpha virt. eigenvalues --    0.04137   0.05027   0.10334   0.11400   0.15700
 Alpha virt. eigenvalues --    0.16573   0.19842   0.21950   0.25417   0.27019
 Alpha virt. eigenvalues --    0.28257   0.28942   0.29819   0.30980   0.32113

 Mulliken charges:
               1
     1  C   -0.168943
     2  C   -0.217418
     3  C   -0.178859
     4  C    0.159513
     5  C   -0.170566
     6  C   -0.217169
     7  H    0.230872
     8  H    0.226123
     9  H    0.270964
    10  H    0.277098
    11  H    0.227076
    12  N    0.486938
    13  O   -0.456707
    14  O   -0.465704
    15  C   -0.174062
    16  C   -0.217416
    17  C   -0.173131
    18  C    0.158326
    19  C   -0.171581
    20  C   -0.218703
    21  H    0.234907
    22  H    0.224030
    23  H    0.269510
    24  H    0.275200
    25  H    0.224852
    26  N    0.488212
    27  O   -0.459981
    28  O   -0.463379
 Sum of Mulliken charges =  -0.00000

 Dipole moment (field-independent basis, Debye):
    X=              2.6855    Y=              1.5850    Z=              1.4529  Tot=              3.4402
 Quadrupole moment (field-independent basis, Debye-Ang):
   XX=           -138.5882   YY=           -101.0592   ZZ=            -99.2711
   XY=             27.3496   XZ=              2.8479   YZ=             -2.3436

 Normal termination of Gaussian 16 at Thu May  6 16:14:44 2021.
