 Gaussian 16, Revision A.03,
 Gaussian 16:  EM64L-G16RevA.03 25-Dec-2016

 -------------
 #p 6-31g* mp2
 -------------

 ------------------------------------------------------
 Input file generated by CHIRIPA (05-May-2021 14:51:10)
 ------------------------------------------------------
 Symbolic Z-matrix:
 Charge =  0 Multiplicity = 1

                         Standard orientation:
 ---------------------------------------------------------------------
 Center     Atomic      Atomic             Coordinates (Angstroms)
 Number     Number       Type             X           Y           Z
 ---------------------------------------------------------------------
      1          6           0       -3.491672    0.424258    0.255608
      2          6           0       -4.915710    0.865007   -0.084745
      3          6           0       -5.331778    2.139364    0.650574
      4          1           0       -3.412918    0.265959    1.339898
      5          1           0       -2.794600    1.236419    0.006852
      6          1           0       -5.609742    0.051733    0.163291
      7          1           0       -4.991135    1.022090   -1.168374
      8          1           0       -4.662709    2.967426    0.395109
      9          1           0       -5.284831    1.991555    1.734341
     10          1           0       -6.353082    2.436443    0.392616
     11          6           0       -3.061218   -0.848309   -0.471723
     12          6           0       -1.637179   -1.289058   -0.131370
     13          6           0       -1.221112   -2.563415   -0.866689
     14          1           0       -3.758290   -1.660470   -0.222967
     15          1           0       -3.139971   -0.690010   -1.556013
     16          1           0       -1.561755   -1.446141    0.952259
     17          1           0       -0.943148   -0.475784   -0.379406
     18          1           0       -1.268059   -2.415606   -1.950456
     19          1           0       -1.890181   -3.391476   -0.611224
     20          1           0       -0.199808   -2.860494   -0.608731
     21          6           0        3.290063    0.818930   -0.355531
     22          6           0        3.832875    2.081658    0.314437
     23          6           0        3.853876    3.287269   -0.625700
     24          1           0        3.902652    0.587257   -1.237577
     25          1           0        2.273657    1.015652   -0.723792
     26          1           0        4.847429    1.882187    0.682547
     27          1           0        3.219038    2.310243    1.195101
     28          1           0        2.844429    3.514396   -0.983513
     29          1           0        4.482072    3.083909   -1.498978
     30          1           0        4.245460    4.178992   -0.126346
     31          6           0        3.262827   -0.394878    0.571646
     32          6           0        2.720015   -1.657607   -0.098321
     33          6           0        2.699014   -2.863218    0.841814
     34          1           0        4.279232   -0.591601    0.939906
     35          1           0        2.650237   -0.163206    1.453693
     36          1           0        3.333852   -1.886191   -0.978985
     37          1           0        1.705460   -1.458137   -0.466433
     38          1           0        2.070817   -2.659858    1.715093
     39          1           0        3.708461   -3.090345    1.199628
     40          1           0        2.307430   -3.754940    0.342462
 ---------------------------------------------------------------------

 SCF Done:  E(RHF) =  -470.733020248     A.U. after   11 cycles
 E2 =    -0.1583275324D+01 EUMP2 =    -0.47231629557190D+03

 The electronic state is 1-A.
 Alpha  occ. eigenvalues --  -11.21658 -11.21628 -11.21603 -11.21560 -11.21442
 Alpha  occ. eigenvalues --  -11.21402 -11.21382 -11.21340 -11.21093 -11.21089
 Alpha  occ. eigenvalues --  -11.21078 -11.21045  -1.08474  -1.08419  -1.03599
 Alpha  occ. eigenvalues --   -1.03497  -0.96046  -0.95947  -0.87026  -0.86996
 Alpha  occ. eigenvalues --   -0.79624  -0.79596  -0.78292  -0.78231  -0.65140
 Alpha  occ. eigenvalues --   -0.65034  -0.61067  -0.60915  -0.59562  -0.59168
 Alpha  occ. eigenvalues --   -0.57764  -0.57418  -0.55290  -0.55265  -0.52769
 Alpha  occ. eigenvalues --   -0.52613  -0.52436  -0.52369  -0.49947  -0.49917
 Alpha  occ. eigenvalues --   -0.47951  -0.47897  -0.46695  -0.46579  -0.45856
 Alpha  occ. eigenvalues --   -0.45793  -0.45757  -0.45613  -0.43803  -0.43784
 Alpha virt. eigenvalues --    0.20694   0.23146   0.23338   0.24872   0.25751
 Alpha virt. eigenvalues --    0.26707   0.26889   0.27311   0.27994   0.29000
 Alpha virt. eigenvalues --    0.30776   0.31274   0.31458   0.31757   0.32369

 Mulliken charges:
               1
     1  C   -0.298281
     2  C   -0.299693
     3  C   -0.475730
     4  H    0.149629
     5  H    0.149236
     6  H    0.152051
     7  H    0.152040
     8  H    0.155161
     9  H    0.155193
    10  H    0.160383
    11  C   -0.298217
    12  C   -0.301096
    13  C   -0.482825
    14  H    0.149922
    15  H    0.149880
    16  H    0.152002
    17  H    0.151624
    18  H    0.155040
    19  H    0.155421
    20  H    0.168239
    21  C   -0.298524
    22  C   -0.299688
    23  C   -0.475670
    24  H    0.149708
    25  H    0.149073
    26  H    0.152020
    27  H    0.152086
    28  H    0.154960
    29  H    0.155181
    30  H    0.160304
    31  C   -0.297546
    32  C   -0.307944
    33  C   -0.477172
    34  H    0.149358
    35  H    0.149885
    36  H    0.151853
    37  H    0.160452
    38  H    0.155593
    39  H    0.155758
    40  H    0.160333
 Sum of Mulliken charges =  -0.00000

 Dipole moment (field-independent basis, Debye):
    X=             -0.0054    Y=             -0.0108    Z=              0.0024  Tot=              0.0123
 Quadrupole moment (field-independent basis, Debye-Ang):
   XX=            -83.9510   YY=            -86.1619   ZZ=            -84.6128
   XY=              0.2883   XZ=             -0.3280   YZ=             -0.2525

 Normal termination of Gaussian 16 at Wed May  5 21:25:55 2021.
