 Gaussian 16, Revision A.03,
 Gaussian 16:  EM64L-G16RevA.03 25-Dec-2016

 -------------
 #p 6-31g* mp2
 -------------

 ------------------------------------------------------
 Input file generated by CHIRIPA (05-May-2021 14:51:14)
 ------------------------------------------------------
 Symbolic Z-matrix:
 Charge =  0 Multiplicity = 1

                         Standard orientation:
 ---------------------------------------------------------------------
 Center     Atomic      Atomic             Coordinates (Angstroms)
 Number     Number       Type             X           Y           Z
 ---------------------------------------------------------------------
      1          6           0        3.394198   -0.194928    0.181009
      2          6           0        3.685340   -1.279893   -0.856329
      3          6           0        4.054134   -2.621054   -0.221449
      4          1           0        4.274539   -0.067294    0.825722
      5          1           0        2.575602   -0.530637    0.832618
      6          1           0        4.502216   -0.941655   -1.506656
      7          1           0        2.804273   -1.404824   -1.498769
      8          1           0        3.238829   -2.984328    0.412515
      9          1           0        4.946420   -2.518527    0.404583
     10          1           0        4.258227   -3.382174   -0.980991
     11          6           0        3.024009    1.151612   -0.438279
     12          6           0        2.732867    2.236578    0.599060
     13          6           0        2.364073    3.577739   -0.035820
     14          1           0        3.842605    1.487322   -1.089887
     15          1           0        2.143668    1.023979   -1.082992
     16          1           0        3.613935    2.361509    1.241499
     17          1           0        1.915991    1.898340    1.249386
     18          1           0        1.471788    3.475212   -0.661852
     19          1           0        3.179378    3.941013   -0.669784
     20          1           0        2.159981    4.338858    0.723721
     21          6           0       -2.568708   -0.500333    0.544378
     22          6           0       -1.594712   -1.592197    0.100365
     23          6           0       -0.318357   -1.623580    0.941629
     24          1           0       -2.066564    0.475170    0.487916
     25          1           0       -2.828297   -0.657598    1.600444
     26          1           0       -1.338116   -1.433722   -0.954936
     27          1           0       -2.099295   -2.565195    0.157707
     28          1           0       -0.555584   -1.804813    1.994948
     29          1           0        0.209920   -0.666911    0.875982
     30          1           0        0.363715   -2.411429    0.607066
     31          6           0       -3.849498   -0.456352   -0.287109
     32          6           0       -4.823495    0.635513    0.156905
     33          6           0       -6.099851    0.666896   -0.684360
     34          1           0       -3.589910   -0.299087   -1.343175
     35          1           0       -4.351644   -1.431856   -0.230647
     36          1           0       -4.318912    1.608509    0.099562
     37          1           0       -5.080092    0.477038    1.212205
     38          1           0       -6.628128   -0.289773   -0.618713
     39          1           0       -5.862623    0.848127   -1.737679
     40          1           0       -6.781923    1.454743   -0.349797
 ---------------------------------------------------------------------

 SCF Done:  E(RHF) =  -470.733007011     A.U. after   11 cycles
 E2 =    -0.1583408886D+01 EUMP2 =    -0.47231641589743D+03

 The electronic state is 1-A.
 Alpha  occ. eigenvalues --  -11.21688 -11.21639 -11.21612 -11.21547 -11.21468
 Alpha  occ. eigenvalues --  -11.21405 -11.21365 -11.21242 -11.21179 -11.21099
 Alpha  occ. eigenvalues --  -11.21086 -11.21035  -1.08498  -1.08391  -1.03602
 Alpha  occ. eigenvalues --   -1.03503  -0.96060  -0.95948  -0.87083  -0.86963
 Alpha  occ. eigenvalues --   -0.79682  -0.79559  -0.78318  -0.78185  -0.65225
 Alpha  occ. eigenvalues --   -0.64963  -0.61017  -0.60902  -0.59421  -0.59301
 Alpha  occ. eigenvalues --   -0.57683  -0.57547  -0.55484  -0.55113  -0.52755
 Alpha  occ. eigenvalues --   -0.52654  -0.52507  -0.52343  -0.50077  -0.49824
 Alpha  occ. eigenvalues --   -0.47988  -0.47884  -0.46763  -0.46589  -0.45923
 Alpha  occ. eigenvalues --   -0.45787  -0.45726  -0.45463  -0.43831  -0.43750
 Alpha virt. eigenvalues --    0.20177   0.22967   0.23248   0.24980   0.25726
 Alpha virt. eigenvalues --    0.26674   0.26932   0.27361   0.27758   0.29369
 Alpha virt. eigenvalues --    0.30169   0.31588   0.31701   0.31779   0.32379

 Mulliken charges:
               1
     1  C   -0.304775
     2  C   -0.299193
     3  C   -0.477725
     4  H    0.149071
     5  H    0.158352
     6  H    0.151614
     7  H    0.151738
     8  H    0.156627
     9  H    0.155248
    10  H    0.159922
    11  C   -0.298635
    12  C   -0.300893
    13  C   -0.475520
    14  H    0.149627
    15  H    0.148824
    16  H    0.152429
    17  H    0.151899
    18  H    0.154598
    19  H    0.155395
    20  H    0.160326
    21  C   -0.298660
    22  C   -0.299683
    23  C   -0.482707
    24  H    0.149543
    25  H    0.149813
    26  H    0.151883
    27  H    0.152442
    28  H    0.155959
    29  H    0.159369
    30  H    0.162482
    31  C   -0.298331
    32  C   -0.299721
    33  C   -0.475751
    34  H    0.149588
    35  H    0.149855
    36  H    0.152043
    37  H    0.152031
    38  H    0.155244
    39  H    0.155250
    40  H    0.160423
 Sum of Mulliken charges =  -0.00000

 Dipole moment (field-independent basis, Debye):
    X=             -0.0371    Y=             -0.0129    Z=              0.0234  Tot=              0.0457
 Quadrupole moment (field-independent basis, Debye-Ang):
   XX=            -84.6687   YY=            -85.3877   ZZ=            -84.7332
   XY=              1.0334   XZ=             -0.8407   YZ=             -0.0646

 Normal termination of Gaussian 16 at Wed May  5 20:01:44 2021.
