 Gaussian 16, Revision A.03,
 Gaussian 16:  EM64L-G16RevA.03 25-Dec-2016

 -------------
 #p 6-31g* mp2
 -------------

 ------------------------------------------------------
 Input file generated by CHIRIPA (05-May-2021 14:57:23)
 ------------------------------------------------------
 Symbolic Z-matrix:
 Charge =  0 Multiplicity = 1

                         Standard orientation:
 ---------------------------------------------------------------------
 Center     Atomic      Atomic             Coordinates (Angstroms)
 Number     Number       Type             X           Y           Z
 ---------------------------------------------------------------------
      1          6           0        3.435705    2.596315    0.151116
      2          6           0        2.114361    2.195282   -0.071916
      3          6           0        1.801346    0.842976   -0.238766
      4          6           0        2.839124   -0.085686   -0.176375
      5          6           0        4.165382    0.282549    0.044377
      6          6           0        4.455201    1.640354    0.208449
      7          1           0        3.669853    3.648954    0.279651
      8          1           0        1.320569    2.935494   -0.116929
      9          1           0        0.787027    0.504872   -0.412718
     10          1           0        4.935205   -0.478511    0.084113
     11          1           0        5.482278    1.948904    0.381524
     12          7           0        2.520027   -1.520222   -0.351541
     13          8           0        3.452436   -2.318805   -0.292239
     14          8           0        1.343553   -1.818866   -0.544822
     15          6           0       -4.212471    1.885137   -0.542945
     16          6           0       -3.641266    1.820652    0.732236
     17          6           0       -2.907425    0.697560    1.125542
     18          6           0       -2.764030   -0.347564    0.214256
     19          6           0       -3.321036   -0.313052   -1.063180
     20          6           0       -4.050818    0.819958   -1.435011
     21          1           0       -4.780960    2.761434   -0.840133
     22          1           0       -3.765173    2.646392    1.427107
     23          1           0       -2.454541    0.621402    2.106620
     24          1           0       -3.180306   -1.151920   -1.733935
     25          1           0       -4.493305    0.867287   -2.425975
     26          7           0       -1.989293   -1.541780    0.619263
     27          8           0       -1.877494   -2.449255   -0.202094
     28          8           0       -1.508524   -1.547720    1.750396
 ---------------------------------------------------------------------

 SCF Done:  E(RHF) =  -868.335448678     A.U. after   16 cycles
 E2 =    -0.2601746925D+01 EUMP2 =    -0.87093719560245D+03

 The electronic state is 1-A.
 Alpha  occ. eigenvalues --  -20.60210 -20.60104 -20.60029 -20.59945 -15.85233
 Alpha  occ. eigenvalues --  -15.85040 -11.31105 -11.30741 -11.27736 -11.27666
 Alpha  occ. eigenvalues --  -11.27519 -11.27384 -11.27343 -11.27176 -11.26832
 Alpha  occ. eigenvalues --  -11.26778 -11.26476 -11.26435  -1.59210  -1.59053
 Alpha  occ. eigenvalues --   -1.38759  -1.38601  -1.19309  -1.18951  -1.08604
 Alpha  occ. eigenvalues --   -1.08285  -1.04765  -1.04410  -0.95353  -0.95062
 Alpha  occ. eigenvalues --   -0.86135  -0.85795  -0.82180  -0.81896  -0.77142
 Alpha  occ. eigenvalues --   -0.76900  -0.71478  -0.71314  -0.70505  -0.70378
 Alpha  occ. eigenvalues --   -0.70316  -0.70071  -0.64930  -0.64750  -0.64596
 Alpha  occ. eigenvalues --   -0.64429  -0.62090  -0.61764  -0.55232  -0.54914
 Alpha  occ. eigenvalues --   -0.53097  -0.52843  -0.52711  -0.52513  -0.48248
 Alpha  occ. eigenvalues --   -0.48172  -0.48004  -0.47999  -0.44048  -0.43909
 Alpha  occ. eigenvalues --   -0.37322  -0.36947  -0.36405  -0.36024
 Alpha virt. eigenvalues --    0.05381   0.05670   0.11237   0.11630   0.16795
 Alpha virt. eigenvalues --    0.17093   0.21405   0.21599   0.27275   0.27349
 Alpha virt. eigenvalues --    0.28289   0.28407   0.30673   0.31205   0.32458

 Mulliken charges:
               1
     1  C   -0.171744
     2  C   -0.219209
     3  C   -0.168073
     4  C    0.160777
     5  C   -0.170824
     6  C   -0.218478
     7  H    0.222876
     8  H    0.219186
     9  H    0.270898
    10  H    0.275782
    11  H    0.222012
    12  N    0.489026
    13  O   -0.462940
    14  O   -0.451084
    15  C   -0.172958
    16  C   -0.220127
    17  C   -0.176395
    18  C    0.155624
    19  C   -0.171858
    20  C   -0.219071
    21  H    0.224348
    22  H    0.221576
    23  H    0.275532
    24  H    0.279602
    25  H    0.223699
    26  N    0.490690
    27  O   -0.446184
    28  O   -0.462679
 Sum of Mulliken charges =  -0.00000

 Dipole moment (field-independent basis, Debye):
    X=             -1.6446    Y=              8.8484    Z=             -0.8788  Tot=              9.0427
 Quadrupole moment (field-independent basis, Debye-Ang):
   XX=            -79.9148   YY=           -108.6045   ZZ=           -102.6852
   XY=              2.8997   XZ=              6.7893   YZ=              2.5602

 Normal termination of Gaussian 16 at Thu May  6 05:00:36 2021.
