 Gaussian 16, Revision A.03,
 Gaussian 16:  EM64L-G16RevA.03 25-Dec-2016

 -------------
 #p 6-31g* mp2
 -------------

 ------------------------------------------------------
 Input file generated by CHIRIPA (05-May-2021 14:51:13)
 ------------------------------------------------------
 Symbolic Z-matrix:
 Charge =  0 Multiplicity = 1

                         Standard orientation:
 ---------------------------------------------------------------------
 Center     Atomic      Atomic             Coordinates (Angstroms)
 Number     Number       Type             X           Y           Z
 ---------------------------------------------------------------------
      1          6           0       -3.995313    0.096045    0.044712
      2          6           0       -3.993700    1.535465   -0.471092
      3          6           0       -5.402189    2.075727   -0.720231
      4          1           0       -4.512873   -0.546183   -0.680973
      5          1           0       -4.577375    0.048103    0.975464
      6          1           0       -3.410655    1.580939   -1.399858
      7          1           0       -3.475915    2.174309    0.255815
      8          1           0       -5.990014    2.059340    0.203237
      9          1           0       -5.924383    1.462599   -1.461843
     10          1           0       -5.377638    3.106075   -1.088526
     11          6           0       -2.594520   -0.458107    0.298526
     12          6           0       -2.596132   -1.897526    0.814329
     13          6           0       -1.187644   -2.437788    1.063469
     14          1           0       -2.012457   -0.410165   -0.632227
     15          1           0       -2.076959    0.184122    1.024211
     16          1           0       -3.113917   -2.536370    0.087423
     17          1           0       -3.179177   -1.943000    1.743096
     18          1           0       -0.665449   -1.824660    1.805081
     19          1           0       -0.599818   -2.421402    0.140000
     20          1           0       -1.212195   -3.468136    1.431763
     21          6           0        2.786950   -0.363983   -0.340027
     22          6           0        3.427475   -1.723094   -0.623804
     23          6           0        2.398441   -2.803112   -0.959130
     24          1           0        2.076950   -0.466932    0.491988
     25          1           0        2.199835   -0.053224   -1.215311
     26          1           0        4.014332   -2.030555    0.251230
     27          1           0        4.136172   -1.616856   -1.455114
     28          1           0        1.819957   -2.522218   -1.845163
     29          1           0        1.697424   -2.938268   -0.129125
     30          1           0        2.878013   -3.766511   -1.158460
     31          6           0        3.802883    0.726045   -0.003210
     32          6           0        3.162357    2.085155    0.280567
     33          6           0        4.191391    3.165174    0.615892
     34          1           0        4.389997    0.415285    0.872073
     35          1           0        4.512882    0.828993   -0.835225
     36          1           0        2.453660    1.978918    1.111878
     37          1           0        2.575500    2.392617   -0.594466
     38          1           0        4.892409    3.300330   -0.214113
     39          1           0        4.769876    2.884280    1.501926
     40          1           0        3.711819    4.128572    0.815223
 ---------------------------------------------------------------------

 SCF Done:  E(RHF) =  -470.733119374     A.U. after   11 cycles
 E2 =    -0.1582755058D+01 EUMP2 =    -0.47231587443215D+03

 The electronic state is 1-A.
 Alpha  occ. eigenvalues --  -11.21592 -11.21587 -11.21580 -11.21559 -11.21390
 Alpha  occ. eigenvalues --  -11.21370 -11.21330 -11.21308 -11.21064 -11.21056
 Alpha  occ. eigenvalues --  -11.21036 -11.20991  -1.08419  -1.08393  -1.03535
 Alpha  occ. eigenvalues --   -1.03481  -0.96002  -0.95918  -0.87043  -0.86917
 Alpha  occ. eigenvalues --   -0.79660  -0.79494  -0.78261  -0.78171  -0.65052
 Alpha  occ. eigenvalues --   -0.65023  -0.60971  -0.60855  -0.59352  -0.59302
 Alpha  occ. eigenvalues --   -0.57673  -0.57485  -0.55372  -0.55136  -0.52698
 Alpha  occ. eigenvalues --   -0.52639  -0.52535  -0.52227  -0.50037  -0.49759
 Alpha  occ. eigenvalues --   -0.48089  -0.47707  -0.46665  -0.46510  -0.45887
 Alpha  occ. eigenvalues --   -0.45727  -0.45667  -0.45525  -0.43773  -0.43750
 Alpha virt. eigenvalues --    0.21984   0.23064   0.23594   0.24732   0.25892
 Alpha virt. eigenvalues --    0.26430   0.27073   0.27518   0.27950   0.29257
 Alpha virt. eigenvalues --    0.30760   0.31243   0.31696   0.31822   0.32200

 Mulliken charges:
               1
     1  C   -0.298309
     2  C   -0.299591
     3  C   -0.475700
     4  H    0.149610
     5  H    0.149452
     6  H    0.151883
     7  H    0.151991
     8  H    0.155157
     9  H    0.155149
    10  H    0.160209
    11  C   -0.298243
    12  C   -0.299974
    13  C   -0.481123
    14  H    0.149952
    15  H    0.149501
    16  H    0.152045
    17  H    0.151638
    18  H    0.154174
    19  H    0.161992
    20  H    0.159984
    21  C   -0.299427
    22  C   -0.299221
    23  C   -0.482107
    24  H    0.151426
    25  H    0.148937
    26  H    0.151783
    27  H    0.151542
    28  H    0.153531
    29  H    0.164170
    30  H    0.159926
    31  C   -0.298284
    32  C   -0.299488
    33  C   -0.475694
    34  H    0.149417
    35  H    0.149542
    36  H    0.151769
    37  H    0.151986
    38  H    0.155144
    39  H    0.155108
    40  H    0.160145
 Sum of Mulliken charges =  -0.00000

 Dipole moment (field-independent basis, Debye):
    X=             -0.0075    Y=             -0.0130    Z=              0.0029  Tot=              0.0152
 Quadrupole moment (field-independent basis, Debye-Ang):
   XX=            -86.2089   YY=            -85.6871   ZZ=            -83.0206
   XY=             -0.0438   XZ=             -0.4171   YZ=             -0.0264

 Normal termination of Gaussian 16 at Wed May  5 15:20:58 2021.
