 Gaussian 16, Revision A.03,
 Gaussian 16:  EM64L-G16RevA.03 25-Dec-2016

 -------------
 #p 6-31g* mp2
 -------------

 ------------------------------------------------------
 Input file generated by CHIRIPA (05-May-2021 14:57:27)
 ------------------------------------------------------
 Symbolic Z-matrix:
 Charge =  0 Multiplicity = 1

                         Standard orientation:
 ---------------------------------------------------------------------
 Center     Atomic      Atomic             Coordinates (Angstroms)
 Number     Number       Type             X           Y           Z
 ---------------------------------------------------------------------
      1          6           0       -3.856311   -2.284655   -0.117181
      2          6           0       -4.203823   -1.407807   -1.150087
      3          6           0       -3.887631   -0.048693   -1.064189
      4          6           0       -3.220515    0.401510    0.074039
      5          6           0       -2.860842   -0.447198    1.119801
      6          6           0       -3.187109   -1.802403    1.012475
      7          1           0       -4.105850   -3.338929   -0.192232
      8          1           0       -4.723568   -1.779531   -2.028569
      9          1           0       -4.144806    0.652119   -1.849136
     10          1           0       -2.343098   -0.047139    1.983116
     11          1           0       -2.915984   -2.481070    1.816183
     12          7           0       -2.880443    1.838274    0.176318
     13          8           0       -2.292405    2.209992    1.189568
     14          8           0       -3.208371    2.565486   -0.758702
     15          6           0        0.809017   -0.683244    0.033761
     16          6           0        1.744262   -1.723007    0.060786
     17          6           0        3.113976   -1.447426    0.010913
     18          6           0        3.515116   -0.114585   -0.065974
     19          6           0        2.607705    0.943277   -0.094634
     20          6           0        1.242958    0.644239   -0.043727
     21          1           0       -0.253080   -0.906433    0.072905
     22          1           0        1.410144   -2.754895    0.120934
     23          1           0        3.859539   -2.233033    0.030305
     24          1           0        2.971183    1.961939   -0.154900
     25          1           0        0.518891    1.453761   -0.064875
     26          7           0        4.962541    0.189577   -0.119320
     27          8           0        5.290269    1.372234   -0.186799
     28          8           0        5.741898   -0.760438   -0.092643
 ---------------------------------------------------------------------

 SCF Done:  E(RHF) =  -868.338248073     A.U. after   16 cycles
 E2 =    -0.2601502384D+01 EUMP2 =    -0.87093975045705D+03

 The electronic state is 1-A.
 Alpha  occ. eigenvalues --  -20.62064 -20.62047 -20.60522 -20.60509 -15.87088
 Alpha  occ. eigenvalues --  -15.85569 -11.32475 -11.30898 -11.29029 -11.28976
 Alpha  occ. eigenvalues --  -11.28715 -11.28038 -11.27953 -11.27501 -11.27387
 Alpha  occ. eigenvalues --  -11.27109 -11.26544 -11.26325  -1.61134  -1.59595
 Alpha  occ. eigenvalues --   -1.40678  -1.39149  -1.20655  -1.19058  -1.10020
 Alpha  occ. eigenvalues --   -1.08465  -1.06031  -1.04445  -0.96850  -0.95308
 Alpha  occ. eigenvalues --   -0.87405  -0.85849  -0.83660  -0.82133  -0.78720
 Alpha  occ. eigenvalues --   -0.77185  -0.73282  -0.72493  -0.71786  -0.71689
 Alpha  occ. eigenvalues --   -0.70917  -0.70189  -0.66265  -0.65970  -0.64705
 Alpha  occ. eigenvalues --   -0.64437  -0.63334  -0.61782  -0.56471  -0.55386
 Alpha  occ. eigenvalues --   -0.54070  -0.53961  -0.52794  -0.52520  -0.50064
 Alpha  occ. eigenvalues --   -0.50045  -0.48547  -0.48541  -0.46054  -0.44562
 Alpha  occ. eigenvalues --   -0.38618  -0.37649  -0.37031  -0.36050
 Alpha virt. eigenvalues --    0.03748   0.05333   0.09961   0.11593   0.15230
 Alpha virt. eigenvalues --    0.16838   0.20312   0.21799   0.26269   0.27035
 Alpha virt. eigenvalues --    0.27596   0.28660   0.30031   0.31434   0.31441

 Mulliken charges:
               1
     1  C   -0.170854
     2  C   -0.217693
     3  C   -0.169883
     4  C    0.158032
     5  C   -0.187173
     6  C   -0.221121
     7  H    0.230282
     8  H    0.228706
     9  H    0.279735
    10  H    0.280235
    11  H    0.227990
    12  N    0.485472
    13  O   -0.460326
    14  O   -0.454037
    15  C   -0.180342
    16  C   -0.221325
    17  C   -0.171736
    18  C    0.158182
    19  C   -0.171260
    20  C   -0.224746
    21  H    0.230472
    22  H    0.217997
    23  H    0.273517
    24  H    0.277843
    25  H    0.235797
    26  N    0.487960
    27  O   -0.459447
    28  O   -0.462278
 Sum of Mulliken charges =  -0.00000

 Dipole moment (field-independent basis, Debye):
    X=             -6.7450    Y=             -6.0107    Z=             -0.2443  Tot=              9.0378
 Quadrupole moment (field-independent basis, Debye-Ang):
   XX=           -132.0676   YY=           -104.0248   ZZ=           -101.6974
   XY=             11.8093   XZ=              4.6116   YZ=             -1.5696

 Normal termination of Gaussian 16 at Fri May  7 03:35:38 2021.
