 Gaussian 16, Revision A.03,
 Gaussian 16:  EM64L-G16RevA.03 25-Dec-2016

 -------------
 #p 6-31g* mp2
 -------------

 ------------------------------------------------------
 Input file generated by CHIRIPA (05-May-2021 14:53:15)
 ------------------------------------------------------
 Symbolic Z-matrix:
 Charge =  0 Multiplicity = 1

                         Standard orientation:
 ---------------------------------------------------------------------
 Center     Atomic      Atomic             Coordinates (Angstroms)
 Number     Number       Type             X           Y           Z
 ---------------------------------------------------------------------
      1          6           0       -4.548532   -0.059758   -0.286587
      2          6           0       -6.022612   -0.444129   -0.154932
      3          6           0       -6.802846   -0.248925   -1.455287
      4          1           0       -4.476735    0.989242   -0.605001
      5          1           0       -4.089960   -0.660588   -1.084152
      6          1           0       -6.477926    0.156267    0.643084
      7          1           0       -6.090905   -1.492281    0.163391
      8          1           0       -6.375239   -0.860207   -2.256590
      9          1           0       -6.764459    0.797708   -1.774172
     10          1           0       -7.854236   -0.529697   -1.338635
     11          6           0       -3.755310   -0.249403    1.005141
     12          6           0       -2.281230    0.134967    0.873486
     13          6           0       -1.500995   -0.060237    2.173841
     14          1           0       -4.213881    0.351427    1.802706
     15          1           0       -3.827106   -1.298404    1.323556
     16          1           0       -2.212936    1.183119    0.555163
     17          1           0       -1.825916   -0.465429    0.075470
     18          1           0       -1.539383   -1.106869    2.492726
     19          1           0       -1.928603    0.551045    2.975144
     20          1           0       -0.449606    0.220535    2.057189
     21          6           0        1.481067    1.913705   -0.491537
     22          6           0        2.783483    2.253756   -0.111275
     23          6           0        3.768185    1.268614    0.008743
     24          6           0        3.414092   -0.052569   -0.260301
     25          6           0        2.125272   -0.422947   -0.641160
     26          6           0        1.156691    0.578792   -0.754802
     27          1           0        0.722387    2.685433   -0.582294
     28          1           0        3.038256    3.289651    0.093803
     29          1           0        4.784246    1.504007    0.301368
     30          1           0        1.901425   -1.464178   -0.839018
     31          1           0        0.146032    0.311784   -1.050304
     32          7           0        4.448019   -1.104280   -0.136618
     33          8           0        4.110632   -2.260983   -0.379197
     34          8           0        5.576223   -0.751994    0.200561
 ---------------------------------------------------------------------

 SCF Done:  E(RHF) =  -669.535404122     A.U. after   15 cycles
 E2 =    -0.2092052812D+01 EUMP2 =    -0.67162745693495D+03

 The electronic state is 1-A.
 Alpha  occ. eigenvalues --  -20.60756 -20.60751 -15.85808 -11.31179 -11.27744
 Alpha  occ. eigenvalues --  -11.27736 -11.27485 -11.26765 -11.26708 -11.22551
 Alpha  occ. eigenvalues --  -11.22115 -11.22076 -11.22005 -11.21647 -11.21514
 Alpha  occ. eigenvalues --   -1.59831  -1.39384  -1.19352  -1.09110  -1.08742
 Alpha  occ. eigenvalues --   -1.04758  -1.04167  -0.96573  -0.95577  -0.87587
 Alpha  occ. eigenvalues --   -0.86149  -0.82412  -0.80280  -0.78938  -0.77448
 Alpha  occ. eigenvalues --   -0.72027  -0.71154  -0.70454  -0.65750  -0.64999
 Alpha  occ. eigenvalues --   -0.64763  -0.62145  -0.61546  -0.59942  -0.58203
 Alpha  occ. eigenvalues --   -0.55848  -0.55244  -0.53352  -0.53141  -0.52847
 Alpha  occ. eigenvalues --   -0.52822  -0.50512  -0.48807  -0.48782  -0.48532
 Alpha  occ. eigenvalues --   -0.47312  -0.46450  -0.46379  -0.44789  -0.44413
 Alpha  occ. eigenvalues --   -0.37322  -0.36336
 Alpha virt. eigenvalues --    0.05070   0.11228   0.16533   0.20365   0.22493
 Alpha virt. eigenvalues --    0.23956   0.25142   0.26010   0.27401   0.27901
 Alpha virt. eigenvalues --    0.28691   0.29949   0.31298   0.31360   0.31779

 Mulliken charges:
               1
     1  C   -0.298682
     2  C   -0.300122
     3  C   -0.476083
     4  H    0.147989
     5  H    0.148156
     6  H    0.153045
     7  H    0.153720
     8  H    0.155583
     9  H    0.154908
    10  H    0.162203
    11  C   -0.297773
    12  C   -0.301941
    13  C   -0.479839
    14  H    0.152058
    15  H    0.153054
    16  H    0.145665
    17  H    0.145034
    18  H    0.158779
    19  H    0.156925
    20  H    0.165265
    21  C   -0.173551
    22  C   -0.218435
    23  C   -0.171130
    24  C    0.158719
    25  C   -0.173199
    26  C   -0.218927
    27  H    0.226155
    28  H    0.223386
    29  H    0.275584
    30  H    0.275392
    31  H    0.230824
    32  N    0.488120
    33  O   -0.460417
    34  O   -0.460463
 Sum of Mulliken charges =  -0.00000

 Dipole moment (field-independent basis, Debye):
    X=             -3.7610    Y=              3.6819    Z=             -0.3710  Tot=              5.2763
 Quadrupole moment (field-independent basis, Debye-Ang):
   XX=           -117.6410   YY=            -92.1511   ZZ=            -95.4918
   XY=             15.6173   XZ=             -0.3211   YZ=              0.4169

 Normal termination of Gaussian 16 at Thu May  6 15:30:00 2021.
