 Gaussian 16, Revision A.03,
 Gaussian 16:  EM64L-G16RevA.03 25-Dec-2016

 -------------
 #p 6-31g* mp2
 -------------

 ------------------------------------------------------
 Input file generated by CHIRIPA (05-May-2021 14:51:10)
 ------------------------------------------------------
 Symbolic Z-matrix:
 Charge =  0 Multiplicity = 1

                         Standard orientation:
 ---------------------------------------------------------------------
 Center     Atomic      Atomic             Coordinates (Angstroms)
 Number     Number       Type             X           Y           Z
 ---------------------------------------------------------------------
      1          6           0       -3.152636    0.825161   -0.155880
      2          6           0       -4.376807    1.669609    0.199503
      3          6           0       -4.161586    3.161037   -0.059563
      4          1           0       -2.289891    1.178928    0.425038
      5          1           0       -2.902351    0.982049   -1.214247
      6          1           0       -4.625543    1.510112    1.256530
      7          1           0       -5.236782    1.313666   -0.382187
      8          1           0       -3.935676    3.339908   -1.115769
      9          1           0       -3.320964    3.537470    0.532260
     10          1           0       -5.049060    3.745999    0.201339
     11          6           0       -3.352366   -0.668015    0.097617
     12          6           0       -2.128195   -1.512463   -0.257766
     13          6           0       -2.343416   -3.003891    0.001300
     14          1           0       -3.602650   -0.824903    1.155983
     15          1           0       -4.215111   -1.021782   -0.483301
     16          1           0       -1.268220   -1.156520    0.323924
     17          1           0       -1.879459   -1.352966   -1.314794
     18          1           0       -3.184038   -3.380324   -0.590523
     19          1           0       -2.569326   -3.182762    1.057506
     20          1           0       -1.455942   -3.588853   -0.259603
     21          6           0        2.817218   -0.595207    0.385572
     22          6           0        2.558756   -1.849901   -0.449249
     23          6           0        1.686459   -2.874077    0.277357
     24          1           0        3.297822   -0.883743    1.330406
     25          1           0        1.855212   -0.135776    0.651773
     26          1           0        3.521008   -2.306061   -0.714962
     27          1           0        2.078885   -1.558325   -1.392288
     28          1           0        0.712643   -2.441495    0.528667
     29          1           0        2.162961   -3.193479    1.209841
     30          1           0        1.514322   -3.763011   -0.337482
     31          6           0        3.687784    0.438061   -0.327309
     32          6           0        3.946246    1.692755    0.507512
     33          6           0        4.818544    2.716931   -0.219093
     34          1           0        4.649790   -0.021369   -0.593510
     35          1           0        3.207179    0.726597   -1.272143
     36          1           0        4.426117    1.401179    1.450551
     37          1           0        2.983993    2.148915    0.773225
     38          1           0        4.342041    3.036333   -1.151579
     39          1           0        5.792359    2.284349   -0.470405
     40          1           0        4.990680    3.605864    0.395746
 ---------------------------------------------------------------------

 SCF Done:  E(RHF) =  -470.732810234     A.U. after   11 cycles
 E2 =    -0.1583291669D+01 EUMP2 =    -0.47231610190330D+03

 The electronic state is 1-A.
 Alpha  occ. eigenvalues --  -11.21644 -11.21629 -11.21599 -11.21576 -11.21440
 Alpha  occ. eigenvalues --  -11.21401 -11.21380 -11.21342 -11.21097 -11.21067
 Alpha  occ. eigenvalues --  -11.21027 -11.20998  -1.08470  -1.08415  -1.03591
 Alpha  occ. eigenvalues --   -1.03483  -0.96052  -0.95914  -0.87048  -0.86949
 Alpha  occ. eigenvalues --   -0.79639  -0.79570  -0.78301  -0.78217  -0.65155
 Alpha  occ. eigenvalues --   -0.65007  -0.61125  -0.60813  -0.59400  -0.59301
 Alpha  occ. eigenvalues --   -0.57694  -0.57530  -0.55370  -0.55123  -0.52809
 Alpha  occ. eigenvalues --   -0.52584  -0.52438  -0.52316  -0.49949  -0.49864
 Alpha  occ. eigenvalues --   -0.47997  -0.47851  -0.46792  -0.46489  -0.45902
 Alpha  occ. eigenvalues --   -0.45775  -0.45747  -0.45538  -0.43867  -0.43710
 Alpha virt. eigenvalues --    0.21067   0.23170   0.23473   0.25067   0.25599
 Alpha virt. eigenvalues --    0.26751   0.26933   0.27389   0.28349   0.29082
 Alpha virt. eigenvalues --    0.29884   0.31129   0.31389   0.31861   0.32498

 Mulliken charges:
               1
     1  C   -0.298340
     2  C   -0.299670
     3  C   -0.475736
     4  H    0.149191
     5  H    0.149435
     6  H    0.152080
     7  H    0.152092
     8  H    0.155157
     9  H    0.155125
    10  H    0.160411
    11  C   -0.297624
    12  C   -0.303596
    13  C   -0.479485
    14  H    0.149762
    15  H    0.149969
    16  H    0.153131
    17  H    0.152087
    18  H    0.155228
    19  H    0.155091
    20  H    0.165229
    21  C   -0.299060
    22  C   -0.299156
    23  C   -0.484239
    24  H    0.149589
    25  H    0.149303
    26  H    0.151732
    27  H    0.152219
    28  H    0.165784
    29  H    0.154713
    30  H    0.159422
    31  C   -0.298291
    32  C   -0.299633
    33  C   -0.475708
    34  H    0.149584
    35  H    0.149874
    36  H    0.151858
    37  H    0.151816
    38  H    0.155262
    39  H    0.155176
    40  H    0.160219
 Sum of Mulliken charges =  -0.00000

 Dipole moment (field-independent basis, Debye):
    X=             -0.0192    Y=             -0.0065    Z=             -0.0033  Tot=              0.0205
 Quadrupole moment (field-independent basis, Debye-Ang):
   XX=            -84.3693   YY=            -86.5184   ZZ=            -83.8837
   XY=             -0.8059   XZ=              0.9222   YZ=              0.4152

 Normal termination of Gaussian 16 at Thu May  6 02:11:11 2021.
