 Gaussian 16, Revision A.03,
 Gaussian 16:  EM64L-G16RevA.03 25-Dec-2016

 -------------
 #p 6-31g* mp2
 -------------

 ------------------------------------------------------
 Input file generated by CHIRIPA (05-May-2021 14:51:08)
 ------------------------------------------------------
 Symbolic Z-matrix:
 Charge =  0 Multiplicity = 1

                         Standard orientation:
 ---------------------------------------------------------------------
 Center     Atomic      Atomic             Coordinates (Angstroms)
 Number     Number       Type             X           Y           Z
 ---------------------------------------------------------------------
      1          6           0       -2.958501   -0.100425    0.548818
      2          6           0       -1.679953   -0.673525   -0.063437
      3          6           0       -0.450178   -0.447208    0.816465
      4          1           0       -2.823568    0.975861    0.723024
      5          1           0       -3.122171   -0.558438    1.534126
      6          1           0       -1.519488   -0.215587   -1.047896
      7          1           0       -1.818014   -1.748534   -0.236383
      8          1           0       -0.584690   -0.918962    1.795217
      9          1           0       -0.284468    0.622695    0.979093
     10          1           0        0.452565   -0.864767    0.359782
     11          6           0       -4.196526   -0.318806   -0.319127
     12          6           0       -5.475074    0.254295    0.293128
     13          6           0       -6.704849    0.027978   -0.586774
     14          1           0       -4.032856    0.139207   -1.304435
     15          1           0       -4.331459   -1.395091   -0.493333
     16          1           0       -5.337013    1.329304    0.466074
     17          1           0       -5.635539   -0.203644    1.277587
     18          1           0       -6.870559   -1.041926   -0.749402
     19          1           0       -6.570337    0.499732   -1.565526
     20          1           0       -7.607592    0.445537   -0.130091
     21          6           0        3.085756    0.788894   -0.192577
     22          6           0        3.725419    2.160610    0.024705
     23          6           0        2.728993    3.309388   -0.134165
     24          1           0        2.640557    0.753839   -1.196327
     25          1           0        2.259651    0.660203    0.520432
     26          1           0        4.550959    2.286115   -0.687579
     27          1           0        4.169314    2.192338    1.027983
     28          1           0        1.910486    3.211810    0.586339
     29          1           0        2.294300    3.306121   -1.138971
     30          1           0        3.207400    4.280746    0.025359
     31          6           0        4.069271   -0.369665   -0.037113
     32          6           0        3.429608   -1.741380   -0.254396
     33          6           0        4.426034   -2.890157   -0.095526
     34          1           0        4.895376   -0.240973   -0.750124
     35          1           0        4.514469   -0.334608    0.966636
     36          1           0        2.985713   -1.773107   -1.257674
     37          1           0        2.604068   -1.866885    0.457889
     38          1           0        4.860727   -2.886890    0.909280
     39          1           0        5.244540   -2.792580   -0.816030
     40          1           0        3.947627   -3.861517   -0.255049
 ---------------------------------------------------------------------

 SCF Done:  E(RHF) =  -470.731868224     A.U. after   11 cycles
 E2 =    -0.1583886240D+01 EUMP2 =    -0.47231575446455D+03

 The electronic state is 1-A.
 Alpha  occ. eigenvalues --  -11.21602 -11.21591 -11.21575 -11.21548 -11.21388
 Alpha  occ. eigenvalues --  -11.21347 -11.21329 -11.21222 -11.21072 -11.21063
 Alpha  occ. eigenvalues --  -11.21059 -11.20986  -1.08432  -1.08378  -1.03515
 Alpha  occ. eigenvalues --   -1.03509  -0.96009  -0.95918  -0.87016  -0.86960
 Alpha  occ. eigenvalues --   -0.79619  -0.79584  -0.78272  -0.78149  -0.65079
 Alpha  occ. eigenvalues --   -0.65010  -0.60978  -0.60858  -0.59446  -0.59245
 Alpha  occ. eigenvalues --   -0.57634  -0.57511  -0.55332  -0.55177  -0.52860
 Alpha  occ. eigenvalues --   -0.52561  -0.52392  -0.52347  -0.50004  -0.49826
 Alpha  occ. eigenvalues --   -0.48014  -0.47793  -0.46718  -0.46529  -0.45812
 Alpha  occ. eigenvalues --   -0.45740  -0.45706  -0.45566  -0.43774  -0.43548
 Alpha virt. eigenvalues --    0.22069   0.23083   0.23763   0.24105   0.25976
 Alpha virt. eigenvalues --    0.26616   0.26693   0.27418   0.27842   0.29423
 Alpha virt. eigenvalues --    0.30048   0.31424   0.31739   0.31918   0.32239

 Mulliken charges:
               1
     1  C   -0.298855
     2  C   -0.298805
     3  C   -0.485677
     4  H    0.149708
     5  H    0.149316
     6  H    0.152093
     7  H    0.151702
     8  H    0.153698
     9  H    0.155003
    10  H    0.172049
    11  C   -0.298214
    12  C   -0.299604
    13  C   -0.475685
    14  H    0.149513
    15  H    0.149571
    16  H    0.151953
    17  H    0.151855
    18  H    0.155139
    19  H    0.155178
    20  H    0.160215
    21  C   -0.306203
    22  C   -0.299090
    23  C   -0.475867
    24  H    0.148115
    25  H    0.160937
    26  H    0.151393
    27  H    0.151622
    28  H    0.154695
    29  H    0.154911
    30  H    0.160197
    31  C   -0.297406
    32  C   -0.305114
    33  C   -0.475082
    34  H    0.149126
    35  H    0.149304
    36  H    0.151488
    37  H    0.156133
    38  H    0.155284
    39  H    0.155270
    40  H    0.160135
 Sum of Mulliken charges =  -0.00000

 Dipole moment (field-independent basis, Debye):
    X=              0.0001    Y=             -0.0168    Z=              0.0094  Tot=              0.0193
 Quadrupole moment (field-independent basis, Debye-Ang):
   XX=            -86.2445   YY=            -84.9318   ZZ=            -83.8689
   XY=              0.5840   XZ=             -0.7787   YZ=             -0.4490

 Normal termination of Gaussian 16 at Wed May  5 19:41:45 2021.
