 Gaussian 16, Revision A.03,
 Gaussian 16:  EM64L-G16RevA.03 25-Dec-2016

 -------------
 #p 6-31g* mp2
 -------------

 ------------------------------------------------------
 Input file generated by CHIRIPA (05-May-2021 14:51:13)
 ------------------------------------------------------
 Symbolic Z-matrix:
 Charge =  0 Multiplicity = 1

                         Standard orientation:
 ---------------------------------------------------------------------
 Center     Atomic      Atomic             Coordinates (Angstroms)
 Number     Number       Type             X           Y           Z
 ---------------------------------------------------------------------
      1          6           0        2.234000   -0.869476    0.717812
      2          6           0        1.669728   -0.173082    1.956608
      3          6           0        0.589632   -0.997477    2.657721
      4          1           0        1.414557   -1.075662    0.015710
      5          1           0        2.647725   -1.844484    1.010362
      6          1           0        1.258432    0.800920    1.662037
      7          1           0        2.490638    0.031643    2.655759
      8          1           0        0.990836   -1.963972    2.979473
      9          1           0       -0.248370   -1.190324    1.980105
     10          1           0        0.200140   -0.480965    3.540540
     11          6           0        3.314808   -0.057718    0.006032
     12          6           0        3.879080   -0.754112   -1.232765
     13          6           0        4.959175    0.070284   -1.933877
     14          1           0        2.901082    0.917290   -0.286518
     15          1           0        4.134250    0.148469    0.708134
     16          1           0        3.058170   -0.958836   -1.931915
     17          1           0        4.290375   -1.728114   -0.938194
     18          1           0        5.797178    0.263131   -1.256262
     19          1           0        4.557972    1.036779   -2.255629
     20          1           0        5.348668   -0.446229   -2.816697
     21          6           0       -2.724979    1.222631   -0.292234
     22          6           0       -1.307564    1.713263    0.004749
     23          6           0       -1.224842    3.233881    0.141397
     24          1           0       -3.083588    1.695341   -1.216836
     25          1           0       -3.396851    1.556656    0.510519
     26          1           0       -0.638308    1.377234   -0.797620
     27          1           0       -0.952216    1.239183    0.928649
     28          1           0       -1.869482    3.583246    0.954406
     29          1           0       -1.553790    3.722082   -0.781671
     30          1           0       -0.202785    3.562889    0.353562
     31          6           0       -2.823828   -0.295437   -0.431610
     32          6           0       -4.241243   -0.786070   -0.728593
     33          6           0       -4.323966   -2.306688   -0.865241
     34          1           0       -2.151957   -0.629463   -1.234363
     35          1           0       -2.465220   -0.768149    0.492993
     36          1           0       -4.596591   -0.311989   -1.652492
     37          1           0       -4.910500   -0.450040    0.073776
     38          1           0       -3.995018   -2.794889    0.057827
     39          1           0       -3.679325   -2.656053   -1.678249
     40          1           0       -5.346023   -2.635696   -1.077405
 ---------------------------------------------------------------------

 SCF Done:  E(RHF) =  -470.732909371     A.U. after   11 cycles
 E2 =    -0.1584180730D+01 EUMP2 =    -0.47231709010106D+03

 The electronic state is 1-A.
 Alpha  occ. eigenvalues --  -11.21642 -11.21632 -11.21589 -11.21535 -11.21463
 Alpha  occ. eigenvalues --  -11.21401 -11.21371 -11.21307 -11.21132 -11.21096
 Alpha  occ. eigenvalues --  -11.21069 -11.21064  -1.08500  -1.08387  -1.03605
 Alpha  occ. eigenvalues --   -1.03488  -0.96028  -0.95968  -0.87043  -0.86981
 Alpha  occ. eigenvalues --   -0.79695  -0.79534  -0.78319  -0.78208  -0.65215
 Alpha  occ. eigenvalues --   -0.64961  -0.61147  -0.60781  -0.59395  -0.59310
 Alpha  occ. eigenvalues --   -0.57678  -0.57539  -0.55314  -0.55268  -0.52718
 Alpha  occ. eigenvalues --   -0.52662  -0.52465  -0.52379  -0.49995  -0.49890
 Alpha  occ. eigenvalues --   -0.48050  -0.47857  -0.46815  -0.46447  -0.45994
 Alpha  occ. eigenvalues --   -0.45776  -0.45643  -0.45490  -0.43832  -0.43760
 Alpha virt. eigenvalues --    0.20308   0.22746   0.23683   0.24047   0.25705
 Alpha virt. eigenvalues --    0.25876   0.26266   0.28277   0.28823   0.29282
 Alpha virt. eigenvalues --    0.30889   0.31379   0.31743   0.31866   0.32311

 Mulliken charges:
               1
     1  C   -0.298525
     2  C   -0.303940
     3  C   -0.481683
     4  H    0.150878
     5  H    0.149235
     6  H    0.156941
     7  H    0.151826
     8  H    0.155694
     9  H    0.159418
    10  H    0.159484
    11  C   -0.298739
    12  C   -0.299549
    13  C   -0.475685
    14  H    0.149675
    15  H    0.149529
    16  H    0.151632
    17  H    0.151949
    18  H    0.155194
    19  H    0.155079
    20  H    0.160165
    21  C   -0.297473
    22  C   -0.307845
    23  C   -0.476516
    24  H    0.149744
    25  H    0.149771
    26  H    0.151364
    27  H    0.161241
    28  H    0.155614
    29  H    0.155561
    30  H    0.160201
    31  C   -0.303096
    32  C   -0.299482
    33  C   -0.475857
    34  H    0.149099
    35  H    0.153602
    36  H    0.152183
    37  H    0.152214
    38  H    0.155452
    39  H    0.155188
    40  H    0.160455
 Sum of Mulliken charges =  -0.00000

 Dipole moment (field-independent basis, Debye):
    X=             -0.0328    Y=              0.0062    Z=              0.0020  Tot=              0.0334
 Quadrupole moment (field-independent basis, Debye-Ang):
   XX=            -84.9026   YY=            -85.9826   ZZ=            -83.8946
   XY=             -0.9243   XZ=              0.6703   YZ=             -0.1565

 Normal termination of Gaussian 16 at Thu May  6 03:57:19 2021.
