 Gaussian 16, Revision A.03,
 Gaussian 16:  EM64L-G16RevA.03 25-Dec-2016

 -------------
 #p 6-31g* mp2
 -------------

 ------------------------------------------------------
 Input file generated by CHIRIPA (05-May-2021 14:57:25)
 ------------------------------------------------------
 Symbolic Z-matrix:
 Charge =  0 Multiplicity = 1

                         Standard orientation:
 ---------------------------------------------------------------------
 Center     Atomic      Atomic             Coordinates (Angstroms)
 Number     Number       Type             X           Y           Z
 ---------------------------------------------------------------------
      1          6           0       -5.004569   -1.932034   -0.058701
      2          6           0       -4.366354   -1.460605    1.093235
      3          6           0       -3.541274   -0.333387    1.036938
      4          6           0       -3.375962    0.300853   -0.193388
      5          6           0       -3.998173   -0.144633   -1.358585
      6          6           0       -4.818770   -1.273704   -1.278783
      7          1           0       -5.643770   -2.808404   -0.005839
      8          1           0       -4.508816   -1.969869    2.042129
      9          1           0       -3.035136    0.052939    1.913291
     10          1           0       -3.836858    0.384145   -2.290137
     11          1           0       -5.313153   -1.637583   -2.175010
     12          7           0       -2.504860    1.495170   -0.265428
     13          8           0       -2.375515    2.036105   -1.361464
     14          8           0       -1.967930    1.867724    0.775507
     15          6           0        1.646058    0.887373    1.550154
     16          6           0        1.987687   -0.460320    1.703566
     17          6           0        3.023984   -1.020262    0.950506
     18          6           0        3.700650   -0.199859    0.049199
     19          6           0        3.383805    1.146282   -0.126311
     20          6           0        2.343977    1.684967    0.637315
     21          1           0        0.839666    1.314094    2.139253
     22          1           0        1.447402   -1.082121    2.411731
     23          1           0        3.309223   -2.060599    1.049275
     24          1           0        3.940601    1.741038   -0.840217
     25          1           0        2.080840    2.731917    0.516077
     26          7           0        4.799602   -0.781393   -0.753624
     27          8           0        5.380369   -0.037438   -1.540947
     28          8           0        5.059383   -1.970144   -0.580353
 ---------------------------------------------------------------------

 SCF Done:  E(RHF) =  -868.339626251     A.U. after   16 cycles
 E2 =    -0.2598578170D+01 EUMP2 =    -0.87093820442087D+03

 The electronic state is 1-A.
 Alpha  occ. eigenvalues --  -20.61649 -20.61587 -20.60229 -20.60217 -15.86657
 Alpha  occ. eigenvalues --  -15.85275 -11.31828 -11.30468 -11.28416 -11.28337
 Alpha  occ. eigenvalues --  -11.28060 -11.27360 -11.27308 -11.27089 -11.26989
 Alpha  occ. eigenvalues --  -11.26592 -11.26038 -11.25855  -1.60678  -1.59306
 Alpha  occ. eigenvalues --   -1.40243  -1.38864  -1.19977  -1.18619  -1.09404
 Alpha  occ. eigenvalues --   -1.08011  -1.05356  -1.04006  -0.96276  -0.94878
 Alpha  occ. eigenvalues --   -0.86761  -0.85391  -0.83123  -0.81728  -0.78195
 Alpha  occ. eigenvalues --   -0.76829  -0.72901  -0.71980  -0.71496  -0.71084
 Alpha  occ. eigenvalues --   -0.70629  -0.69630  -0.65636  -0.65355  -0.64256
 Alpha  occ. eigenvalues --   -0.63992  -0.62712  -0.61366  -0.55851  -0.54388
 Alpha  occ. eigenvalues --   -0.53687  -0.53446  -0.52337  -0.52084  -0.49660
 Alpha  occ. eigenvalues --   -0.49615  -0.48261  -0.48237  -0.45686  -0.44310
 Alpha  occ. eigenvalues --   -0.37935  -0.36950  -0.36529  -0.35625
 Alpha virt. eigenvalues --    0.04315   0.05724   0.10708   0.12045   0.15837
 Alpha virt. eigenvalues --    0.17282   0.20797   0.22287   0.26726   0.27550
 Alpha virt. eigenvalues --    0.28085   0.29201   0.30546   0.31596   0.32450

 Mulliken charges:
               1
     1  C   -0.169925
     2  C   -0.218318
     3  C   -0.171085
     4  C    0.159190
     5  C   -0.169944
     6  C   -0.218155
     7  H    0.227940
     8  H    0.224048
     9  H    0.270560
    10  H    0.277401
    11  H    0.226146
    12  N    0.490854
    13  O   -0.455679
    14  O   -0.471547
    15  C   -0.168901
    16  C   -0.221644
    17  C   -0.172215
    18  C    0.157041
    19  C   -0.171845
    20  C   -0.217695
    21  H    0.237657
    22  H    0.217072
    23  H    0.271655
    24  H    0.274363
    25  H    0.230019
    26  N    0.488270
    27  O   -0.461495
    28  O   -0.463768
 Sum of Mulliken charges =  -0.00000

 Dipole moment (field-independent basis, Debye):
    X=             -7.3261    Y=             -2.0213    Z=              2.9738  Tot=              8.1610
 Quadrupole moment (field-independent basis, Debye-Ang):
   XX=           -114.1072   YY=           -104.8446   ZZ=            -99.4631
   XY=             23.4250   XZ=             11.1211   YZ=             -2.1761

 Normal termination of Gaussian 16 at Fri May  7 09:38:47 2021.
