 Gaussian 16, Revision A.03,
 Gaussian 16:  EM64L-G16RevA.03 25-Dec-2016

 -------------
 #p 6-31g* mp2
 -------------

 ------------------------------------------------------
 Input file generated by CHIRIPA (05-May-2021 14:55:21)
 ------------------------------------------------------
 Symbolic Z-matrix:
 Charge =  0 Multiplicity = 1

                         Standard orientation:
 ---------------------------------------------------------------------
 Center     Atomic      Atomic             Coordinates (Angstroms)
 Number     Number       Type             X           Y           Z
 ---------------------------------------------------------------------
      1          6           0        2.007793   -2.313501   -1.065401
      2          6           0        3.302632   -1.975690   -0.658219
      3          6           0        3.565489   -0.724109   -0.093418
      4          6           0        2.505126    0.169392    0.050033
      5          6           0        1.204276   -0.137726   -0.345892
      6          6           0        0.964587   -1.395060   -0.908215
      7          1           0        1.812599   -3.287994   -1.503190
      8          1           0        4.114741   -2.686969   -0.779074
      9          1           0        4.558405   -0.436599    0.230422
     10          1           0        0.415181    0.592329   -0.212594
     11          1           0       -0.041998   -1.654685   -1.223536
     12          7           0        2.771138    1.497430    0.646650
     13          8           0        1.819687    2.266862    0.762204
     14          8           0        3.926051    1.743767    0.987428
     15          6           0       -3.455397    0.763537    0.049140
     16          6           0       -2.671155    1.750900   -0.815767
     17          6           0       -3.293627    3.147356   -0.831096
     18          1           0       -4.488174    0.702142   -0.320387
     19          1           0       -3.513219    1.151507    1.075556
     20          1           0       -2.613643    1.360517   -1.839930
     21          1           0       -1.640075    1.809807   -0.444256
     22          1           0       -3.336453    3.561180    0.181582
     23          1           0       -4.315553    3.109336   -1.222021
     24          1           0       -2.717037    3.837084   -1.455339
     25          6           0       -2.845491   -0.636855    0.074501
     26          6           0       -3.629733   -1.624218    0.939408
     27          6           0       -3.007262   -3.020674    0.954737
     28          1           0       -2.787669   -1.024825   -0.951915
     29          1           0       -1.812715   -0.575460    0.444028
     30          1           0       -4.660813   -1.683126    0.567897
     31          1           0       -3.687245   -1.233835    1.963570
     32          1           0       -1.985336   -2.982654    1.345662
     33          1           0       -2.964435   -3.434497   -0.057941
     34          1           0       -3.583852   -3.710402    1.578980
 ---------------------------------------------------------------------

 SCF Done:  E(RHF) =  -669.535321749     A.U. after   15 cycles
 E2 =    -0.2093198617D+01 EUMP2 =    -0.67162852036672D+03

 The electronic state is 1-A.
 Alpha  occ. eigenvalues --  -20.60745 -20.60740 -15.85794 -11.31121 -11.27696
 Alpha  occ. eigenvalues --  -11.27643 -11.27415 -11.26710 -11.26630 -11.22222
 Alpha  occ. eigenvalues --  -11.22159 -11.22009 -11.21833 -11.21729 -11.21174
 Alpha  occ. eigenvalues --   -1.59819  -1.39374  -1.19291  -1.09008  -1.08692
 Alpha  occ. eigenvalues --   -1.04685  -1.03998  -0.96452  -0.95536  -0.87465
 Alpha  occ. eigenvalues --   -0.86085  -0.82376  -0.80097  -0.78910  -0.77380
 Alpha  occ. eigenvalues --   -0.72015  -0.71141  -0.70413  -0.65654  -0.64936
 Alpha  occ. eigenvalues --   -0.64676  -0.62047  -0.61367  -0.59829  -0.58067
 Alpha  occ. eigenvalues --   -0.55738  -0.55197  -0.53104  -0.53041  -0.52942
 Alpha  occ. eigenvalues --   -0.52704  -0.50384  -0.48775  -0.48770  -0.48387
 Alpha  occ. eigenvalues --   -0.47130  -0.46339  -0.46259  -0.44787  -0.44280
 Alpha  occ. eigenvalues --   -0.37274  -0.36270
 Alpha virt. eigenvalues --    0.05075   0.11340   0.16499   0.20012   0.22956
 Alpha virt. eigenvalues --    0.23072   0.24932   0.25438   0.27399   0.28441
 Alpha virt. eigenvalues --    0.29683   0.30234   0.31144   0.31501   0.31993

 Mulliken charges:
               1
     1  C   -0.171404
     2  C   -0.218975
     3  C   -0.170177
     4  C    0.157394
     5  C   -0.182501
     6  C   -0.225782
     7  H    0.225714
     8  H    0.223157
     9  H    0.275331
    10  H    0.290434
    11  H    0.230436
    12  N    0.486850
    13  O   -0.462091
    14  O   -0.460282
    15  C   -0.297888
    16  C   -0.310257
    17  C   -0.474689
    18  H    0.151790
    19  H    0.154890
    20  H    0.149329
    21  H    0.158624
    22  H    0.159729
    23  H    0.154510
    24  H    0.164647
    25  C   -0.307310
    26  C   -0.298808
    27  C   -0.478454
    28  H    0.144338
    29  H    0.149123
    30  H    0.154543
    31  H    0.156630
    32  H    0.156178
    33  H    0.150877
    34  H    0.164094
 Sum of Mulliken charges =  -0.00000

 Dipole moment (field-independent basis, Debye):
    X=             -1.1162    Y=             -4.5740    Z=             -2.0216  Tot=              5.1238
 Quadrupole moment (field-independent basis, Debye-Ang):
   XX=            -94.0298   YY=            -97.3157   ZZ=            -95.0426
   XY=            -13.1459   XZ=             -4.6997   YZ=             -0.4626

 Normal termination of Gaussian 16 at Thu May  6 19:10:01 2021.
