 Gaussian 16, Revision A.03,
 Gaussian 16:  EM64L-G16RevA.03 25-Dec-2016

 -------------
 #p 6-31g* mp2
 -------------

 ------------------------------------------------------
 Input file generated by CHIRIPA (05-May-2021 14:57:21)
 ------------------------------------------------------
 Symbolic Z-matrix:
 Charge =  0 Multiplicity = 1

                         Standard orientation:
 ---------------------------------------------------------------------
 Center     Atomic      Atomic             Coordinates (Angstroms)
 Number     Number       Type             X           Y           Z
 ---------------------------------------------------------------------
      1          6           0        4.681915   -1.329718   -0.050525
      2          6           0        3.634029   -1.534832    0.853015
      3          6           0        2.629535   -0.574431    1.005226
      4          6           0        2.704504    0.584683    0.234432
      5          6           0        3.735662    0.818077   -0.674155
      6          6           0        4.729303   -0.155988   -0.809888
      7          1           0        5.458015   -2.081088   -0.162366
      8          1           0        3.594660   -2.445414    1.444061
      9          1           0        1.806936   -0.707605    1.697334
     10          1           0        3.747858    1.735831   -1.249479
     11          1           0        5.541914    0.005992   -1.512363
     12          7           0        1.646835    1.608649    0.386848
     13          8           0        1.735719    2.621354   -0.303925
     14          8           0        0.748978    1.379141    1.194199
     15          6           0       -4.832088    1.128326    0.198084
     16          6           0       -3.630317    1.637425   -0.304992
     17          6           0       -2.541501    0.791071   -0.534589
     18          6           0       -2.689985   -0.565213   -0.248697
     19          6           0       -3.874296   -1.102577    0.253239
     20          6           0       -4.950034   -0.237642    0.475105
     21          1           0       -5.672826    1.793011    0.373438
     22          1           0       -3.535854    2.697823   -0.521046
     23          1           0       -1.599622    1.158609   -0.923429
     24          1           0       -3.938279   -2.164178    0.458974
     25          1           0       -5.882138   -0.635803    0.865866
     26          7           0       -1.544228   -1.471046   -0.487669
     27          8           0       -1.700525   -2.662098   -0.227662
     28          8           0       -0.511581   -0.972833   -0.930458
 ---------------------------------------------------------------------

 SCF Done:  E(RHF) =  -868.340891032     A.U. after   16 cycles
 E2 =    -0.2599790312D+01 EUMP2 =    -0.87094068134415D+03

 The electronic state is 1-A.
 Alpha  occ. eigenvalues --  -20.60402 -20.60386 -20.60353 -20.60336 -15.85427
 Alpha  occ. eigenvalues --  -15.85367 -11.30448 -11.30358 -11.27100 -11.26979
 Alpha  occ. eigenvalues --  -11.26898 -11.26890 -11.26782 -11.26684 -11.26057
 Alpha  occ. eigenvalues --  -11.25946 -11.25900 -11.25858  -1.59464  -1.59401
 Alpha  occ. eigenvalues --   -1.39034  -1.38961  -1.18626  -1.18522  -1.08102
 Alpha  occ. eigenvalues --   -1.08003  -1.03977  -1.03901  -0.94988  -0.94897
 Alpha  occ. eigenvalues --   -0.85405  -0.85326  -0.81840  -0.81762  -0.76912
 Alpha  occ. eigenvalues --   -0.76822  -0.71728  -0.71631  -0.70860  -0.70510
 Alpha  occ. eigenvalues --   -0.69762  -0.69700  -0.64298  -0.64215  -0.64006
 Alpha  occ. eigenvalues --   -0.63944  -0.61321  -0.61277  -0.54557  -0.54474
 Alpha  occ. eigenvalues --   -0.52345  -0.52216  -0.52063  -0.52026  -0.48461
 Alpha  occ. eigenvalues --   -0.48405  -0.48357  -0.48345  -0.44798  -0.44156
 Alpha  occ. eigenvalues --   -0.36644  -0.36467  -0.35548  -0.35445
 Alpha virt. eigenvalues --    0.05533   0.05778   0.12099   0.12203   0.17135
 Alpha virt. eigenvalues --    0.17271   0.22097   0.22232   0.28086   0.28096
 Alpha virt. eigenvalues --    0.28863   0.29145   0.31486   0.31825   0.33167

 Mulliken charges:
               1
     1  C   -0.169469
     2  C   -0.217842
     3  C   -0.156080
     4  C    0.164913
     5  C   -0.170543
     6  C   -0.219032
     7  H    0.223245
     8  H    0.222926
     9  H    0.274049
    10  H    0.271604
    11  H    0.220032
    12  N    0.490823
    13  O   -0.468284
    14  O   -0.465320
    15  C   -0.170157
    16  C   -0.220103
    17  C   -0.158742
    18  C    0.155878
    19  C   -0.171762
    20  C   -0.219826
    21  H    0.223558
    22  H    0.226286
    23  H    0.283434
    24  H    0.271617
    25  H    0.220052
    26  N    0.489687
    27  O   -0.465802
    28  O   -0.465142
 Sum of Mulliken charges =  -0.00000

 Dipole moment (field-independent basis, Debye):
    X=             -0.2751    Y=             -0.3791    Z=              0.3168  Tot=              0.5655
 Quadrupole moment (field-independent basis, Debye-Ang):
   XX=            -62.5267   YY=           -109.1546   ZZ=           -103.9741
   XY=            -11.1388   XZ=             -4.6393   YZ=             -6.2812

 Normal termination of Gaussian 16 at Thu May  6 14:27:30 2021.
