 Gaussian 16, Revision A.03,
 Gaussian 16:  EM64L-G16RevA.03 25-Dec-2016

 -------------
 #p 6-31g* mp2
 -------------

 ------------------------------------------------------
 Input file generated by CHIRIPA (05-May-2021 14:51:11)
 ------------------------------------------------------
 Symbolic Z-matrix:
 Charge =  0 Multiplicity = 1

                         Standard orientation:
 ---------------------------------------------------------------------
 Center     Atomic      Atomic             Coordinates (Angstroms)
 Number     Number       Type             X           Y           Z
 ---------------------------------------------------------------------
      1          6           0        2.797976    0.363916    0.946713
      2          6           0        1.360888    0.838990    0.729764
      3          6           0        0.793523    1.578782    1.941622
      4          1           0        2.831558   -0.292096    1.827318
      5          1           0        3.432309    1.230736    1.178317
      6          1           0        0.729718   -0.028298    0.497276
      7          1           0        1.330691    1.493794   -0.150540
      8          1           0        1.398952    2.461282    2.172385
      9          1           0        0.794564    0.930541    2.823882
     10          1           0       -0.234691    1.909522    1.764855
     11          6           0        3.379056   -0.377401   -0.256003
     12          6           0        4.816144   -0.852475   -0.039054
     13          6           0        5.383509   -1.592267   -1.250912
     14          1           0        2.744724   -1.244221   -0.487607
     15          1           0        3.345475    0.278611   -1.136608
     16          1           0        4.846342   -1.507279    0.841250
     17          1           0        5.447314    0.014813    0.193434
     18          1           0        5.382468   -0.944026   -2.133172
     19          1           0        4.778081   -2.474767   -1.481675
     20          1           0        6.411723   -1.923007   -1.074145
     21          6           0       -2.731440    0.656041   -0.160043
     22          6           0       -2.391402    1.527550   -1.369518
     23          6           0       -1.677337    2.823015   -0.982640
     24          1           0       -3.361364    1.230853    0.532585
     25          1           0       -1.806448    0.417819    0.383130
     26          1           0       -3.316600    1.762908   -1.911028
     27          1           0       -1.762373    0.950532   -2.059438
     28          1           0       -0.739326    2.605117   -0.461816
     29          1           0       -2.302383    3.422110   -0.312564
     30          1           0       -1.443672    3.430769   -1.862353
     31          6           0       -3.445592   -0.642556   -0.530667
     32          6           0       -3.785630   -1.514065    0.678808
     33          6           0       -4.499696   -2.809529    0.291930
     34          1           0       -4.370584   -0.404335   -1.073839
     35          1           0       -2.815668   -1.217367   -1.223294
     36          1           0       -4.414660   -0.937047    1.368727
     37          1           0       -2.860433   -1.749423    1.220318
     38          1           0       -3.874650   -3.408624   -0.378147
     39          1           0       -5.437707   -2.591633   -0.228894
     40          1           0       -4.733360   -3.417284    1.171644
 ---------------------------------------------------------------------

 SCF Done:  E(RHF) =  -470.731839675     A.U. after   11 cycles
 E2 =    -0.1584663421D+01 EUMP2 =    -0.47231650309595D+03

 The electronic state is 1-A.
 Alpha  occ. eigenvalues --  -11.21692 -11.21640 -11.21598 -11.21551 -11.21465
 Alpha  occ. eigenvalues --  -11.21403 -11.21373 -11.21301 -11.21102 -11.21071
 Alpha  occ. eigenvalues --  -11.21066 -11.20957  -1.08512  -1.08389  -1.03643
 Alpha  occ. eigenvalues --   -1.03459  -0.96056  -0.95933  -0.87050  -0.86967
 Alpha  occ. eigenvalues --   -0.79680  -0.79559  -0.78367  -0.78175  -0.65143
 Alpha  occ. eigenvalues --   -0.65056  -0.61115  -0.60914  -0.59563  -0.59155
 Alpha  occ. eigenvalues --   -0.57743  -0.57446  -0.55452  -0.55095  -0.52760
 Alpha  occ. eigenvalues --   -0.52636  -0.52496  -0.52326  -0.50012  -0.49865
 Alpha  occ. eigenvalues --   -0.47984  -0.47848  -0.46719  -0.46538  -0.45933
 Alpha  occ. eigenvalues --   -0.45755  -0.45734  -0.45505  -0.43835  -0.43752
 Alpha virt. eigenvalues --    0.21019   0.23141   0.23425   0.25013   0.25945
 Alpha virt. eigenvalues --    0.26597   0.26945   0.27573   0.27858   0.29417
 Alpha virt. eigenvalues --    0.30198   0.31406   0.31477   0.31860   0.32012

 Mulliken charges:
               1
     1  C   -0.297256
     2  C   -0.306154
     3  C   -0.482434
     4  H    0.149932
     5  H    0.150052
     6  H    0.152768
     7  H    0.154170
     8  H    0.155766
     9  H    0.155712
    10  H    0.166779
    11  C   -0.298514
    12  C   -0.299724
    13  C   -0.475750
    14  H    0.149280
    15  H    0.149883
    16  H    0.152039
    17  H    0.152118
    18  H    0.155273
    19  H    0.155159
    20  H    0.160427
    21  C   -0.307398
    22  C   -0.298186
    23  C   -0.486052
    24  H    0.148952
    25  H    0.159214
    26  H    0.151593
    27  H    0.151679
    28  H    0.167326
    29  H    0.154179
    30  H    0.159494
    31  C   -0.297935
    32  C   -0.299495
    33  C   -0.475674
    34  H    0.149568
    35  H    0.149337
    36  H    0.152060
    37  H    0.151312
    38  H    0.155036
    39  H    0.155282
    40  H    0.160178
 Sum of Mulliken charges =  -0.00000

 Dipole moment (field-independent basis, Debye):
    X=              0.0459    Y=             -0.0004    Z=              0.0194  Tot=              0.0498
 Quadrupole moment (field-independent basis, Debye-Ang):
   XX=            -84.4869   YY=            -85.0963   ZZ=            -85.3179
   XY=             -0.2527   XZ=              0.0991   YZ=             -0.7976

 Normal termination of Gaussian 16 at Wed May  5 16:44:53 2021.
