 Gaussian 16, Revision A.03,
 Gaussian 16:  EM64L-G16RevA.03 25-Dec-2016

 -------------
 #p 6-31g* mp2
 -------------

 ------------------------------------------------------
 Input file generated by CHIRIPA (05-May-2021 14:51:11)
 ------------------------------------------------------
 Symbolic Z-matrix:
 Charge =  0 Multiplicity = 1

                         Standard orientation:
 ---------------------------------------------------------------------
 Center     Atomic      Atomic             Coordinates (Angstroms)
 Number     Number       Type             X           Y           Z
 ---------------------------------------------------------------------
      1          6           0       -3.095549    0.030077   -0.156488
      2          6           0       -2.167303   -0.861403    0.669107
      3          6           0       -0.707694   -0.768311    0.223383
      4          1           0       -3.015619   -0.249742   -1.215854
      5          1           0       -2.754103    1.071817   -0.081741
      6          1           0       -2.511216   -1.900966    0.593943
      7          1           0       -2.249596   -0.579558    1.726655
      8          1           0       -0.341719    0.259439    0.315001
      9          1           0       -0.604826   -1.069477   -0.824147
     10          1           0       -0.061699   -1.413541    0.826896
     11          6           0       -4.558059   -0.052082    0.277152
     12          6           0       -5.486306    0.839398   -0.548443
     13          6           0       -6.945914    0.746306   -0.102719
     14          1           0       -4.899506   -1.093822    0.202405
     15          1           0       -4.637989    0.227737    1.336518
     16          1           0       -5.404013    0.557553   -1.605991
     17          1           0       -5.142392    1.878961   -0.473279
     18          1           0       -7.048782    1.047473    0.944811
     19          1           0       -7.311890   -0.281443   -0.194337
     20          1           0       -7.591910    1.391536   -0.706232
     21          6           0        3.648157    0.743369    0.062778
     22          6           0        4.832555    1.694275   -0.113184
     23          6           0        4.459373    3.155853    0.136455
     24          1           0        2.842914    1.039996   -0.623184
     25          1           0        3.247792    0.851897    1.080287
     26          1           0        5.231434    1.582985   -1.129611
     27          1           0        5.635144    1.395233    0.573141
     28          1           0        4.081504    3.288336    1.155408
     29          1           0        3.675500    3.477156   -0.557019
     30          1           0        5.320752    3.818176    0.005259
     31          6           0        4.005452   -0.721364   -0.183442
     32          6           0        2.821053   -1.672270   -0.007481
     33          6           0        3.194236   -3.133848   -0.257120
     34          1           0        4.405816   -0.829892   -1.200952
     35          1           0        4.810694   -1.017991    0.502520
     36          1           0        2.018465   -1.373228   -0.693805
     37          1           0        2.422174   -1.560981    1.008947
     38          1           0        3.978109   -3.455152    0.436355
     39          1           0        3.572104   -3.266332   -1.276072
     40          1           0        2.332856   -3.796171   -0.125923
 ---------------------------------------------------------------------

 SCF Done:  E(RHF) =  -470.732250816     A.U. after   11 cycles
 E2 =    -0.1583231520D+01 EUMP2 =    -0.47231548233639D+03

 The electronic state is 1-A.
 Alpha  occ. eigenvalues --  -11.21588 -11.21568 -11.21540 -11.21446 -11.21380
 Alpha  occ. eigenvalues --  -11.21342 -11.21320 -11.21277 -11.21062 -11.21052
 Alpha  occ. eigenvalues --  -11.21012 -11.20965  -1.08412  -1.08360  -1.03539
 Alpha  occ. eigenvalues --   -1.03436  -0.95977  -0.95905  -0.87035  -0.86892
 Alpha  occ. eigenvalues --   -0.79752  -0.79386  -0.78266  -0.78107  -0.65044
 Alpha  occ. eigenvalues --   -0.64994  -0.60946  -0.60830  -0.59541  -0.59118
 Alpha  occ. eigenvalues --   -0.57649  -0.57443  -0.55268  -0.55187  -0.52779
 Alpha  occ. eigenvalues --   -0.52561  -0.52382  -0.52313  -0.49949  -0.49822
 Alpha  occ. eigenvalues --   -0.47909  -0.47825  -0.46674  -0.46479  -0.45867
 Alpha  occ. eigenvalues --   -0.45711  -0.45665  -0.45545  -0.43783  -0.43584
 Alpha virt. eigenvalues --    0.22165   0.23031   0.23724   0.24783   0.25741
 Alpha virt. eigenvalues --    0.26445   0.26681   0.27492   0.27899   0.29404
 Alpha virt. eigenvalues --    0.30040   0.30744   0.31695   0.31830   0.32279

 Mulliken charges:
               1
     1  C   -0.298503
     2  C   -0.300759
     3  C   -0.477720
     4  H    0.149298
     5  H    0.149353
     6  H    0.151451
     7  H    0.151458
     8  H    0.155641
     9  H    0.153147
    10  H    0.166298
    11  C   -0.298159
    12  C   -0.299576
    13  C   -0.475676
    14  H    0.149422
    15  H    0.149577
    16  H    0.151828
    17  H    0.151878
    18  H    0.155157
    19  H    0.155144
    20  H    0.160188
    21  C   -0.298628
    22  C   -0.299537
    23  C   -0.475657
    24  H    0.150110
    25  H    0.149293
    26  H    0.151836
    27  H    0.151859
    28  H    0.154986
    29  H    0.155037
    30  H    0.160150
    31  C   -0.297746
    32  C   -0.304393
    33  C   -0.476116
    34  H    0.148918
    35  H    0.148904
    36  H    0.160968
    37  H    0.151322
    38  H    0.154699
    39  H    0.154813
    40  H    0.159735
 Sum of Mulliken charges =  -0.00000

 Dipole moment (field-independent basis, Debye):
    X=              0.0022    Y=             -0.0027    Z=             -0.0027  Tot=              0.0044
 Quadrupole moment (field-independent basis, Debye-Ang):
   XX=            -86.2519   YY=            -85.4895   ZZ=            -83.4184
   XY=              0.2909   XZ=              0.5664   YZ=              0.2398

 Normal termination of Gaussian 16 at Wed May  5 15:15:16 2021.
