 Gaussian 16, Revision A.03,
 Gaussian 16:  EM64L-G16RevA.03 25-Dec-2016

 -------------
 #p 6-31g* mp2
 -------------

 ------------------------------------------------------
 Input file generated by CHIRIPA (05-May-2021 14:57:24)
 ------------------------------------------------------
 Symbolic Z-matrix:
 Charge =  0 Multiplicity = 1

                         Standard orientation:
 ---------------------------------------------------------------------
 Center     Atomic      Atomic             Coordinates (Angstroms)
 Number     Number       Type             X           Y           Z
 ---------------------------------------------------------------------
      1          6           0        1.472089    1.191510    0.121682
      2          6           0        2.531171    1.698036   -0.638777
      3          6           0        3.750793    1.017322   -0.699598
      4          6           0        3.877195   -0.172499    0.015690
      5          6           0        2.840594   -0.702745    0.782232
      6          6           0        1.629903   -0.005154    0.828514
      7          1           0        0.528126    1.726860    0.163282
      8          1           0        2.411462    2.627155   -1.188734
      9          1           0        4.587100    1.386885   -1.280488
     10          1           0        2.989972   -1.631320    1.319683
     11          1           0        0.809125   -0.400895    1.419917
     12          7           0        5.163627   -0.902073   -0.041002
     13          8           0        5.249620   -1.948295    0.598264
     14          8           0        6.061580   -0.413877   -0.723630
     15          6           0       -2.265555    2.078176    0.525086
     16          6           0       -2.886279    1.356860    1.550231
     17          6           0       -3.664091    0.232750    1.257090
     18          6           0       -3.800486   -0.143602   -0.078217
     19          6           0       -3.194655    0.554400   -1.121794
     20          6           0       -2.421449    1.675354   -0.805311
     21          1           0       -1.663121    2.950187    0.761871
     22          1           0       -2.766959    1.667386    2.584341
     23          1           0       -4.155763   -0.343901    2.031138
     24          1           0       -3.332044    0.220499   -2.143093
     25          1           0       -1.940553    2.233627   -1.603506
     26          7           0       -4.621483   -1.331978   -0.400909
     27          8           0       -4.726074   -1.642983   -1.585381
     28          8           0       -5.144843   -1.929917    0.536747
 ---------------------------------------------------------------------

 SCF Done:  E(RHF) =  -868.336429983     A.U. after   16 cycles
 E2 =    -0.2601313036D+01 EUMP2 =    -0.87093774301957D+03

 The electronic state is 1-A.
 Alpha  occ. eigenvalues --  -20.61565 -20.61559 -20.61017 -20.61010 -15.86624
 Alpha  occ. eigenvalues --  -15.86073 -11.32250 -11.31518 -11.28812 -11.28807
 Alpha  occ. eigenvalues --  -11.28699 -11.28113 -11.28076 -11.27957 -11.27928
 Alpha  occ. eigenvalues --  -11.27849 -11.27182 -11.27106  -1.60634  -1.60090
 Alpha  occ. eigenvalues --   -1.40179  -1.39641  -1.20459  -1.19705  -1.09843
 Alpha  occ. eigenvalues --   -1.09092  -1.05873  -1.05119  -0.96625  -0.95910
 Alpha  occ. eigenvalues --   -0.87274  -0.86518  -0.83425  -0.82743  -0.78399
 Alpha  occ. eigenvalues --   -0.77767  -0.72838  -0.72289  -0.71961  -0.71711
 Alpha  occ. eigenvalues --   -0.71414  -0.70774  -0.66106  -0.65868  -0.65360
 Alpha  occ. eigenvalues --   -0.65134  -0.63186  -0.62463  -0.56526  -0.55712
 Alpha  occ. eigenvalues --   -0.54094  -0.53954  -0.53443  -0.53213  -0.49617
 Alpha  occ. eigenvalues --   -0.49576  -0.49056  -0.49039  -0.45526  -0.45028
 Alpha  occ. eigenvalues --   -0.38496  -0.37751  -0.37414  -0.36723
 Alpha virt. eigenvalues --    0.04053   0.04758   0.10093   0.10923   0.15350
 Alpha virt. eigenvalues --    0.16241   0.19411   0.21788   0.25795   0.26456
 Alpha virt. eigenvalues --    0.26994   0.29278   0.29736   0.31266   0.32106

 Mulliken charges:
               1
     1  C   -0.172346
     2  C   -0.221195
     3  C   -0.170018
     4  C    0.158648
     5  C   -0.170119
     6  C   -0.221963
     7  H    0.222922
     8  H    0.220270
     9  H    0.276212
    10  H    0.277293
    11  H    0.224949
    12  N    0.487944
    13  O   -0.458998
    14  O   -0.459932
    15  C   -0.183530
    16  C   -0.220748
    17  C   -0.171548
    18  C    0.159963
    19  C   -0.168977
    20  C   -0.217735
    21  H    0.224405
    22  H    0.227157
    23  H    0.279265
    24  H    0.279883
    25  H    0.224756
    26  N    0.487811
    27  O   -0.456827
    28  O   -0.457542
 Sum of Mulliken charges =  -0.00000

 Dipole moment (field-independent basis, Debye):
    X=             -1.9106    Y=              6.5463    Z=              1.3200  Tot=              6.9460
 Quadrupole moment (field-independent basis, Debye-Ang):
   XX=           -161.0686   YY=           -105.6207   ZZ=            -98.7373
   XY=             -3.9066   XZ=             -6.1541   YZ=             -3.7251

 Normal termination of Gaussian 16 at Thu May  6 06:40:12 2021.
