 Gaussian 16, Revision A.03,
 Gaussian 16:  EM64L-G16RevA.03 25-Dec-2016

 -------------
 #p 6-31g* mp2
 -------------

 ------------------------------------------------------
 Input file generated by CHIRIPA (05-May-2021 14:57:25)
 ------------------------------------------------------
 Symbolic Z-matrix:
 Charge =  0 Multiplicity = 1

                         Standard orientation:
 ---------------------------------------------------------------------
 Center     Atomic      Atomic             Coordinates (Angstroms)
 Number     Number       Type             X           Y           Z
 ---------------------------------------------------------------------
      1          6           0        4.917784   -1.504495   -0.880443
      2          6           0        5.302463   -0.161029   -0.940792
      3          6           0        4.490490    0.835398   -0.390899
      4          6           0        3.295086    0.451043    0.214552
      5          6           0        2.884348   -0.878925    0.290512
      6          6           0        3.712081   -1.858531   -0.266067
      7          1           0        5.554665   -2.272010   -1.310209
      8          1           0        6.238285    0.116845   -1.417308
      9          1           0        4.764053    1.883019   -0.423649
     10          1           0        1.945754   -1.125107    0.772024
     11          1           0        3.410793   -2.901093   -0.217735
     12          7           0        2.427145    1.497011    0.800238
     13          8           0        1.378822    1.132377    1.328155
     14          8           0        2.811611    2.661671    0.720290
     15          6           0       -5.120898    1.518413   -0.670090
     16          6           0       -5.537768    0.335480   -0.050890
     17          6           0       -4.614131   -0.667030    0.259619
     18          6           0       -3.275450   -0.452388   -0.064652
     19          6           0       -2.829147    0.715247   -0.681686
     20          6           0       -3.770298    1.704193   -0.982960
     21          1           0       -5.845204    2.291918   -0.907714
     22          1           0       -6.586018    0.188467    0.193249
     23          1           0       -4.909537   -1.592481    0.738885
     24          1           0       -1.777422    0.833003   -0.912826
     25          1           0       -3.443687    2.621862   -1.463849
     26          7           0       -2.288366   -1.506521    0.259182
     27          8           0       -1.114708   -1.293112   -0.036828
     28          8           0       -2.707038   -2.526199    0.802880
 ---------------------------------------------------------------------

 SCF Done:  E(RHF) =  -868.339830140     A.U. after   16 cycles
 E2 =    -0.2598690041D+01 EUMP2 =    -0.87093852018119D+03

 The electronic state is 1-A.
 Alpha  occ. eigenvalues --  -20.60609 -20.60583 -20.60220 -20.60182 -15.85633
 Alpha  occ. eigenvalues --  -15.85244 -11.30805 -11.30442 -11.27404 -11.27307
 Alpha  occ. eigenvalues --  -11.27117 -11.27108 -11.26845 -11.26810 -11.26388
 Alpha  occ. eigenvalues --  -11.26316 -11.26096 -11.25934  -1.59658  -1.59288
 Alpha  occ. eigenvalues --   -1.39215  -1.38836  -1.18973  -1.18631  -1.08414
 Alpha  occ. eigenvalues --   -1.08077  -1.04350  -1.03995  -0.95278  -0.94921
 Alpha  occ. eigenvalues --   -0.85760  -0.85409  -0.82117  -0.81745  -0.77176
 Alpha  occ. eigenvalues --   -0.76784  -0.71890  -0.71464  -0.70949  -0.70610
 Alpha  occ. eigenvalues --   -0.70096  -0.69739  -0.64639  -0.64364  -0.64284
 Alpha  occ. eigenvalues --   -0.64000  -0.61694  -0.61308  -0.54887  -0.54552
 Alpha  occ. eigenvalues --   -0.52690  -0.52447  -0.52366  -0.52074  -0.48631
 Alpha  occ. eigenvalues --   -0.48617  -0.48240  -0.48203  -0.44663  -0.44264
 Alpha  occ. eigenvalues --   -0.36960  -0.36655  -0.35939  -0.35594
 Alpha virt. eigenvalues --    0.05338   0.05707   0.11717   0.12049   0.16847
 Alpha virt. eigenvalues --    0.17199   0.21795   0.22218   0.27754   0.28109
 Alpha virt. eigenvalues --    0.28614   0.29206   0.31327   0.31719   0.32832

 Mulliken charges:
               1
     1  C   -0.170840
     2  C   -0.219914
     3  C   -0.172126
     4  C    0.153827
     5  C   -0.171684
     6  C   -0.220966
     7  H    0.223294
     8  H    0.220046
     9  H    0.272046
    10  H    0.295130
    11  H    0.226662
    12  N    0.486605
    13  O   -0.456883
    14  O   -0.466758
    15  C   -0.170297
    16  C   -0.219064
    17  C   -0.170928
    18  C    0.157530
    19  C   -0.166496
    20  C   -0.218798
    21  H    0.224836
    22  H    0.221968
    23  H    0.273866
    24  H    0.280383
    25  H    0.224890
    26  N    0.491275
    27  O   -0.464558
    28  O   -0.463045
 Sum of Mulliken charges =  -0.00000

 Dipole moment (field-independent basis, Debye):
    X=             -0.6117    Y=             -0.0569    Z=             -3.1582  Tot=              3.2174
 Quadrupole moment (field-independent basis, Debye-Ang):
   XX=            -59.1747   YY=           -108.4793   ZZ=           -106.0084
   XY=            -17.4319   XZ=             -4.7504   YZ=             -3.9929

 Normal termination of Gaussian 16 at Fri May  7 11:08:20 2021.
