 Gaussian 16, Revision A.03,
 Gaussian 16:  EM64L-G16RevA.03 25-Dec-2016

 -------------
 #p 6-31g* mp2
 -------------

 ------------------------------------------------------
 Input file generated by CHIRIPA (05-May-2021 14:51:09)
 ------------------------------------------------------
 Symbolic Z-matrix:
 Charge =  0 Multiplicity = 1

                         Standard orientation:
 ---------------------------------------------------------------------
 Center     Atomic      Atomic             Coordinates (Angstroms)
 Number     Number       Type             X           Y           Z
 ---------------------------------------------------------------------
      1          6           0        3.002779    0.996530    0.377882
      2          6           0        2.941187    2.221181   -0.535585
      3          6           0        2.115045    3.361752    0.059714
      4          1           0        1.981448    0.645251    0.578954
      5          1           0        3.428281    1.291677    1.347022
      6          1           0        2.517209    1.923520   -1.503189
      7          1           0        3.962793    2.569470   -0.734661
      8          1           0        2.539321    3.686796    1.015192
      9          1           0        1.085524    3.037176    0.242297
     10          1           0        2.084290    4.227060   -0.609730
     11          6           0        3.825138   -0.152148   -0.203490
     12          6           0        3.886731   -1.376798    0.709978
     13          6           0        4.712872   -2.517370    0.114678
     14          1           0        3.399636   -0.447295   -1.172629
     15          1           0        4.846470    0.199132   -0.404561
     16          1           0        2.865125   -1.725087    0.909053
     17          1           0        4.310709   -1.079137    1.677581
     18          1           0        5.742394   -2.192794   -0.067905
     19          1           0        4.288597   -2.842414   -0.840799
     20          1           0        4.743628   -3.382678    0.784122
     21          6           0       -2.876029   -0.852245   -0.417525
     22          6           0       -1.454969   -0.472307   -0.000124
     23          6           0       -0.389924   -1.341595   -0.669309
     24          1           0       -3.054035   -1.907845   -0.170609
     25          1           0       -2.965070   -0.767332   -1.509430
     26          1           0       -1.369033   -0.556578    1.090807
     27          1           0       -1.280389    0.582564   -0.247886
     28          1           0       -0.446810   -1.250176   -1.758807
     29          1           0       -0.535957   -2.395791   -0.412508
     30          1           0        0.618454   -1.052830   -0.356817
     31          6           0       -3.951889    0.007863    0.243132
     32          6           0       -5.372948   -0.372076   -0.174269
     33          6           0       -6.437994    0.497213    0.494916
     34          1           0       -3.862848   -0.077050    1.335037
     35          1           0       -3.773882    1.063462   -0.003783
     36          1           0       -5.547528   -1.426947    0.073494
     37          1           0       -5.458884   -0.287805   -1.265199
     38          1           0       -6.291960    1.551408    0.238116
     39          1           0       -6.381108    0.405794    1.584414
     40          1           0       -7.446372    0.208447    0.182425
 ---------------------------------------------------------------------

 SCF Done:  E(RHF) =  -470.733114830     A.U. after   11 cycles
 E2 =    -0.1583429124D+01 EUMP2 =    -0.47231654395393D+03

 The electronic state is 1-A.
 Alpha  occ. eigenvalues --  -11.21685 -11.21627 -11.21595 -11.21587 -11.21451
 Alpha  occ. eigenvalues --  -11.21392 -11.21388 -11.21332 -11.21131 -11.21088
 Alpha  occ. eigenvalues --  -11.21069 -11.21048  -1.08487  -1.08422  -1.03582
 Alpha  occ. eigenvalues --   -1.03519  -0.96048  -0.95955  -0.87049  -0.86985
 Alpha  occ. eigenvalues --   -0.79647  -0.79581  -0.78293  -0.78239  -0.65144
 Alpha  occ. eigenvalues --   -0.65092  -0.61006  -0.60888  -0.59405  -0.59331
 Alpha  occ. eigenvalues --   -0.57691  -0.57542  -0.55320  -0.55254  -0.52754
 Alpha  occ. eigenvalues --   -0.52638  -0.52475  -0.52361  -0.49978  -0.49901
 Alpha  occ. eigenvalues --   -0.47976  -0.47895  -0.46677  -0.46620  -0.45832
 Alpha  occ. eigenvalues --   -0.45773  -0.45752  -0.45671  -0.43821  -0.43752
 Alpha virt. eigenvalues --    0.20122   0.22998   0.23572   0.24742   0.26246
 Alpha virt. eigenvalues --    0.26463   0.26970   0.27320   0.28134   0.29391
 Alpha virt. eigenvalues --    0.30178   0.31380   0.31735   0.31856   0.32293

 Mulliken charges:
               1
     1  C   -0.303684
     2  C   -0.299337
     3  C   -0.476395
     4  H    0.153975
     5  H    0.149862
     6  H    0.152058
     7  H    0.152007
     8  H    0.155283
     9  H    0.155652
    10  H    0.160127
    11  C   -0.299569
    12  C   -0.302499
    13  C   -0.475575
    14  H    0.150476
    15  H    0.150184
    16  H    0.153997
    17  H    0.151955
    18  H    0.155042
    19  H    0.155678
    20  H    0.160175
    21  C   -0.298412
    22  C   -0.300097
    23  C   -0.485956
    24  H    0.149972
    25  H    0.149731
    26  H    0.152299
    27  H    0.151914
    28  H    0.155325
    29  H    0.155664
    30  H    0.169641
    31  C   -0.298366
    32  C   -0.299705
    33  C   -0.475750
    34  H    0.149693
    35  H    0.149770
    36  H    0.152000
    37  H    0.151982
    38  H    0.155278
    39  H    0.155260
    40  H    0.160346
 Sum of Mulliken charges =  -0.00000

 Dipole moment (field-independent basis, Debye):
    X=             -0.0143    Y=             -0.0065    Z=              0.0009  Tot=              0.0158
 Quadrupole moment (field-independent basis, Debye-Ang):
   XX=            -85.1320   YY=            -85.3413   ZZ=            -84.2259
   XY=              1.3464   XZ=              0.8450   YZ=             -0.8506

 Normal termination of Gaussian 16 at Wed May  5 21:20:28 2021.
