 Gaussian 16, Revision A.03,
 Gaussian 16:  EM64L-G16RevA.03 25-Dec-2016

 -------------
 #p 6-31g* mp2
 -------------

 ------------------------------------------------------
 Input file generated by CHIRIPA (05-May-2021 14:53:15)
 ------------------------------------------------------
 Symbolic Z-matrix:
 Charge =  0 Multiplicity = 1

                         Standard orientation:
 ---------------------------------------------------------------------
 Center     Atomic      Atomic             Coordinates (Angstroms)
 Number     Number       Type             X           Y           Z
 ---------------------------------------------------------------------
      1          6           0        4.409251    0.139292    0.415602
      2          6           0        4.557182   -1.379337    0.316260
      3          6           0        5.761159   -1.908290    1.096286
      4          1           0        5.326772    0.615775    0.044033
      5          1           0        4.315757    0.423206    1.472979
      6          1           0        4.648980   -1.660431   -0.740705
      7          1           0        3.639127   -1.852256    0.687930
      8          1           0        5.673078   -1.656516    2.158102
      9          1           0        6.688669   -1.463601    0.721349
     10          1           0        5.847979   -2.996018    1.011606
     11          6           0        3.210106    0.683123   -0.359012
     12          6           0        3.062176    2.201752   -0.259670
     13          6           0        1.858199    2.730705   -1.039696
     14          1           0        3.303600    0.399209   -1.416389
     15          1           0        2.292585    0.206639    0.012557
     16          1           0        3.980231    2.674671   -0.631340
     17          1           0        2.970377    2.482845    0.797295
     18          1           0        0.930689    2.286016   -0.664759
     19          1           0        1.946280    2.478931   -2.101512
     20          1           0        1.771378    3.818433   -0.955016
     21          6           0       -5.105630    0.532154    1.028426
     22          6           0       -5.142101   -0.571520    0.169884
     23          6           0       -3.968492   -1.052972   -0.417818
     24          6           0       -2.770457   -0.403760   -0.123667
     25          6           0       -2.701609    0.698019    0.727586
     26          6           0       -3.887648    1.162291    1.304051
     27          1           0       -6.022146    0.899485    1.480601
     28          1           0       -6.086570   -1.062871   -0.045977
     29          1           0       -3.968039   -1.905493   -1.086120
     30          1           0       -1.745038    1.166974    0.923724
     31          1           0       -3.856318    2.019619    1.970422
     32          7           0       -1.521431   -0.904358   -0.739893
     33          8           0       -0.478688   -0.314801   -0.464668
     34          8           0       -1.608835   -1.876805   -1.486447
 ---------------------------------------------------------------------

 SCF Done:  E(RHF) =  -669.536063006     A.U. after   15 cycles
 E2 =    -0.2091653505D+01 EUMP2 =    -0.67162771651143D+03

 The electronic state is 1-A.
 Alpha  occ. eigenvalues --  -20.61008 -20.60995 -15.86036 -11.31331 -11.27897
 Alpha  occ. eigenvalues --  -11.27887 -11.27623 -11.26894 -11.26885 -11.20625
 Alpha  occ. eigenvalues --  -11.20608 -11.20364 -11.20316 -11.20051 -11.19962
 Alpha  occ. eigenvalues --   -1.60061  -1.39620  -1.19498  -1.08906  -1.07342
 Alpha  occ. eigenvalues --   -1.04891  -1.02551  -0.95753  -0.94993  -0.86293
 Alpha  occ. eigenvalues --   -0.86014  -0.82595  -0.78618  -0.77659  -0.77087
 Alpha  occ. eigenvalues --   -0.72264  -0.71370  -0.70608  -0.65159  -0.64894
 Alpha  occ. eigenvalues --   -0.63973  -0.62242  -0.59959  -0.58363  -0.56597
 Alpha  occ. eigenvalues --   -0.55395  -0.54286  -0.53222  -0.52983  -0.51750
 Alpha  occ. eigenvalues --   -0.51411  -0.49112  -0.49019  -0.48836  -0.46926
 Alpha  occ. eigenvalues --   -0.45652  -0.45013  -0.44663  -0.44505  -0.42769
 Alpha  occ. eigenvalues --   -0.37474  -0.36491
 Alpha virt. eigenvalues --    0.04862   0.11160   0.16353   0.20989   0.23776
 Alpha virt. eigenvalues --    0.24792   0.26653   0.27475   0.27988   0.28915
 Alpha virt. eigenvalues --    0.29140   0.30553   0.31609   0.32532   0.32704

 Mulliken charges:
               1
     1  C   -0.297635
     2  C   -0.299007
     3  C   -0.475103
     4  H    0.145025
     5  H    0.144668
     6  H    0.152631
     7  H    0.155916
     8  H    0.152497
     9  H    0.152899
    10  H    0.158421
    11  C   -0.306228
    12  C   -0.298219
    13  C   -0.478735
    14  H    0.149436
    15  H    0.174982
    16  H    0.147076
    17  H    0.145147
    18  H    0.164749
    19  H    0.155885
    20  H    0.150795
    21  C   -0.170460
    22  C   -0.218596
    23  C   -0.170408
    24  C    0.157266
    25  C   -0.170941
    26  C   -0.218691
    27  H    0.226170
    28  H    0.223963
    29  H    0.275950
    30  H    0.276109
    31  H    0.224153
    32  N    0.496520
    33  O   -0.468136
    34  O   -0.458098
 Sum of Mulliken charges =  -0.00000

 Dipole moment (field-independent basis, Debye):
    X=             -4.7637    Y=              1.5767    Z=              2.1093  Tot=              5.4431
 Quadrupole moment (field-independent basis, Debye-Ang):
   XX=            -71.0174   YY=            -95.0499   ZZ=            -94.5083
   XY=             -0.9168   XZ=             -5.4322   YZ=              1.2859

 Normal termination of Gaussian 16 at Thu May  6 02:40:31 2021.
