 Gaussian 16, Revision A.03,
 Gaussian 16:  EM64L-G16RevA.03 25-Dec-2016

 -------------
 #p 6-31g* mp2
 -------------

 ------------------------------------------------------
 Input file generated by CHIRIPA (05-May-2021 14:55:23)
 ------------------------------------------------------
 Symbolic Z-matrix:
 Charge =  0 Multiplicity = 1

                         Standard orientation:
 ---------------------------------------------------------------------
 Center     Atomic      Atomic             Coordinates (Angstroms)
 Number     Number       Type             X           Y           Z
 ---------------------------------------------------------------------
      1          6           0        0.695584   -1.305107    0.870592
      2          6           0        1.681603   -0.945214    1.795127
      3          6           0        2.839245   -0.282405    1.376684
      4          6           0        2.978845    0.006211    0.020033
      5          6           0        2.014360   -0.339269   -0.925325
      6          6           0        0.864811   -1.001521   -0.484295
      7          1           0       -0.200557   -1.819777    1.204423
      8          1           0        1.552861   -1.179702    2.847974
      9          1           0        3.618391    0.007762    2.071056
     10          1           0        2.170963   -0.092018   -1.968283
     11          1           0        0.100712   -1.279808   -1.204541
     12          7           0        4.200105    0.707603   -0.434911
     13          8           0        4.299227    0.950474   -1.635671
     14          8           0        5.035082    1.001201    0.417879
     15          6           0       -3.110086   -0.438092   -0.347495
     16          6           0       -3.751927   -1.811489   -0.147980
     17          6           0       -2.849101   -2.957891   -0.604559
     18          1           0       -2.859031   -0.308482   -1.409153
     19          1           0       -2.160963   -0.400911    0.204936
     20          1           0       -4.700232   -1.845589   -0.699497
     21          1           0       -4.001658   -1.937769    0.913294
     22          1           0       -1.907276   -2.952269   -0.046407
     23          1           0       -2.609819   -2.859565   -1.668362
     24          1           0       -3.327526   -3.930503   -0.452920
     25          6           0       -4.000485    0.718123    0.104262
     26          6           0       -3.358644    2.091519   -0.095253
     27          6           0       -4.261470    3.237921    0.361326
     28          1           0       -4.949607    0.680941   -0.448168
     29          1           0       -4.251540    0.588512    1.165920
     30          1           0       -3.108913    2.217798   -1.156527
     31          1           0       -2.410338    2.125619    0.456264
     32          1           0       -4.500752    3.139596    1.425129
     33          1           0       -5.203296    3.232299   -0.196826
     34          1           0       -3.783044    4.210533    0.209688
 ---------------------------------------------------------------------

 SCF Done:  E(RHF) =  -669.534806325     A.U. after   15 cycles
 E2 =    -0.2093082783D+01 EUMP2 =    -0.67162788910780D+03

 The electronic state is 1-A.
 Alpha  occ. eigenvalues --  -20.60743 -20.60738 -15.85795 -11.31165 -11.27723
 Alpha  occ. eigenvalues --  -11.27701 -11.27442 -11.26750 -11.26688 -11.22658
 Alpha  occ. eigenvalues --  -11.22393 -11.22376 -11.22160 -11.22094 -11.21500
 Alpha  occ. eigenvalues --   -1.59818  -1.39372  -1.19329  -1.09312  -1.08724
 Alpha  occ. eigenvalues --   -1.04726  -1.04378  -0.96847  -0.95568  -0.87863
 Alpha  occ. eigenvalues --   -0.86128  -0.82394  -0.80462  -0.79093  -0.77429
 Alpha  occ. eigenvalues --   -0.72014  -0.71141  -0.70492  -0.65953  -0.64973
 Alpha  occ. eigenvalues --   -0.64720  -0.62084  -0.61766  -0.60219  -0.58444
 Alpha  occ. eigenvalues --   -0.56199  -0.55233  -0.53516  -0.53324  -0.53009
 Alpha  occ. eigenvalues --   -0.52812  -0.50807  -0.48802  -0.48771  -0.48715
 Alpha  occ. eigenvalues --   -0.47480  -0.46606  -0.46510  -0.44776  -0.44615
 Alpha  occ. eigenvalues --   -0.37286  -0.36316
 Alpha virt. eigenvalues --    0.05055   0.11241   0.16494   0.19190   0.22575
 Alpha virt. eigenvalues --    0.23975   0.24672   0.25995   0.27142   0.27519
 Alpha virt. eigenvalues --    0.29095   0.30287   0.30715   0.31476   0.32195

 Mulliken charges:
               1
     1  C   -0.176164
     2  C   -0.219279
     3  C   -0.171224
     4  C    0.158658
     5  C   -0.172035
     6  C   -0.219046
     7  H    0.229388
     8  H    0.223407
     9  H    0.275402
    10  H    0.275583
    11  H    0.228898
    12  N    0.488028
    13  O   -0.460381
    14  O   -0.460495
    15  C   -0.305673
    16  C   -0.300369
    17  C   -0.480967
    18  H    0.149028
    19  H    0.148515
    20  H    0.157341
    21  H    0.152944
    22  H    0.145836
    23  H    0.156954
    24  H    0.167499
    25  C   -0.298197
    26  C   -0.300785
    27  C   -0.476300
    28  H    0.151957
    29  H    0.150190
    30  H    0.152896
    31  H    0.153883
    32  H    0.155404
    33  H    0.155980
    34  H    0.163125
 Sum of Mulliken charges =  -0.00000

 Dipole moment (field-independent basis, Debye):
    X=             -4.4936    Y=             -2.4142    Z=              1.5698  Tot=              5.3371
 Quadrupole moment (field-independent basis, Debye-Ang):
   XX=           -119.8938   YY=            -96.1655   ZZ=            -89.4889
   XY=             -6.8648   XZ=              7.1661   YZ=             -0.1710

 Normal termination of Gaussian 16 at Thu May  6 09:26:36 2021.
