 Gaussian 16, Revision A.03,
 Gaussian 16:  EM64L-G16RevA.03 25-Dec-2016

 -------------
 #p 6-31g* mp2
 -------------

 ------------------------------------------------------
 Input file generated by CHIRIPA (05-May-2021 14:55:22)
 ------------------------------------------------------
 Symbolic Z-matrix:
 Charge =  0 Multiplicity = 1

                         Standard orientation:
 ---------------------------------------------------------------------
 Center     Atomic      Atomic             Coordinates (Angstroms)
 Number     Number       Type             X           Y           Z
 ---------------------------------------------------------------------
      1          6           0        1.033049    0.306605    0.903235
      2          6           0        1.872733    1.349584    0.498703
      3          6           0        3.172957    1.084341    0.058691
      4          6           0        3.602808   -0.241556    0.035969
      5          6           0        2.790036   -1.302386    0.432620
      6          6           0        1.493569   -1.013724    0.868962
      7          1           0        0.024463    0.521749    1.243621
      8          1           0        1.517767    2.375933    0.524262
      9          1           0        3.844035    1.872647   -0.260127
     10          1           0        3.172122   -2.315346    0.396006
     11          1           0        0.843663   -1.825721    1.182536
     12          7           0        4.977308   -0.534754   -0.427909
     13          8           0        5.332166   -1.711444   -0.438526
     14          8           0        5.673758    0.417680   -0.772097
     15          6           0       -4.543895   -0.451132    0.070968
     16          6           0       -5.887397   -0.870539   -0.526599
     17          6           0       -6.318563   -2.270204   -0.087479
     18          1           0       -3.776316   -1.181103   -0.220428
     19          1           0       -4.610453   -0.488280    1.167136
     20          1           0       -5.818747   -0.831280   -1.621296
     21          1           0       -6.651828   -0.139381   -0.233905
     22          1           0       -6.414915   -2.319560    1.001961
     23          1           0       -5.577101   -3.015390   -0.393312
     24          1           0       -7.281466   -2.549792   -0.526238
     25          6           0       -4.099365    0.945810   -0.358769
     26          6           0       -2.755863    1.365217    0.238797
     27          6           0       -2.324697    2.764882   -0.200321
     28          1           0       -4.032807    0.982957   -1.454938
     29          1           0       -4.866944    1.675781   -0.067373
     30          1           0       -1.991433    0.634059   -0.053896
     31          1           0       -2.824514    1.325957    1.333495
     32          1           0       -3.066159    3.510068    0.105512
     33          1           0       -2.228345    2.814239   -1.289763
     34          1           0       -1.361794    3.044470    0.238436
 ---------------------------------------------------------------------

 SCF Done:  E(RHF) =  -669.535413506     A.U. after   15 cycles
 E2 =    -0.2091639234D+01 EUMP2 =    -0.67162705273987D+03

 The electronic state is 1-A.
 Alpha  occ. eigenvalues --  -20.60730 -20.60725 -15.85784 -11.31141 -11.27711
 Alpha  occ. eigenvalues --  -11.27707 -11.27381 -11.26717 -11.26706 -11.22812
 Alpha  occ. eigenvalues --  -11.22298 -11.22243 -11.22242 -11.22166 -11.21621
 Alpha  occ. eigenvalues --   -1.59806  -1.39359  -1.19311  -1.09324  -1.08701
 Alpha  occ. eigenvalues --   -1.04714  -1.04427  -0.96850  -0.95538  -0.87865
 Alpha  occ. eigenvalues --   -0.86109  -0.82382  -0.80532  -0.79118  -0.77427
 Alpha  occ. eigenvalues --   -0.72001  -0.71129  -0.70420  -0.65940  -0.64960
 Alpha  occ. eigenvalues --   -0.64729  -0.62070  -0.61805  -0.60271  -0.58481
 Alpha  occ. eigenvalues --   -0.56108  -0.55179  -0.53573  -0.53280  -0.53038
 Alpha  occ. eigenvalues --   -0.52793  -0.50771  -0.48851  -0.48757  -0.48721
 Alpha  occ. eigenvalues --   -0.47537  -0.46644  -0.46545  -0.44767  -0.44670
 Alpha  occ. eigenvalues --   -0.37270  -0.36323
 Alpha virt. eigenvalues --    0.05082   0.11316   0.16489   0.19432   0.22310
 Alpha virt. eigenvalues --    0.23878   0.25426   0.25861   0.26040   0.27705
 Alpha virt. eigenvalues --    0.29007   0.29816   0.30524   0.31531   0.32116

 Mulliken charges:
               1
     1  C   -0.175268
     2  C   -0.221973
     3  C   -0.170901
     4  C    0.158437
     5  C   -0.170772
     6  C   -0.221060
     7  H    0.235997
     8  H    0.224264
     9  H    0.275481
    10  H    0.275339
    11  H    0.223499
    12  N    0.488031
    13  O   -0.460602
    14  O   -0.460547
    15  C   -0.299143
    16  C   -0.300339
    17  C   -0.476220
    18  H    0.148364
    19  H    0.149223
    20  H    0.153744
    21  H    0.153436
    22  H    0.155420
    23  H    0.155363
    24  H    0.162652
    25  C   -0.297926
    26  C   -0.307989
    27  C   -0.475506
    28  H    0.153173
    29  H    0.152748
    30  H    0.149763
    31  H    0.150075
    32  H    0.160788
    33  H    0.161164
    34  H    0.151285
 Sum of Mulliken charges =  -0.00000

 Dipole moment (field-independent basis, Debye):
    X=             -5.1020    Y=              1.0510    Z=              1.5613  Tot=              5.4381
 Quadrupole moment (field-independent basis, Debye-Ang):
   XX=           -129.2264   YY=            -91.1794   ZZ=            -94.7517
   XY=              5.0493   XZ=              5.5450   YZ=             -0.7881

 Normal termination of Gaussian 16 at Thu May  6 15:53:24 2021.
