 Gaussian 16, Revision A.03,
 Gaussian 16:  EM64L-G16RevA.03 25-Dec-2016

 -------------
 #p 6-31g* mp2
 -------------

 ------------------------------------------------------
 Input file generated by CHIRIPA (05-May-2021 14:51:12)
 ------------------------------------------------------
 Symbolic Z-matrix:
 Charge =  0 Multiplicity = 1

                         Standard orientation:
 ---------------------------------------------------------------------
 Center     Atomic      Atomic             Coordinates (Angstroms)
 Number     Number       Type             X           Y           Z
 ---------------------------------------------------------------------
      1          6           0        3.500795   -0.660306    0.066422
      2          6           0        4.396199   -1.769707   -0.486267
      3          6           0        4.082669   -3.138675    0.118233
      4          1           0        3.614909   -0.615469    1.158169
      5          1           0        2.449920   -0.915935   -0.127771
      6          1           0        5.445138   -1.511395   -0.292316
      7          1           0        4.280084   -1.811781   -1.576846
      8          1           0        3.045333   -3.422087   -0.087223
      9          1           0        4.217006   -3.119994    1.204606
     10          1           0        4.734392   -3.916977   -0.290867
     11          6           0        3.802144    0.714176   -0.528320
     12          6           0        2.906740    1.823578    0.024368
     13          6           0        3.220270    3.192545   -0.580132
     14          1           0        4.853018    0.969806   -0.334127
     15          1           0        3.688030    0.669339   -1.620068
     16          1           0        3.022854    1.865651    1.114948
     17          1           0        1.857800    1.565265   -0.169582
     18          1           0        3.085932    3.173864   -1.666504
     19          1           0        4.257606    3.475957   -0.374676
     20          1           0        2.568546    3.970847   -0.171031
     21          6           0       -2.891271   -0.002267    0.160792
     22          6           0       -2.174918    0.381223    1.456076
     23          6           0       -0.654612    0.426320    1.299762
     24          1           0       -2.526642   -0.982328   -0.176060
     25          1           0       -2.623730    0.717722   -0.624977
     26          1           0       -2.444817   -0.338477    2.239533
     27          1           0       -2.541433    1.360398    1.789988
     28          1           0       -0.367243    1.157821    0.537577
     29          1           0       -0.270077   -0.550706    0.989677
     30          1           0       -0.162620    0.702465    2.237604
     31          6           0       -4.411667   -0.051604    0.301106
     32          6           0       -5.128021   -0.435092   -0.994177
     33          6           0       -6.648326   -0.480190   -0.837864
     34          1           0       -4.679207   -0.771592    1.086875
     35          1           0       -4.776296    0.928458    0.637959
     36          1           0       -4.761505   -1.414268   -1.328089
     37          1           0       -4.858121    0.284606   -1.777634
     38          1           0       -7.032862    0.496836   -0.527778
     39          1           0       -6.935695   -1.211692   -0.075679
     40          1           0       -7.140318   -0.756336   -1.775706
 ---------------------------------------------------------------------

 SCF Done:  E(RHF) =  -470.733017845     A.U. after   11 cycles
 E2 =    -0.1582918673D+01 EUMP2 =    -0.47231593651780D+03

 The electronic state is 1-A.
 Alpha  occ. eigenvalues --  -11.21615 -11.21599 -11.21559 -11.21471 -11.21421
 Alpha  occ. eigenvalues --  -11.21362 -11.21333 -11.21274 -11.21081 -11.21057
 Alpha  occ. eigenvalues --  -11.21048 -11.21015  -1.08445  -1.08361  -1.03545
 Alpha  occ. eigenvalues --   -1.03465  -0.95991  -0.95925  -0.87021  -0.86931
 Alpha  occ. eigenvalues --   -0.79671  -0.79480  -0.78288  -0.78128  -0.65080
 Alpha  occ. eigenvalues --   -0.64995  -0.61009  -0.60816  -0.59361  -0.59289
 Alpha  occ. eigenvalues --   -0.57602  -0.57538  -0.55329  -0.55170  -0.52720
 Alpha  occ. eigenvalues --   -0.52605  -0.52428  -0.52342  -0.50036  -0.49792
 Alpha  occ. eigenvalues --   -0.48041  -0.47781  -0.46745  -0.46420  -0.45927
 Alpha  occ. eigenvalues --   -0.45722  -0.45686  -0.45426  -0.43789  -0.43715
 Alpha virt. eigenvalues --    0.21946   0.22995   0.23917   0.24371   0.25444
 Alpha virt. eigenvalues --    0.26475   0.26829   0.27620   0.27900   0.29446
 Alpha virt. eigenvalues --    0.29845   0.31234   0.31828   0.31999   0.32119

 Mulliken charges:
               1
     1  C   -0.300191
     2  C   -0.299601
     3  C   -0.475528
     4  H    0.149559
     5  H    0.152107
     6  H    0.151839
     7  H    0.151726
     8  H    0.154684
     9  H    0.155154
    10  H    0.160106
    11  C   -0.297873
    12  C   -0.305891
    13  C   -0.475533
    14  H    0.149061
    15  H    0.149008
    16  H    0.151492
    17  H    0.160448
    18  H    0.154591
    19  H    0.154923
    20  H    0.159647
    21  C   -0.298337
    22  C   -0.300235
    23  C   -0.478282
    24  H    0.149362
    25  H    0.149233
    26  H    0.151887
    27  H    0.151936
    28  H    0.157265
    29  H    0.156022
    30  H    0.161197
    31  C   -0.298235
    32  C   -0.299659
    33  C   -0.475714
    34  H    0.149631
    35  H    0.149722
    36  H    0.151888
    37  H    0.151877
    38  H    0.155216
    39  H    0.155228
    40  H    0.160273
 Sum of Mulliken charges =  -0.00000

 Dipole moment (field-independent basis, Debye):
    X=             -0.0263    Y=             -0.0011    Z=              0.0167  Tot=              0.0311
 Quadrupole moment (field-independent basis, Debye-Ang):
   XX=            -85.7556   YY=            -84.9838   ZZ=            -84.2796
   XY=             -0.1731   XZ=              0.5548   YZ=              0.2491

 Normal termination of Gaussian 16 at Thu May  6 02:18:53 2021.
