 Gaussian 16, Revision A.03,
 Gaussian 16:  EM64L-G16RevA.03 25-Dec-2016

 -------------
 #p 6-31g* mp2
 -------------

 ------------------------------------------------------
 Input file generated by CHIRIPA (05-May-2021 14:53:11)
 ------------------------------------------------------
 Symbolic Z-matrix:
 Charge =  0 Multiplicity = 1

                         Standard orientation:
 ---------------------------------------------------------------------
 Center     Atomic      Atomic             Coordinates (Angstroms)
 Number     Number       Type             X           Y           Z
 ---------------------------------------------------------------------
      1          6           0        3.441293   -0.440345    0.198336
      2          6           0        4.769128   -1.198306    0.216656
      3          6           0        4.756390   -2.390007    1.174509
      4          1           0        3.210518   -0.093162    1.214777
      5          1           0        2.636194   -1.131957   -0.086061
      6          1           0        5.571684   -0.505148    0.499588
      7          1           0        4.996863   -1.543559   -0.799982
      8          1           0        3.975801   -3.103522    0.891355
      9          1           0        4.553888   -2.059211    2.198309
     10          1           0        5.715351   -2.917498    1.171833
     11          6           0        3.438432    0.753725   -0.754511
     12          6           0        2.110598    1.511687   -0.772832
     13          6           0        2.123335    2.703388   -1.730684
     14          1           0        4.243531    1.445338   -0.470114
     15          1           0        3.669207    0.406543   -1.770952
     16          1           0        1.882862    1.856940    0.243807
     17          1           0        1.308041    0.818529   -1.055764
     18          1           0        2.325838    2.372592   -2.754485
     19          1           0        2.903925    3.416903   -1.447531
     20          1           0        1.164374    3.230879   -1.728008
     21          6           0       -3.916287   -1.602717   -1.415056
     22          6           0       -2.520004   -1.528153   -1.451880
     23          6           0       -1.828635   -0.711270   -0.552292
     24          6           0       -2.568587    0.020696    0.375062
     25          6           0       -3.960229   -0.032349    0.436793
     26          6           0       -4.630684   -0.855894   -0.472499
     27          1           0       -4.445237   -2.239879   -2.117648
     28          1           0       -1.962589   -2.107025   -2.182797
     29          1           0       -0.748113   -0.634799   -0.558702
     30          1           0       -4.488424    0.556503    1.176848
     31          1           0       -5.715100   -0.911838   -0.441586
     32          7           0       -1.847737    0.889020    1.332552
     33          8           0       -2.522823    1.523916    2.139893
     34          8           0       -0.621295    0.918273    1.257561
 ---------------------------------------------------------------------

 SCF Done:  E(RHF) =  -669.535260146     A.U. after   15 cycles
 E2 =    -0.2092212680D+01 EUMP2 =    -0.67162747282615D+03

 The electronic state is 1-A.
 Alpha  occ. eigenvalues --  -20.60838 -20.60831 -15.85876 -11.31234 -11.27802
 Alpha  occ. eigenvalues --  -11.27793 -11.27545 -11.26818 -11.26808 -11.21250
 Alpha  occ. eigenvalues --  -11.20908 -11.20822 -11.20783 -11.20728 -11.20462
 Alpha  occ. eigenvalues --   -1.59909  -1.39463  -1.19406  -1.08805  -1.07902
 Alpha  occ. eigenvalues --   -1.04808  -1.03003  -0.95646  -0.95489  -0.86509
 Alpha  occ. eigenvalues --   -0.86207  -0.82484  -0.79069  -0.77813  -0.77372
 Alpha  occ. eigenvalues --   -0.72097  -0.71225  -0.70520  -0.65062  -0.64838
 Alpha  occ. eigenvalues --   -0.64532  -0.62166  -0.60406  -0.58845  -0.57071
 Alpha  occ. eigenvalues --   -0.55313  -0.54800  -0.53137  -0.52910  -0.52185
 Alpha  occ. eigenvalues --   -0.51904  -0.49456  -0.48887  -0.48870  -0.47352
 Alpha  occ. eigenvalues --   -0.46088  -0.45282  -0.45132  -0.44756  -0.43262
 Alpha  occ. eigenvalues --   -0.37387  -0.36409
 Alpha virt. eigenvalues --    0.04990   0.11218   0.16484   0.20470   0.23120
 Alpha virt. eigenvalues --    0.24479   0.25298   0.27590   0.27671   0.28404
 Alpha virt. eigenvalues --    0.29426   0.30979   0.31529   0.32176   0.32452

 Mulliken charges:
               1
     1  C   -0.296043
     2  C   -0.299321
     3  C   -0.475068
     4  H    0.158456
     5  H    0.141125
     6  H    0.152328
     7  H    0.148872
     8  H    0.152364
     9  H    0.157388
    10  H    0.158652
    11  C   -0.299447
    12  C   -0.299539
    13  C   -0.476119
    14  H    0.149078
    15  H    0.143517
    16  H    0.175235
    17  H    0.142416
    18  H    0.148642
    19  H    0.154503
    20  H    0.161033
    21  C   -0.170387
    22  C   -0.220595
    23  C   -0.174311
    24  C    0.155696
    25  C   -0.170172
    26  C   -0.218797
    27  H    0.225781
    28  H    0.223775
    29  H    0.283924
    30  H    0.275699
    31  H    0.223601
    32  N    0.490908
    33  O   -0.460237
    34  O   -0.462959
 Sum of Mulliken charges =  -0.00000

 Dipole moment (field-independent basis, Debye):
    X=             -2.6573    Y=             -2.9510    Z=             -3.1673  Tot=              5.0795
 Quadrupole moment (field-independent basis, Debye-Ang):
   XX=            -78.3227   YY=            -95.7499   ZZ=            -97.2459
   XY=              7.2166   XZ=              6.5567   YZ=              0.8709

 Normal termination of Gaussian 16 at Wed May  5 23:18:41 2021.
