 Gaussian 16, Revision A.03,
 Gaussian 16:  EM64L-G16RevA.03 25-Dec-2016

 -------------
 #p 6-31g* mp2
 -------------

 ------------------------------------------------------
 Input file generated by CHIRIPA (05-May-2021 14:53:16)
 ------------------------------------------------------
 Symbolic Z-matrix:
 Charge =  0 Multiplicity = 1

                         Standard orientation:
 ---------------------------------------------------------------------
 Center     Atomic      Atomic             Coordinates (Angstroms)
 Number     Number       Type             X           Y           Z
 ---------------------------------------------------------------------
      1          6           0       -3.233880   -0.929865    0.691746
      2          6           0       -2.093712   -0.652651    1.672130
      3          6           0       -1.750694   -1.865212    2.538056
      4          1           0       -4.123893   -1.244421    1.253775
      5          1           0       -2.956383   -1.775287    0.047035
      6          1           0       -2.372707    0.192884    2.313884
      7          1           0       -1.206366   -0.338535    1.107715
      8          1           0       -1.446959   -2.711302    1.913174
      9          1           0       -2.619927   -2.176864    3.126196
     10          1           0       -0.933142   -1.644919    3.231554
     11          6           0       -3.588363    0.272845   -0.180927
     12          6           0       -4.728532   -0.004369   -1.161311
     13          6           0       -5.071549    1.208192   -2.027237
     14          1           0       -3.865861    1.118267    0.463784
     15          1           0       -2.698350    0.587400   -0.742956
     16          1           0       -5.615877   -0.318486   -0.596896
     17          1           0       -4.449537   -0.849904   -1.803064
     18          1           0       -4.202316    1.519844   -2.615376
     19          1           0       -5.375284    2.054282   -1.402354
     20          1           0       -5.889101    0.987899   -2.720735
     21          6           0        3.687294   -1.714206   -1.398056
     22          6           0        2.297924   -1.554502   -1.372216
     23          6           0        1.720496   -0.466316   -0.711173
     24          6           0        2.566101    0.447184   -0.083671
     25          6           0        3.953866    0.315530   -0.091747
     26          6           0        4.509381   -0.780327   -0.758867
     27          1           0        4.127342   -2.562514   -1.913931
     28          1           0        1.657026   -2.278196   -1.867755
     29          1           0        0.647983   -0.318445   -0.675577
     30          1           0        4.566881    1.053461    0.411332
     31          1           0        5.588708   -0.901816   -0.777301
     32          7           0        1.966403    1.603258    0.619363
     33          8           0        2.733219    2.394107    1.164510
     34          8           0        0.740899    1.696648    0.611939
 ---------------------------------------------------------------------

 SCF Done:  E(RHF) =  -669.535609459     A.U. after   15 cycles
 E2 =    -0.2091990900D+01 EUMP2 =    -0.67162760035892D+03

 The electronic state is 1-A.
 Alpha  occ. eigenvalues --  -20.60894 -20.60888 -15.85926 -11.31275 -11.27844
 Alpha  occ. eigenvalues --  -11.27834 -11.27576 -11.26854 -11.26843 -11.21359
 Alpha  occ. eigenvalues --  -11.21100 -11.21016 -11.20987 -11.20818 -11.20765
 Alpha  occ. eigenvalues --   -1.59957  -1.39513  -1.19445  -1.08843  -1.08088
 Alpha  occ. eigenvalues --   -1.04846  -1.03194  -0.95688  -0.95665  -0.86685
 Alpha  occ. eigenvalues --   -0.86247  -0.82517  -0.79238  -0.77908  -0.77524
 Alpha  occ. eigenvalues --   -0.72150  -0.71271  -0.70558  -0.65104  -0.64909
 Alpha  occ. eigenvalues --   -0.64690  -0.62208  -0.60598  -0.59020  -0.57255
 Alpha  occ. eigenvalues --   -0.55348  -0.54982  -0.53172  -0.52946  -0.52358
 Alpha  occ. eigenvalues --   -0.52080  -0.49634  -0.48940  -0.48905  -0.47539
 Alpha  occ. eigenvalues --   -0.46280  -0.45437  -0.45371  -0.44799  -0.43448
 Alpha  occ. eigenvalues --   -0.37422  -0.36445
 Alpha virt. eigenvalues --    0.04934   0.11166   0.16442   0.20260   0.22844
 Alpha virt. eigenvalues --    0.24473   0.25683   0.27425   0.27585   0.28206
 Alpha virt. eigenvalues --    0.29294   0.31055   0.31573   0.32013   0.32210

 Mulliken charges:
               1
     1  C   -0.298617
     2  C   -0.308405
     3  C   -0.475558
     4  H    0.148862
     5  H    0.141156
     6  H    0.158473
     7  H    0.164649
     8  H    0.147797
     9  H    0.154274
    10  H    0.161919
    11  C   -0.297933
    12  C   -0.299241
    13  C   -0.475252
    14  H    0.154273
    15  H    0.150763
    16  H    0.151491
    17  H    0.147679
    18  H    0.155098
    19  H    0.157114
    20  H    0.158447
    21  C   -0.170438
    22  C   -0.219807
    23  C   -0.171917
    24  C    0.156970
    25  C   -0.170556
    26  C   -0.218561
    27  H    0.225980
    28  H    0.223965
    29  H    0.279830
    30  H    0.275819
    31  H    0.223802
    32  N    0.489098
    33  O   -0.459331
    34  O   -0.461842
 Sum of Mulliken charges =  -0.00000

 Dipole moment (field-independent basis, Debye):
    X=              2.2333    Y=             -3.8967    Z=             -2.4157  Tot=              5.0998
 Quadrupole moment (field-independent basis, Debye-Ang):
   XX=            -79.5478   YY=            -99.3005   ZZ=            -94.8193
   XY=             -8.4049   XZ=             -6.3021   YZ=              0.8012

 Normal termination of Gaussian 16 at Thu May  6 09:02:54 2021.
