 Gaussian 16, Revision A.03,
 Gaussian 16:  EM64L-G16RevA.03 25-Dec-2016

 -------------
 #p 6-31g* mp2
 -------------

 ------------------------------------------------------
 Input file generated by CHIRIPA (05-May-2021 14:57:25)
 ------------------------------------------------------
 Symbolic Z-matrix:
 Charge =  0 Multiplicity = 1

                         Standard orientation:
 ---------------------------------------------------------------------
 Center     Atomic      Atomic             Coordinates (Angstroms)
 Number     Number       Type             X           Y           Z
 ---------------------------------------------------------------------
      1          6           0        2.604335    2.371290   -0.437376
      2          6           0        3.435093    2.072523    0.647567
      3          6           0        3.794380    0.749929    0.923621
      4          6           0        3.302628   -0.253626    0.090346
      5          6           0        2.473212    0.012114   -0.998112
      6          6           0        2.126888    1.341947   -1.255311
      7          1           0        2.330267    3.401525   -0.644498
      8          1           0        3.807370    2.869889    1.284482
      9          1           0        4.436015    0.490459    1.756927
     10          1           0        2.117759   -0.804187   -1.615142
     11          1           0        1.481552    1.571020   -2.098586
     12          7           0        3.676127   -1.657629    0.372612
     13          8           0        3.229680   -2.523656   -0.376600
     14          8           0        4.408252   -1.865474    1.337718
     15          6           0       -5.555479   -0.555205    0.778370
     16          6           0       -4.832853    0.475499    1.388274
     17          6           0       -3.549677    0.804073    0.941011
     18          6           0       -3.017322    0.078054   -0.123313
     19          6           0       -3.712309   -0.954182   -0.751622
     20          6           0       -4.993891   -1.265504   -0.287750
     21          1           0       -6.551662   -0.803748    1.132265
     22          1           0       -5.266478    1.028822    2.216434
     23          1           0       -2.968201    1.597316    1.394959
     24          1           0       -3.253572   -1.487897   -1.575106
     25          1           0       -5.552780   -2.066455   -0.763320
     26          7           0       -1.659725    0.416768   -0.605600
     27          8           0       -1.213075   -0.237939   -1.545015
     28          8           0       -1.067996    1.330546   -0.035070
 ---------------------------------------------------------------------

 SCF Done:  E(RHF) =  -868.339889461     A.U. after   16 cycles
 E2 =    -0.2600132792D+01 EUMP2 =    -0.87094002225299D+03

 The electronic state is 1-A.
 Alpha  occ. eigenvalues --  -20.61520 -20.61511 -20.59603 -20.59590 -15.86523
 Alpha  occ. eigenvalues --  -15.84635 -11.31622 -11.29646 -11.28169 -11.28144
 Alpha  occ. eigenvalues --  -11.27855 -11.27121 -11.27099 -11.26236 -11.25990
 Alpha  occ. eigenvalues --  -11.25829 -11.25258 -11.24944  -1.60571  -1.58681
 Alpha  occ. eigenvalues --   -1.40131  -1.38243  -1.19769  -1.17765  -1.09218
 Alpha  occ. eigenvalues --   -1.07242  -1.05132  -1.03094  -0.96097  -0.94138
 Alpha  occ. eigenvalues --   -0.86543  -0.84535  -0.82940  -0.80976  -0.78015
 Alpha  occ. eigenvalues --   -0.76060  -0.72762  -0.71862  -0.70877  -0.70869
 Alpha  occ. eigenvalues --   -0.69999  -0.68908  -0.65427  -0.65137  -0.63421
 Alpha  occ. eigenvalues --   -0.63120  -0.62482  -0.60466  -0.55650  -0.53672
 Alpha  occ. eigenvalues --   -0.53474  -0.53222  -0.51563  -0.51208  -0.49528
 Alpha  occ. eigenvalues --   -0.49394  -0.47636  -0.47590  -0.45588  -0.43728
 Alpha  occ. eigenvalues --   -0.37734  -0.36720  -0.35727  -0.34586
 Alpha virt. eigenvalues --    0.04493   0.06433   0.10939   0.13007   0.16048
 Alpha virt. eigenvalues --    0.18029   0.21099   0.22980   0.27025   0.27964
 Alpha virt. eigenvalues --    0.28955   0.29778   0.30692   0.32180   0.32481

 Mulliken charges:
               1
     1  C   -0.168933
     2  C   -0.219419
     3  C   -0.174988
     4  C    0.155653
     5  C   -0.170512
     6  C   -0.195363
     7  H    0.220230
     8  H    0.216008
     9  H    0.268803
    10  H    0.277476
    11  H    0.228363
    12  N    0.487995
    13  O   -0.462944
    14  O   -0.466457
    15  C   -0.169710
    16  C   -0.218499
    17  C   -0.170355
    18  C    0.158525
    19  C   -0.169763
    20  C   -0.218453
    21  H    0.227409
    22  H    0.224585
    23  H    0.274864
    24  H    0.276755
    25  H    0.225515
    26  N    0.489633
    27  O   -0.466025
    28  O   -0.460393
 Sum of Mulliken charges =  -0.00000

 Dipole moment (field-independent basis, Debye):
    X=             -6.7166    Y=              3.7958    Z=              0.5194  Tot=              7.7324
 Quadrupole moment (field-independent basis, Debye-Ang):
   XX=            -85.4023   YY=           -105.8106   ZZ=           -100.6885
   XY=             21.5419   XZ=             -6.1464   YZ=              5.1534

 Normal termination of Gaussian 16 at Wed May  5 19:31:35 2021.
