 Gaussian 16, Revision A.03,
 Gaussian 16:  EM64L-G16RevA.03 25-Dec-2016

 -------------
 #p 6-31g* mp2
 -------------

 ------------------------------------------------------
 Input file generated by CHIRIPA (05-May-2021 14:53:15)
 ------------------------------------------------------
 Symbolic Z-matrix:
 Charge =  0 Multiplicity = 1

                         Standard orientation:
 ---------------------------------------------------------------------
 Center     Atomic      Atomic             Coordinates (Angstroms)
 Number     Number       Type             X           Y           Z
 ---------------------------------------------------------------------
      1          6           0       -3.322692    1.164661    0.250576
      2          6           0       -2.313435    1.842163   -0.676988
      3          6           0       -1.950379    3.256469   -0.223422
      4          1           0       -4.231971    1.778923    0.303862
      5          1           0       -2.909099    1.129607    1.267978
      6          1           0       -2.728232    1.874686   -1.692617
      7          1           0       -1.406526    1.226121   -0.728223
      8          1           0       -1.512665    3.238808    0.779921
      9          1           0       -2.841881    3.891059   -0.189953
     10          1           0       -1.227683    3.722169   -0.900691
     11          6           0       -3.695573   -0.249860   -0.189670
     12          6           0       -4.704831   -0.927361    0.737894
     13          6           0       -5.067887   -2.341667    0.284327
     14          1           0       -4.109167   -0.214806   -1.207072
     15          1           0       -2.786294   -0.864121   -0.242956
     16          1           0       -5.611739   -0.311319    0.789129
     17          1           0       -4.290033   -0.959885    1.753523
     18          1           0       -4.176385   -2.976258    0.250858
     19          1           0       -5.505600   -2.324007   -0.719015
     20          1           0       -5.790583   -2.807367    0.961597
     21          6           0        2.047190   -2.749449   -0.425885
     22          6           0        1.158431   -1.706158   -0.705479
     23          6           0        1.532427   -0.376967   -0.486561
     24          6           0        2.808634   -0.126084    0.015082
     25          6           0        3.716640   -1.143746    0.303493
     26          6           0        3.321212   -2.465414    0.076822
     27          1           0        1.748336   -3.779074   -0.598956
     28          1           0        0.168374   -1.923773   -1.095960
     29          1           0        0.864245    0.449945   -0.694328
     30          1           0        4.696885   -0.895525    0.691980
     31          1           0        4.013515   -3.273631    0.294870
     32          7           0        3.215912    1.277088    0.250943
     33          8           0        4.345902    1.471697    0.693536
     34          8           0        2.397435    2.155718   -0.011246
 ---------------------------------------------------------------------

 SCF Done:  E(RHF) =  -669.535552101     A.U. after   15 cycles
 E2 =    -0.2091614659D+01 EUMP2 =    -0.67162716676019D+03

 The electronic state is 1-A.
 Alpha  occ. eigenvalues --  -20.60772 -20.60767 -15.85823 -11.31186 -11.27761
 Alpha  occ. eigenvalues --  -11.27742 -11.27506 -11.26778 -11.26766 -11.21992
 Alpha  occ. eigenvalues --  -11.21894 -11.21860 -11.21647 -11.21505 -11.20874
 Alpha  occ. eigenvalues --   -1.59847  -1.39400  -1.19362  -1.08770  -1.08758
 Alpha  occ. eigenvalues --   -1.04767  -1.03786  -0.96202  -0.95593  -0.87212
 Alpha  occ. eigenvalues --   -0.86165  -0.82425  -0.79871  -0.78608  -0.77468
 Alpha  occ. eigenvalues --   -0.72043  -0.71170  -0.70481  -0.65419  -0.65014
 Alpha  occ. eigenvalues --   -0.64774  -0.62152  -0.61152  -0.59582  -0.57821
 Alpha  occ. eigenvalues --   -0.55495  -0.55267  -0.53096  -0.52886  -0.52844
 Alpha  occ. eigenvalues --   -0.52616  -0.50137  -0.48802  -0.48798  -0.48167
 Alpha  occ. eigenvalues --   -0.46915  -0.46151  -0.46042  -0.44806  -0.44045
 Alpha  occ. eigenvalues --   -0.37346  -0.36368
 Alpha virt. eigenvalues --    0.05054   0.11273   0.16525   0.19177   0.22910
 Alpha virt. eigenvalues --    0.23570   0.24722   0.26810   0.26924   0.28224
 Alpha virt. eigenvalues --    0.29214   0.30831   0.31401   0.31524   0.32145

 Mulliken charges:
               1
     1  C   -0.298447
     2  C   -0.303007
     3  C   -0.475325
     4  H    0.152443
     5  H    0.152031
     6  H    0.152457
     7  H    0.141982
     8  H    0.161067
     9  H    0.153949
    10  H    0.168287
    11  C   -0.297273
    12  C   -0.299956
    13  C   -0.475373
    14  H    0.150265
    15  H    0.140306
    16  H    0.154393
    17  H    0.153377
    18  H    0.151289
    19  H    0.155657
    20  H    0.162080
    21  C   -0.170754
    22  C   -0.223646
    23  C   -0.182286
    24  C    0.159768
    25  C   -0.170149
    26  C   -0.218899
    27  H    0.225774
    28  H    0.225121
    29  H    0.289411
    30  H    0.275635
    31  H    0.223504
    32  N    0.486937
    33  O   -0.460373
    34  O   -0.460246
 Sum of Mulliken charges =  -0.00000

 Dipole moment (field-independent basis, Debye):
    X=             -1.5061    Y=             -4.7952    Z=             -0.7770  Tot=              5.0858
 Quadrupole moment (field-independent basis, Debye-Ang):
   XX=            -98.1278   YY=            -93.9961   ZZ=            -94.7875
   XY=            -16.3836   XZ=             -0.4799   YZ=             -0.9506

 Normal termination of Gaussian 16 at Thu May  6 08:59:20 2021.
