 Gaussian 16, Revision A.03,
 Gaussian 16:  EM64L-G16RevA.03 25-Dec-2016

 -------------
 #p 6-31g* mp2
 -------------

 ------------------------------------------------------
 Input file generated by CHIRIPA (05-May-2021 14:51:08)
 ------------------------------------------------------
 Symbolic Z-matrix:
 Charge =  0 Multiplicity = 1

                         Standard orientation:
 ---------------------------------------------------------------------
 Center     Atomic      Atomic             Coordinates (Angstroms)
 Number     Number       Type             X           Y           Z
 ---------------------------------------------------------------------
      1          6           0       -4.352348   -0.604428   -0.299261
      2          6           0       -5.592688    0.275689   -0.141358
      3          6           0       -6.730192   -0.132308   -1.078065
      4          1           0       -4.006595   -0.556283   -1.340933
      5          1           0       -4.627442   -1.651153   -0.109296
      6          1           0       -5.315041    1.320612   -0.330209
      7          1           0       -5.935416    0.225593    0.900104
      8          1           0       -7.035419   -1.166011   -0.885983
      9          1           0       -6.411520   -0.064770   -2.123286
     10          1           0       -7.606880    0.509947   -0.948500
     11          6           0       -3.206538   -0.208949    0.630494
     12          6           0       -1.966197   -1.089066    0.472592
     13          6           0       -0.828694   -0.681070    1.409298
     14          1           0       -2.931443    0.837775    0.440530
     15          1           0       -3.552291   -0.257095    1.672167
     16          1           0       -1.623469   -1.038970   -0.568871
     17          1           0       -2.243844   -2.133989    0.661442
     18          1           0       -1.147366   -0.748607    2.454520
     19          1           0       -0.523466    0.352633    1.217216
     20          1           0        0.047995   -1.323324    1.279733
     21          6           0        3.053179    0.589369   -0.015278
     22          6           0        2.768922    2.087515   -0.128151
     23          6           0        1.311778    2.437261    0.175500
     24          1           0        2.392710    0.044432   -0.703588
     25          1           0        2.797156    0.249989    0.997968
     26          1           0        3.026709    2.424246   -1.140463
     27          1           0        3.430278    2.628963    0.560367
     28          1           0        1.045294    2.128932    1.191631
     29          1           0        0.639431    1.923052   -0.518863
     30          1           0        1.130727    3.513174    0.088959
     31          6           0        4.505706    0.224008   -0.315955
     32          6           0        4.789964   -1.274138   -0.203082
     33          6           0        6.247107   -1.623883   -0.506734
     34          1           0        4.761729    0.563389   -1.329201
     35          1           0        5.166175    0.768946    0.372354
     36          1           0        4.128608   -1.815586   -0.891600
     37          1           0        4.532177   -1.610869    0.809229
     38          1           0        6.919454   -1.109675    0.187630
     39          1           0        6.513592   -1.315555   -1.522864
     40          1           0        6.428158   -2.699797   -0.420193
 ---------------------------------------------------------------------

 SCF Done:  E(RHF) =  -470.732729788     A.U. after   11 cycles
 E2 =    -0.1583111736D+01 EUMP2 =    -0.47231584152439D+03

 The electronic state is 1-A.
 Alpha  occ. eigenvalues --  -11.21626 -11.21603 -11.21570 -11.21526 -11.21399
 Alpha  occ. eigenvalues --  -11.21357 -11.21339 -11.21295 -11.21108 -11.21072
 Alpha  occ. eigenvalues --  -11.21048 -11.20868  -1.08439  -1.08373  -1.03563
 Alpha  occ. eigenvalues --   -1.03450  -0.96021  -0.95892  -0.87052  -0.86902
 Alpha  occ. eigenvalues --   -0.79683  -0.79474  -0.78261  -0.78169  -0.65065
 Alpha  occ. eigenvalues --   -0.65011  -0.60948  -0.60890  -0.59371  -0.59274
 Alpha  occ. eigenvalues --   -0.57738  -0.57431  -0.55308  -0.55189  -0.52704
 Alpha  occ. eigenvalues --   -0.52619  -0.52590  -0.52164  -0.49984  -0.49833
 Alpha  occ. eigenvalues --   -0.48047  -0.47700  -0.46668  -0.46524  -0.45827
 Alpha  occ. eigenvalues --   -0.45718  -0.45705  -0.45532  -0.43797  -0.43711
 Alpha virt. eigenvalues --    0.21728   0.23029   0.23646   0.24909   0.26157
 Alpha virt. eigenvalues --    0.26344   0.26888   0.27333   0.27983   0.29390
 Alpha virt. eigenvalues --    0.30700   0.31295   0.31832   0.31875   0.32155

 Mulliken charges:
               1
     1  C   -0.298176
     2  C   -0.299624
     3  C   -0.475665
     4  H    0.149332
     5  H    0.149423
     6  H    0.151951
     7  H    0.151892
     8  H    0.155121
     9  H    0.155070
    10  H    0.160156
    11  C   -0.298461
    12  C   -0.299235
    13  C   -0.484292
    14  H    0.149789
    15  H    0.149517
    16  H    0.150688
    17  H    0.151403
    18  H    0.153352
    19  H    0.165340
    20  H    0.160648
    21  C   -0.299367
    22  C   -0.299596
    23  C   -0.479545
    24  H    0.150018
    25  H    0.151554
    26  H    0.151827
    27  H    0.152073
    28  H    0.158888
    29  H    0.155683
    30  H    0.160489
    31  C   -0.298351
    32  C   -0.299688
    33  C   -0.475686
    34  H    0.149390
    35  H    0.149626
    36  H    0.151851
    37  H    0.151974
    38  H    0.155208
    39  H    0.155162
    40  H    0.160263
 Sum of Mulliken charges =  -0.00000

 Dipole moment (field-independent basis, Debye):
    X=              0.0434    Y=              0.0391    Z=              0.0057  Tot=              0.0587
 Quadrupole moment (field-independent basis, Debye-Ang):
   XX=            -86.5683   YY=            -84.6036   ZZ=            -83.7207
   XY=              0.5033   XZ=             -0.3536   YZ=             -0.4744

 Normal termination of Gaussian 16 at Thu May  6 16:32:10 2021.
