 Gaussian 16, Revision A.03,
 Gaussian 16:  EM64L-G16RevA.03 25-Dec-2016

 -------------
 #p 6-31g* mp2
 -------------

 ------------------------------------------------------
 Input file generated by CHIRIPA (05-May-2021 14:53:11)
 ------------------------------------------------------
 Symbolic Z-matrix:
 Charge =  0 Multiplicity = 1

                         Standard orientation:
 ---------------------------------------------------------------------
 Center     Atomic      Atomic             Coordinates (Angstroms)
 Number     Number       Type             X           Y           Z
 ---------------------------------------------------------------------
      1          6           0        3.541213   -0.504654    0.981479
      2          6           0        2.442973   -1.526786    0.686353
      3          6           0        1.880195   -2.172175    1.953060
      4          1           0        4.352290   -0.996997    1.535282
      5          1           0        3.138872    0.274628    1.643472
      6          1           0        2.846875   -2.303165    0.023997
      7          1           0        1.634503   -1.031997    0.133021
      8          1           0        1.451447   -1.412502    2.614630
      9          1           0        2.670708   -2.690892    2.504986
     10          1           0        1.096566   -2.899479    1.718935
     11          6           0        4.113768    0.149171   -0.274873
     12          6           0        5.212009    1.171303    0.020253
     13          6           0        5.774786    1.816692   -1.246455
     14          1           0        4.516110   -0.630112   -0.936866
     15          1           0        3.302691    0.641514   -0.828676
     16          1           0        6.020479    0.676514    0.573585
     17          1           0        4.808106    1.947682    0.682608
     18          1           0        4.984273    2.335409   -1.798381
     19          1           0        6.203534    1.057019   -1.908024
     20          1           0        6.558415    2.543995   -1.012329
     21          6           0       -4.432360    1.761238    1.010088
     22          6           0       -3.074047    2.033400    0.816608
     23          6           0       -2.265488    1.141621    0.105615
     24          6           0       -2.850807   -0.017985   -0.400354
     25          6           0       -4.200896   -0.317237   -0.224294
     26          6           0       -4.990466    0.588856    0.489936
     27          1           0       -5.053092    2.459552    1.563661
     28          1           0       -2.637908    2.943105    1.219430
     29          1           0       -1.211075    1.327533   -0.058914
     30          1           0       -4.607140   -1.232328   -0.637806
     31          1           0       -6.045051    0.374893    0.638650
     32          7           0       -2.004873   -0.969647   -1.154764
     33          8           0       -2.544620   -1.984295   -1.590426
     34          8           0       -0.818102   -0.682893   -1.296125
 ---------------------------------------------------------------------

 SCF Done:  E(RHF) =  -669.536083421     A.U. after   15 cycles
 E2 =    -0.2091054540D+01 EUMP2 =    -0.67162713796068D+03

 The electronic state is 1-A.
 Alpha  occ. eigenvalues --  -20.60954 -20.60944 -15.85984 -11.31301 -11.27870
 Alpha  occ. eigenvalues --  -11.27860 -11.27601 -11.26873 -11.26862 -11.21172
 Alpha  occ. eigenvalues --  -11.20772 -11.20703 -11.20697 -11.20511 -11.20322
 Alpha  occ. eigenvalues --   -1.60010  -1.39567  -1.19470  -1.08874  -1.07772
 Alpha  occ. eigenvalues --   -1.04867  -1.02871  -0.95717  -0.95367  -0.86388
 Alpha  occ. eigenvalues --   -0.86267  -0.82554  -0.78933  -0.77638  -0.77509
 Alpha  occ. eigenvalues --   -0.72209  -0.71322  -0.70580  -0.65129  -0.64871
 Alpha  occ. eigenvalues --   -0.64411  -0.62216  -0.60273  -0.58730  -0.56945
 Alpha  occ. eigenvalues --   -0.55371  -0.54680  -0.53197  -0.52960  -0.52064
 Alpha  occ. eigenvalues --   -0.51783  -0.49336  -0.48970  -0.48960  -0.47251
 Alpha  occ. eigenvalues --   -0.45989  -0.45220  -0.45087  -0.44701  -0.43132
 Alpha  occ. eigenvalues --   -0.37446  -0.36468
 Alpha virt. eigenvalues --    0.04893   0.11186   0.16363   0.21203   0.23394
 Alpha virt. eigenvalues --    0.24855   0.26835   0.27397   0.27817   0.28517
 Alpha virt. eigenvalues --    0.28769   0.30806   0.31833   0.32209   0.32599

 Mulliken charges:
               1
     1  C   -0.297440
     2  C   -0.309370
     3  C   -0.475206
     4  H    0.146534
     5  H    0.142998
     6  H    0.152454
     7  H    0.175105
     8  H    0.148141
     9  H    0.151384
    10  H    0.162902
    11  C   -0.298013
    12  C   -0.298869
    13  C   -0.475163
    14  H    0.150868
    15  H    0.152089
    16  H    0.150902
    17  H    0.148414
    18  H    0.154619
    19  H    0.155898
    20  H    0.157981
    21  C   -0.170580
    22  C   -0.218472
    23  C   -0.170485
    24  C    0.158286
    25  C   -0.170770
    26  C   -0.218502
    27  H    0.226056
    28  H    0.223815
    29  H    0.275001
    30  H    0.275896
    31  H    0.223883
    32  N    0.491155
    33  O   -0.458673
    34  O   -0.462838
 Sum of Mulliken charges =  -0.00000

 Dipole moment (field-independent basis, Debye):
    X=             -3.2226    Y=              3.3067    Z=              2.5094  Tot=              5.2552
 Quadrupole moment (field-independent basis, Debye-Ang):
   XX=            -75.1549   YY=            -93.3859   ZZ=            -98.6501
   XY=             -7.9335   XZ=             -5.9720   YZ=             -0.0903

 Normal termination of Gaussian 16 at Thu May  6 07:14:40 2021.
