 Gaussian 16, Revision A.03,
 Gaussian 16:  EM64L-G16RevA.03 25-Dec-2016

 -------------
 #p 6-31g* mp2
 -------------

 ------------------------------------------------------
 Input file generated by CHIRIPA (05-May-2021 14:53:14)
 ------------------------------------------------------
 Symbolic Z-matrix:
 Charge =  0 Multiplicity = 1

                         Standard orientation:
 ---------------------------------------------------------------------
 Center     Atomic      Atomic             Coordinates (Angstroms)
 Number     Number       Type             X           Y           Z
 ---------------------------------------------------------------------
      1          6           0       -2.504408    1.064458   -0.185952
      2          6           0       -2.780725    2.566563   -0.113044
      3          6           0       -1.532393    3.410533   -0.372225
      4          1           0       -1.726520    0.805270    0.545250
      5          1           0       -2.095629    0.821561   -1.176556
      6          1           0       -3.190156    2.806338    0.876648
      7          1           0       -3.558183    2.822173   -0.844371
      8          1           0       -1.124829    3.200317   -1.366358
      9          1           0       -0.754711    3.184392    0.364439
     10          1           0       -1.752632    4.481099   -0.315278
     11          6           0       -3.742705    0.207520    0.070963
     12          6           0       -3.466388   -1.294584   -0.001945
     13          6           0       -4.714721   -2.138554    0.257236
     14          1           0       -4.151485    0.450417    1.061567
     15          1           0       -4.520594    0.466708   -0.660239
     16          1           0       -2.688931   -1.550194    0.729382
     17          1           0       -3.056957   -1.534360   -0.991637
     18          1           0       -5.492402   -1.912414   -0.479428
     19          1           0       -5.122285   -1.928338    1.251369
     20          1           0       -4.494481   -3.209120    0.200289
     21          6           0        4.686749    0.647473    0.143829
     22          6           0        3.851944    0.645898    1.266156
     23          6           0        2.605112    0.014967    1.222744
     24          6           0        2.223098   -0.607497    0.035355
     25          6           0        3.032398   -0.623114   -1.099582
     26          6           0        4.275037    0.014078   -1.033383
     27          1           0        5.653689    1.140026    0.186402
     28          1           0        4.169079    1.137005    2.181735
     29          1           0        1.939036   -0.001414    2.076848
     30          1           0        2.688796   -1.121056   -1.998140
     31          1           0        4.921282    0.013711   -1.906545
     32          7           0        0.905352   -1.278749   -0.022664
     33          8           0        0.591988   -1.820064   -1.080690
     34          8           0        0.210820   -1.250851    0.990984
 ---------------------------------------------------------------------

 SCF Done:  E(RHF) =  -669.536532779     A.U. after   15 cycles
 E2 =    -0.2092555866D+01 EUMP2 =    -0.67162908864494D+03

 The electronic state is 1-A.
 Alpha  occ. eigenvalues --  -20.61063 -20.61054 -15.86056 -11.31341 -11.27898
 Alpha  occ. eigenvalues --  -11.27891 -11.27624 -11.26894 -11.26884 -11.20806
 Alpha  occ. eigenvalues --  -11.20584 -11.20146 -11.20076 -11.19781 -11.19716
 Alpha  occ. eigenvalues --   -1.60089  -1.39654  -1.19500  -1.08913  -1.07217
 Alpha  occ. eigenvalues --   -1.04892  -1.02387  -0.95763  -0.94907  -0.86295
 Alpha  occ. eigenvalues --   -0.85938  -0.82604  -0.78459  -0.77661  -0.76933
 Alpha  occ. eigenvalues --   -0.72287  -0.71382  -0.70612  -0.65161  -0.64896
 Alpha  occ. eigenvalues --   -0.63853  -0.62241  -0.59793  -0.58309  -0.56472
 Alpha  occ. eigenvalues --   -0.55398  -0.54225  -0.53222  -0.52985  -0.51651
 Alpha  occ. eigenvalues --   -0.51325  -0.49119  -0.49043  -0.48873  -0.46768
 Alpha  occ. eigenvalues --   -0.45569  -0.45166  -0.44470  -0.44056  -0.42616
 Alpha  occ. eigenvalues --   -0.37472  -0.36489
 Alpha virt. eigenvalues --    0.04836   0.11161   0.16311   0.21278   0.23981
 Alpha virt. eigenvalues --    0.25355   0.27201   0.27770   0.28085   0.28755
 Alpha virt. eigenvalues --    0.29217   0.30985   0.32360   0.32446   0.32703

 Mulliken charges:
               1
     1  C   -0.304527
     2  C   -0.298310
     3  C   -0.474352
     4  H    0.161808
     5  H    0.148931
     6  H    0.149327
     7  H    0.149470
     8  H    0.153344
     9  H    0.150793
    10  H    0.156873
    11  C   -0.297297
    12  C   -0.306624
    13  C   -0.475555
    14  H    0.144304
    15  H    0.143257
    16  H    0.176102
    17  H    0.155962
    18  H    0.148923
    19  H    0.149960
    20  H    0.159208
    21  C   -0.170358
    22  C   -0.218374
    23  C   -0.170852
    24  C    0.158797
    25  C   -0.170518
    26  C   -0.218480
    27  H    0.226230
    28  H    0.223999
    29  H    0.275318
    30  H    0.275841
    31  H    0.224011
    32  N    0.489791
    33  O   -0.457716
    34  O   -0.459285
 Sum of Mulliken charges =  -0.00000

 Dipole moment (field-independent basis, Debye):
    X=              5.0187    Y=              2.1479    Z=              0.2302  Tot=              5.4639
 Quadrupole moment (field-independent basis, Debye-Ang):
   XX=            -76.5561   YY=            -99.2730   ZZ=            -89.3233
   XY=              1.9349   XZ=             -0.0859   YZ=              1.6178

 Normal termination of Gaussian 16 at Thu May  6 02:39:12 2021.
