 Gaussian 16, Revision A.03,
 Gaussian 16:  EM64L-G16RevA.03 25-Dec-2016

 -------------
 #p 6-31g* mp2
 -------------

 ------------------------------------------------------
 Input file generated by CHIRIPA (05-May-2021 14:55:22)
 ------------------------------------------------------
 Symbolic Z-matrix:
 Charge =  0 Multiplicity = 1

                         Standard orientation:
 ---------------------------------------------------------------------
 Center     Atomic      Atomic             Coordinates (Angstroms)
 Number     Number       Type             X           Y           Z
 ---------------------------------------------------------------------
      1          6           0        4.139416   -2.151131   -0.246385
      2          6           0        4.628074   -1.102983   -1.033227
      3          6           0        4.126236    0.192956   -0.880750
      4          6           0        3.131564    0.405994    0.072421
      5          6           0        2.624246   -0.617481    0.871430
      6          6           0        3.140822   -1.905468    0.701760
      7          1           0        4.534980   -3.154758   -0.371511
      8          1           0        5.403572   -1.290834   -1.770357
      9          1           0        4.486489    1.022768   -1.476608
     10          1           0        1.850945   -0.399306    1.597945
     11          1           0        2.759431   -2.717547    1.314225
     12          7           0        2.592490    1.773737    0.242942
     13          8           0        1.716391    1.935324    1.089687
     14          8           0        3.056269    2.658289   -0.473378
     15          6           0       -3.517427   -0.650764    0.147441
     16          6           0       -2.180599    0.040775   -0.122093
     17          6           0       -0.980296   -0.811215    0.291647
     18          1           0       -3.588834   -0.892688    1.216702
     19          1           0       -3.542561   -1.607770   -0.391913
     20          1           0       -2.158551    0.996834    0.416500
     21          1           0       -2.112449    0.281254   -1.190802
     22          1           0       -0.974471   -1.759790   -0.254951
     23          1           0       -1.020835   -1.040145    1.361483
     24          1           0       -0.034982   -0.297750    0.090163
     25          6           0       -4.726823    0.188495   -0.260891
     26          6           0       -6.063652   -0.503044    0.008642
     27          6           0       -7.263955    0.348946   -0.405097
     28          1           0       -4.701689    1.145502    0.278462
     29          1           0       -4.655417    0.430419   -1.330152
     30          1           0       -6.131802   -0.743523    1.077353
     31          1           0       -6.085700   -1.459103   -0.529949
     32          1           0       -7.223416    0.577876   -1.474933
     33          1           0       -7.269780    1.297523    0.141501
     34          1           0       -8.209268   -0.164519   -0.203614
 ---------------------------------------------------------------------

 SCF Done:  E(RHF) =  -669.534814037     A.U. after   15 cycles
 E2 =    -0.2092529277D+01 EUMP2 =    -0.67162734331455D+03

 The electronic state is 1-A.
 Alpha  occ. eigenvalues --  -20.60854 -20.60837 -15.85877 -11.31184 -11.27773
 Alpha  occ. eigenvalues --  -11.27723 -11.27508 -11.26763 -11.26740 -11.21420
 Alpha  occ. eigenvalues --  -11.21268 -11.21170 -11.21111 -11.20930 -11.20893
 Alpha  occ. eigenvalues --   -1.59911  -1.39467  -1.19373  -1.08775  -1.08198
 Alpha  occ. eigenvalues --   -1.04768  -1.03315  -0.95823  -0.95596  -0.86858
 Alpha  occ. eigenvalues --   -0.86152  -0.82445  -0.79395  -0.78006  -0.77495
 Alpha  occ. eigenvalues --   -0.72100  -0.71238  -0.70490  -0.65022  -0.64838
 Alpha  occ. eigenvalues --   -0.64764  -0.62149  -0.60708  -0.59151  -0.57397
 Alpha  occ. eigenvalues --   -0.55290  -0.55084  -0.53269  -0.52901  -0.52286
 Alpha  occ. eigenvalues --   -0.52201  -0.49746  -0.48864  -0.48853  -0.47701
 Alpha  occ. eigenvalues --   -0.46400  -0.45558  -0.45464  -0.44874  -0.43556
 Alpha  occ. eigenvalues --   -0.37344  -0.36309
 Alpha virt. eigenvalues --    0.05020   0.11220   0.16483   0.21275   0.23094
 Alpha virt. eigenvalues --    0.24445   0.26564   0.27040   0.27803   0.27930
 Alpha virt. eigenvalues --    0.28892   0.30950   0.31518   0.32065   0.32171

 Mulliken charges:
               1
     1  C   -0.170517
     2  C   -0.218836
     3  C   -0.170691
     4  C    0.158751
     5  C   -0.172399
     6  C   -0.219510
     7  H    0.225650
     8  H    0.223342
     9  H    0.275490
    10  H    0.279720
    11  H    0.224047
    12  N    0.488369
    13  O   -0.460305
    14  O   -0.459503
    15  C   -0.298723
    16  C   -0.299050
    17  C   -0.481100
    18  H    0.148456
    19  H    0.146766
    20  H    0.161665
    21  H    0.152102
    22  H    0.150106
    23  H    0.148925
    24  H    0.166687
    25  C   -0.298442
    26  C   -0.299389
    27  C   -0.475643
    28  H    0.151756
    29  H    0.149767
    30  H    0.151415
    31  H    0.150608
    32  H    0.155136
    33  H    0.155998
    34  H    0.159351
 Sum of Mulliken charges =  -0.00000

 Dipole moment (field-independent basis, Debye):
    X=              1.9646    Y=             -4.7224    Z=             -0.5947  Tot=              5.1493
 Quadrupole moment (field-independent basis, Debye-Ang):
   XX=            -82.5389   YY=            -98.8392   ZZ=            -91.9164
   XY=            -13.2304   XZ=             -4.6270   YZ=             -1.4315

 Normal termination of Gaussian 16 at Wed May  5 23:52:26 2021.
