 Gaussian 16, Revision A.03,
 Gaussian 16:  EM64L-G16RevA.03 25-Dec-2016

 -------------
 #p 6-31g* mp2
 -------------

 ------------------------------------------------------
 Input file generated by CHIRIPA (05-May-2021 14:51:14)
 ------------------------------------------------------
 Symbolic Z-matrix:
 Charge =  0 Multiplicity = 1

                         Standard orientation:
 ---------------------------------------------------------------------
 Center     Atomic      Atomic             Coordinates (Angstroms)
 Number     Number       Type             X           Y           Z
 ---------------------------------------------------------------------
      1          6           0        4.764139    0.383097    0.262915
      2          6           0        4.890226    1.721759   -0.465145
      3          6           0        6.173374    2.471560   -0.105806
      4          1           0        4.796926    0.558042    1.347011
      5          1           0        5.635037   -0.241587    0.020630
      6          1           0        4.018662    2.343200   -0.222653
      7          1           0        4.856942    1.543625   -1.547631
      8          1           0        7.053777    1.874143   -0.363845
      9          1           0        6.210733    2.678261    0.968661
     10          1           0        6.243108    3.425677   -0.637461
     11          6           0        3.486510   -0.378274   -0.085950
     12          6           0        3.360423   -1.716936    0.642110
     13          6           0        2.077275   -2.466737    0.282771
     14          1           0        2.615612    0.246409    0.156334
     15          1           0        3.453723   -0.553220   -1.170046
     16          1           0        3.393707   -1.538803    1.724596
     17          1           0        4.231987   -2.338377    0.399618
     18          1           0        2.039916   -2.673438   -0.791696
     19          1           0        1.196872   -1.869320    0.540810
     20          1           0        2.007541   -3.420855    0.814426
     21          6           0       -3.887073   -0.719245   -0.201696
     22          6           0       -2.367051   -0.842646   -0.312561
     23          6           0       -1.905810   -2.282720   -0.538923
     24          1           0       -4.240840   -1.353003    0.623013
     25          1           0       -4.347751   -1.113006   -1.118277
     26          1           0       -1.909316   -0.447498    0.603382
     27          1           0       -2.016839   -0.208372   -1.136978
     28          1           0       -2.335273   -2.684113   -1.462528
     29          1           0       -2.227138   -2.924598    0.287721
     30          1           0       -0.815951   -2.347909   -0.615214
     31          6           0       -4.363577    0.714422    0.024730
     32          6           0       -5.883598    0.837824    0.135596
     33          6           0       -6.344839    2.277897    0.361959
     34          1           0       -3.902898    1.108183    0.941313
     35          1           0       -4.009808    1.348180   -0.799978
     36          1           0       -6.233810    0.203550    0.960014
     37          1           0       -6.341333    0.442676   -0.780348
     38          1           0       -6.023510    2.919775   -0.464686
     39          1           0       -5.915376    2.679291    1.285564
     40          1           0       -7.434697    2.343087    0.438249
 ---------------------------------------------------------------------

 SCF Done:  E(RHF) =  -470.733053169     A.U. after   11 cycles
 E2 =    -0.1582426349D+01 EUMP2 =    -0.47231547951798D+03

 The electronic state is 1-A.
 Alpha  occ. eigenvalues --  -11.21617 -11.21606 -11.21585 -11.21559 -11.21414
 Alpha  occ. eigenvalues --  -11.21377 -11.21355 -11.21316 -11.21092 -11.21075
 Alpha  occ. eigenvalues --  -11.21060 -11.20911  -1.08443  -1.08396  -1.03555
 Alpha  occ. eigenvalues --   -1.03478  -0.96031  -0.95901  -0.87075  -0.86893
 Alpha  occ. eigenvalues --   -0.79644  -0.79521  -0.78254  -0.78212  -0.65075
 Alpha  occ. eigenvalues --   -0.65026  -0.60968  -0.60870  -0.59383  -0.59321
 Alpha  occ. eigenvalues --   -0.57753  -0.57415  -0.55308  -0.55191  -0.52902
 Alpha  occ. eigenvalues --   -0.52646  -0.52437  -0.52105  -0.49942  -0.49856
 Alpha  occ. eigenvalues --   -0.48025  -0.47744  -0.46634  -0.46589  -0.45794
 Alpha  occ. eigenvalues --   -0.45750  -0.45718  -0.45680  -0.43818  -0.43687
 Alpha virt. eigenvalues --    0.22188   0.22994   0.23519   0.24793   0.26471
 Alpha virt. eigenvalues --    0.26702   0.26798   0.27517   0.27685   0.28961
 Alpha virt. eigenvalues --    0.30797   0.31042   0.31465   0.31775   0.32156

 Mulliken charges:
               1
     1  C   -0.298279
     2  C   -0.299669
     3  C   -0.475714
     4  H    0.149654
     5  H    0.149556
     6  H    0.152018
     7  H    0.151940
     8  H    0.155185
     9  H    0.155183
    10  H    0.160280
    11  C   -0.298449
    12  C   -0.300062
    13  C   -0.479168
    14  H    0.149739
    15  H    0.149617
    16  H    0.151984
    17  H    0.151984
    18  H    0.155195
    19  H    0.158785
    20  H    0.161079
    21  C   -0.298065
    22  C   -0.299829
    23  C   -0.483806
    24  H    0.149584
    25  H    0.149618
    26  H    0.150744
    27  H    0.151777
    28  H    0.154316
    29  H    0.154403
    30  H    0.170829
    31  C   -0.298212
    32  C   -0.299622
    33  C   -0.475679
    34  H    0.149246
    35  H    0.149561
    36  H    0.151910
    37  H    0.151934
    38  H    0.155143
    39  H    0.155085
    40  H    0.160205
 Sum of Mulliken charges =  -0.00000

 Dipole moment (field-independent basis, Debye):
    X=              0.0398    Y=             -0.0133    Z=              0.0005  Tot=              0.0420
 Quadrupole moment (field-independent basis, Debye-Ang):
   XX=            -85.6897   YY=            -85.9601   ZZ=            -83.1924
   XY=             -0.3867   XZ=             -0.3753   YZ=             -0.0590

 Normal termination of Gaussian 16 at Wed May  5 15:23:34 2021.
