 Gaussian 16, Revision A.03,
 Gaussian 16:  EM64L-G16RevA.03 25-Dec-2016

 -------------
 #p 6-31g* mp2
 -------------

 ------------------------------------------------------
 Input file generated by CHIRIPA (05-May-2021 14:57:21)
 ------------------------------------------------------
 Symbolic Z-matrix:
 Charge =  0 Multiplicity = 1

                         Standard orientation:
 ---------------------------------------------------------------------
 Center     Atomic      Atomic             Coordinates (Angstroms)
 Number     Number       Type             X           Y           Z
 ---------------------------------------------------------------------
      1          6           0        3.094575   -2.259329    0.291282
      2          6           0        2.823771   -1.437534    1.390299
      3          6           0        2.717415   -0.052538    1.232110
      4          6           0        2.888357    0.479403   -0.045038
      5          6           0        3.159017   -0.312987   -1.159557
      6          6           0        3.261040   -1.695427   -0.977901
      7          1           0        3.175512   -3.334234    0.423281
      8          1           0        2.694021   -1.872704    2.377131
      9          1           0        2.508519    0.606949    2.065691
     10          1           0        3.283399    0.149941   -2.130971
     11          1           0        3.471429   -2.331203   -1.833220
     12          7           0        2.778056    1.944283   -0.224927
     13          8           0        2.932843    2.388332   -1.360488
     14          8           0        2.538904    2.620670    0.773043
     15          6           0       -4.853820    1.366299   -0.002515
     16          6           0       -5.029355    0.047504   -0.434359
     17          6           0       -3.957488   -0.850057   -0.428766
     18          6           0       -2.718280   -0.393068    0.017121
     19          6           0       -2.511726    0.914673    0.453513
     20          6           0       -3.597780    1.794918    0.439264
     21          1           0       -5.691983    2.056820   -0.010222
     22          1           0       -6.003684   -0.288137   -0.777981
     23          1           0       -4.065442   -1.876499   -0.757672
     24          1           0       -1.528562    1.220075    0.790466
     25          1           0       -3.458528    2.818537    0.775207
     26          7           0       -1.576032   -1.334110    0.027623
     27          8           0       -0.494340   -0.906865    0.425168
     28          8           0       -1.784059   -2.481124   -0.361887
 ---------------------------------------------------------------------

 SCF Done:  E(RHF) =  -868.338854026     A.U. after   16 cycles
 E2 =    -0.2600090289D+01 EUMP2 =    -0.87093894431578D+03

 The electronic state is 1-A.
 Alpha  occ. eigenvalues --  -20.60972 -20.60967 -20.60028 -20.60008 -15.86006
 Alpha  occ. eigenvalues --  -15.85055 -11.31199 -11.29956 -11.27775 -11.27708
 Alpha  occ. eigenvalues --  -11.27466 -11.26754 -11.26685 -11.26537 -11.26500
 Alpha  occ. eigenvalues --  -11.26175 -11.25473 -11.25411  -1.60049  -1.59104
 Alpha  occ. eigenvalues --   -1.39608  -1.38672  -1.19359  -1.18081  -1.08790
 Alpha  occ. eigenvalues --   -1.07579  -1.04729  -1.03461  -0.95654  -0.94500
 Alpha  occ. eigenvalues --   -0.86139  -0.84910  -0.82490  -0.81379  -0.77557
 Alpha  occ. eigenvalues --   -0.76472  -0.72259  -0.71364  -0.71301  -0.70468
 Alpha  occ. eigenvalues --   -0.70404  -0.69276  -0.65015  -0.64728  -0.63790
 Alpha  occ. eigenvalues --   -0.63535  -0.62074  -0.60879  -0.55247  -0.54021
 Alpha  occ. eigenvalues --   -0.53077  -0.52818  -0.51740  -0.51622  -0.49007
 Alpha  occ. eigenvalues --   -0.48924  -0.48070  -0.48010  -0.45054  -0.44184
 Alpha  occ. eigenvalues --   -0.37339  -0.36326  -0.35981  -0.34957
 Alpha virt. eigenvalues --    0.04951   0.06070   0.11327   0.12644   0.16469
 Alpha virt. eigenvalues --    0.17703   0.21489   0.22557   0.27413   0.28253
 Alpha virt. eigenvalues --    0.28475   0.29416   0.31025   0.31993   0.32584

 Mulliken charges:
               1
     1  C   -0.162041
     2  C   -0.204726
     3  C   -0.162000
     4  C    0.161488
     5  C   -0.171128
     6  C   -0.215451
     7  H    0.222927
     8  H    0.218891
     9  H    0.268097
    10  H    0.269888
    11  H    0.219026
    12  N    0.487173
    13  O   -0.464600
    14  O   -0.468185
    15  C   -0.170416
    16  C   -0.218711
    17  C   -0.171287
    18  C    0.157195
    19  C   -0.171014
    20  C   -0.218629
    21  H    0.226357
    22  H    0.223110
    23  H    0.274125
    24  H    0.278806
    25  H    0.227312
    26  N    0.491728
    27  O   -0.464508
    28  O   -0.463429
 Sum of Mulliken charges =  -0.00000

 Dipole moment (field-independent basis, Debye):
    X=             -3.8402    Y=             -1.9939    Z=              0.6817  Tot=              4.3804
 Quadrupole moment (field-independent basis, Debye-Ang):
   XX=            -80.5636   YY=           -110.8484   ZZ=           -100.4408
   XY=            -21.0177   XZ=              2.2374   YZ=              2.6593

 Normal termination of Gaussian 16 at Thu May  6 11:10:53 2021.
