 Gaussian 16, Revision A.03,
 Gaussian 16:  EM64L-G16RevA.03 25-Dec-2016

 -------------
 #p 6-31g* mp2
 -------------

 ------------------------------------------------------
 Input file generated by CHIRIPA (05-May-2021 14:55:22)
 ------------------------------------------------------
 Symbolic Z-matrix:
 Charge =  0 Multiplicity = 1

                         Standard orientation:
 ---------------------------------------------------------------------
 Center     Atomic      Atomic             Coordinates (Angstroms)
 Number     Number       Type             X           Y           Z
 ---------------------------------------------------------------------
      1          6           0        2.651781    2.153226   -0.044037
      2          6           0        2.070223    0.956677    0.387914
      3          6           0        2.804287   -0.233125    0.379523
      4          6           0        4.123388   -0.189854   -0.069243
      5          6           0        4.730884    0.986427   -0.505820
      6          6           0        3.977917    2.164263   -0.488741
      7          1           0        2.074201    3.072845   -0.034144
      8          1           0        1.040529    0.945121    0.733804
      9          1           0        2.378838   -1.173457    0.708442
     10          1           0        5.759442    0.966494   -0.845069
     11          1           0        4.432159    3.092051   -0.824774
     12          7           0        4.910514   -1.443111   -0.082725
     13          8           0        6.070865   -1.378434   -0.482774
     14          8           0        4.352208   -2.466358    0.307012
     15          6           0       -5.691911   -0.518189    0.072553
     16          6           0       -6.939953    0.025183   -0.623954
     17          6           0       -8.091686   -0.980285   -0.642376
     18          1           0       -5.369002   -1.438549   -0.433030
     19          1           0       -5.949284   -0.801232    1.102621
     20          1           0       -6.679981    0.308406   -1.651968
     21          1           0       -7.259816    0.944461   -0.116774
     22          1           0       -8.379307   -1.255328    0.377539
     23          1           0       -7.796178   -1.894997   -1.166379
     24          1           0       -8.973698   -0.571254   -1.144976
     25          6           0       -4.531858    0.475444    0.099020
     26          6           0       -3.283816   -0.067928    0.795527
     27          6           0       -2.132083    0.937540    0.813949
     28          1           0       -4.274484    0.758487   -0.931048
     29          1           0       -4.854767    1.395804    0.604602
     30          1           0       -2.963953   -0.987206    0.288346
     31          1           0       -3.543788   -0.351151    1.823542
     32          1           0       -2.427592    1.852252    1.337952
     33          1           0       -1.844462    1.212582   -0.205967
     34          1           0       -1.250070    0.528509    1.316548
 ---------------------------------------------------------------------

 SCF Done:  E(RHF) =  -669.535573331     A.U. after   15 cycles
 E2 =    -0.2090718977D+01 EUMP2 =    -0.67162629230780D+03

 The electronic state is 1-A.
 Alpha  occ. eigenvalues --  -20.60711 -20.60706 -15.85763 -11.31113 -11.27680
 Alpha  occ. eigenvalues --  -11.27665 -11.27407 -11.26697 -11.26628 -11.22364
 Alpha  occ. eigenvalues --  -11.22196 -11.21979 -11.21964 -11.21811 -11.21357
 Alpha  occ. eigenvalues --   -1.59787  -1.39341  -1.19279  -1.08988  -1.08677
 Alpha  occ. eigenvalues --   -1.04680  -1.04136  -0.96615  -0.95516  -0.87647
 Alpha  occ. eigenvalues --   -0.86075  -0.82349  -0.80209  -0.78758  -0.77400
 Alpha  occ. eigenvalues --   -0.71982  -0.71110  -0.70389  -0.65610  -0.64930
 Alpha  occ. eigenvalues --   -0.64706  -0.62071  -0.61517  -0.60002  -0.58199
 Alpha  occ. eigenvalues --   -0.55889  -0.55183  -0.53464  -0.53049  -0.53010
 Alpha  occ. eigenvalues --   -0.52619  -0.50534  -0.48739  -0.48738  -0.48518
 Alpha  occ. eigenvalues --   -0.47209  -0.46313  -0.46206  -0.44750  -0.44380
 Alpha  occ. eigenvalues --   -0.37261  -0.36283
 Alpha virt. eigenvalues --    0.05132   0.11362   0.16629   0.20393   0.22465
 Alpha virt. eigenvalues --    0.23747   0.25804   0.26147   0.26954   0.28196
 Alpha virt. eigenvalues --    0.28562   0.30003   0.30802   0.31436   0.32297

 Mulliken charges:
               1
     1  C   -0.173411
     2  C   -0.226270
     3  C   -0.173756
     4  C    0.158809
     5  C   -0.171460
     6  C   -0.218442
     7  H    0.226134
     8  H    0.236027
     9  H    0.275195
    10  H    0.275255
    11  H    0.223005
    12  N    0.488107
    13  O   -0.460745
    14  O   -0.460644
    15  C   -0.298979
    16  C   -0.300049
    17  C   -0.476055
    18  H    0.151195
    19  H    0.150618
    20  H    0.152332
    21  H    0.152097
    22  H    0.155777
    23  H    0.156102
    24  H    0.161242
    25  C   -0.299450
    26  C   -0.298903
    27  C   -0.482634
    28  H    0.150237
    29  H    0.150185
    30  H    0.154853
    31  H    0.154937
    32  H    0.158448
    33  H    0.156041
    34  H    0.154202
 Sum of Mulliken charges =  -0.00000

 Dipole moment (field-independent basis, Debye):
    X=             -3.0314    Y=              4.4114    Z=              0.0363  Tot=              5.3526
 Quadrupole moment (field-independent basis, Debye-Ang):
   XX=           -114.7759   YY=            -95.9142   ZZ=            -94.1169
   XY=             20.5399   XZ=             -1.6909   YZ=             -1.1061

 Normal termination of Gaussian 16 at Thu May  6 06:13:24 2021.
