 Gaussian 16, Revision A.03,
 Gaussian 16:  EM64L-G16RevA.03 25-Dec-2016

 -------------
 #p 6-31g* mp2
 -------------

 ------------------------------------------------------
 Input file generated by CHIRIPA (05-May-2021 14:55:23)
 ------------------------------------------------------
 Symbolic Z-matrix:
 Charge =  0 Multiplicity = 1

                         Standard orientation:
 ---------------------------------------------------------------------
 Center     Atomic      Atomic             Coordinates (Angstroms)
 Number     Number       Type             X           Y           Z
 ---------------------------------------------------------------------
      1          6           0       -1.564958    2.136127    0.562102
      2          6           0       -2.893365    2.502402    0.321895
      3          6           0       -3.849572    1.534670   -0.000146
      4          6           0       -3.440790    0.203967   -0.073744
      5          6           0       -2.124938   -0.192429    0.160125
      6          6           0       -1.185653    0.792250    0.480594
      7          1           0       -0.828726    2.894466    0.811660
      8          1           0       -3.190793    3.545313    0.384491
      9          1           0       -4.884750    1.790463   -0.190919
     10          1           0       -1.858533   -1.240079    0.090309
     11          1           0       -0.154705    0.504885    0.666637
     12          7           0       -4.444126   -0.829498   -0.413843
     13          8           0       -4.058589   -1.995074   -0.472421
     14          8           0       -5.597080   -0.454383   -0.615394
     15          6           0        3.743488   -1.074481   -0.142566
     16          6           0        2.652647   -1.319111    0.900605
     17          6           0        1.762433   -2.513528    0.556104
     18          1           0        3.274818   -0.913564   -1.123076
     19          1           0        4.361149   -1.978456   -0.235939
     20          1           0        2.038078   -0.414464    0.992982
     21          1           0        3.123960   -1.479273    1.878781
     22          1           0        2.357743   -3.429477    0.483685
     23          1           0        1.265690   -2.358616   -0.407147
     24          1           0        0.989584   -2.670329    1.315035
     25          6           0        4.641609    0.116287    0.187858
     26          6           0        5.732449    0.360918   -0.855314
     27          6           0        6.622663    1.555335   -0.510812
     28          1           0        4.023948    1.020263    0.281231
     29          1           0        5.110278   -0.044629    1.168367
     30          1           0        5.261136    0.521081   -1.833489
     31          1           0        6.347019   -0.543729   -0.947690
     32          1           0        7.119405    1.400424    0.452439
     33          1           0        6.027354    2.471285   -0.438393
     34          1           0        7.395513    1.712136   -1.269744
 ---------------------------------------------------------------------

 SCF Done:  E(RHF) =  -669.535567430     A.U. after   15 cycles
 E2 =    -0.2091299039D+01 EUMP2 =    -0.67162686646887D+03

 The electronic state is 1-A.
 Alpha  occ. eigenvalues --  -20.60727 -20.60722 -15.85780 -11.31141 -11.27715
 Alpha  occ. eigenvalues --  -11.27694 -11.27458 -11.26734 -11.26695 -11.22578
 Alpha  occ. eigenvalues --  -11.22150 -11.22121 -11.22037 -11.21903 -11.21555
 Alpha  occ. eigenvalues --   -1.59803  -1.39356  -1.19315  -1.09158  -1.08713
 Alpha  occ. eigenvalues --   -1.04718  -1.04246  -0.96670  -0.95547  -0.87684
 Alpha  occ. eigenvalues --   -0.86119  -0.82379  -0.80321  -0.78954  -0.77426
 Alpha  occ. eigenvalues --   -0.71998  -0.71126  -0.70427  -0.65833  -0.64966
 Alpha  occ. eigenvalues --   -0.64719  -0.62175  -0.61543  -0.60041  -0.58277
 Alpha  occ. eigenvalues --   -0.55955  -0.55216  -0.53365  -0.53089  -0.53045
 Alpha  occ. eigenvalues --   -0.52825  -0.50609  -0.48772  -0.48753  -0.48606
 Alpha  occ. eigenvalues --   -0.47358  -0.46488  -0.46409  -0.44762  -0.44488
 Alpha  occ. eigenvalues --   -0.37302  -0.36320
 Alpha virt. eigenvalues --    0.05105   0.11330   0.16592   0.18892   0.22661
 Alpha virt. eigenvalues --    0.23639   0.25257   0.26141   0.26674   0.28418
 Alpha virt. eigenvalues --    0.29365   0.29831   0.31085   0.31271   0.32146

 Mulliken charges:
               1
     1  C   -0.173297
     2  C   -0.218526
     3  C   -0.171152
     4  C    0.159095
     5  C   -0.175528
     6  C   -0.227348
     7  H    0.225714
     8  H    0.223184
     9  H    0.275413
    10  H    0.277479
    11  H    0.236547
    12  N    0.488044
    13  O   -0.460299
    14  O   -0.460739
    15  C   -0.298654
    16  C   -0.304836
    17  C   -0.480361
    18  H    0.150862
    19  H    0.153630
    20  H    0.142619
    21  H    0.157057
    22  H    0.162379
    23  H    0.155705
    24  H    0.161292
    25  C   -0.297928
    26  C   -0.300281
    27  C   -0.475931
    28  H    0.145401
    29  H    0.151289
    30  H    0.152807
    31  H    0.153942
    32  H    0.156023
    33  H    0.154144
    34  H    0.162253
 Sum of Mulliken charges =  -0.00000

 Dipole moment (field-independent basis, Debye):
    X=              3.7540    Y=              3.5327    Z=              1.1794  Tot=              5.2880
 Quadrupole moment (field-independent basis, Debye-Ang):
   XX=           -116.2385   YY=            -91.0331   ZZ=            -95.5397
   XY=            -16.0954   XZ=             -3.9405   YZ=             -0.7417

 Normal termination of Gaussian 16 at Thu May  6 19:14:15 2021.
