 Gaussian 16, Revision A.03,
 Gaussian 16:  EM64L-G16RevA.03 25-Dec-2016

 -------------
 #p 6-31g* mp2
 -------------

 ------------------------------------------------------
 Input file generated by CHIRIPA (05-May-2021 14:57:22)
 ------------------------------------------------------
 Symbolic Z-matrix:
 Charge =  0 Multiplicity = 1

                         Standard orientation:
 ---------------------------------------------------------------------
 Center     Atomic      Atomic             Coordinates (Angstroms)
 Number     Number       Type             X           Y           Z
 ---------------------------------------------------------------------
      1          6           0       -4.596070    0.641896   -2.058291
      2          6           0       -5.333333    0.507661   -0.877214
      3          6           0       -4.715570    0.075614    0.300178
      4          6           0       -3.352728   -0.214853    0.260410
      5          6           0       -2.591112   -0.091034   -0.900581
      6          6           0       -3.229721    0.342648   -2.066191
      7          1           0       -5.084060    0.978155   -2.968341
      8          1           0       -6.394598    0.739350   -0.868128
      9          1           0       -5.262456   -0.037062    1.228423
     10          1           0       -1.534667   -0.329479   -0.878552
     11          1           0       -2.654649    0.445979   -2.981975
     12          7           0       -2.687695   -0.673107    1.500625
     13          8           0       -1.485784   -0.922688    1.439344
     14          8           0       -3.380946   -0.774027    2.510504
     15          6           0        4.094340   -2.194567   -0.776721
     16          6           0        2.769238   -1.901168   -0.438278
     17          6           0        2.407659   -0.611502   -0.037569
     18          6           0        3.401233    0.364959    0.013669
     19          6           0        4.729963    0.103746   -0.317291
     20          6           0        5.068756   -1.192940   -0.715255
     21          1           0        4.366373   -3.199138   -1.086935
     22          1           0        2.010392   -2.677059   -0.485088
     23          1           0        1.389309   -0.356915    0.229947
     24          1           0        5.464258    0.898130   -0.260882
     25          1           0        6.098633   -1.417920   -0.977517
     26          7           0        3.030508    1.733987    0.436429
     27          8           0        3.924557    2.576572    0.473340
     28          8           0        1.852903    1.938523    0.722871
 ---------------------------------------------------------------------

 SCF Done:  E(RHF) =  -868.338759227     A.U. after   16 cycles
 E2 =    -0.2599144207D+01 EUMP2 =    -0.87093790343427D+03

 The electronic state is 1-A.
 Alpha  occ. eigenvalues --  -20.60972 -20.60946 -20.60379 -20.60362 -15.86005
 Alpha  occ. eigenvalues --  -15.85425 -11.31261 -11.30763 -11.27864 -11.27800
 Alpha  occ. eigenvalues --  -11.27537 -11.27380 -11.27245 -11.27118 -11.26819
 Alpha  occ. eigenvalues --  -11.26800 -11.26400 -11.26317  -1.60011  -1.59452
 Alpha  occ. eigenvalues --   -1.39576  -1.39003  -1.19421  -1.18948  -1.08832
 Alpha  occ. eigenvalues --   -1.08358  -1.04816  -1.04338  -0.95691  -0.95188
 Alpha  occ. eigenvalues --   -0.86222  -0.85742  -0.82537  -0.82012  -0.77605
 Alpha  occ. eigenvalues --   -0.77047  -0.72242  -0.71642  -0.71310  -0.70778
 Alpha  occ. eigenvalues --   -0.70544  -0.70053  -0.65086  -0.64828  -0.64599
 Alpha  occ. eigenvalues --   -0.64337  -0.62187  -0.61655  -0.55322  -0.54866
 Alpha  occ. eigenvalues --   -0.53136  -0.52920  -0.52689  -0.52418  -0.48992
 Alpha  occ. eigenvalues --   -0.48956  -0.48409  -0.48391  -0.44998  -0.44414
 Alpha  occ. eigenvalues --   -0.37385  -0.36955  -0.36406  -0.35948
 Alpha virt. eigenvalues --    0.04946   0.05457   0.11248   0.11689   0.16458
 Alpha virt. eigenvalues --    0.16944   0.20376   0.22060   0.25370   0.27592
 Alpha virt. eigenvalues --    0.28171   0.29327   0.30779   0.31492   0.31888

 Mulliken charges:
               1
     1  C   -0.170158
     2  C   -0.218356
     3  C   -0.170226
     4  C    0.159428
     5  C   -0.166724
     6  C   -0.218441
     7  H    0.226238
     8  H    0.224052
     9  H    0.276090
    10  H    0.270498
    11  H    0.223962
    12  N    0.492770
    13  O   -0.470251
    14  O   -0.456930
    15  C   -0.171038
    16  C   -0.221219
    17  C   -0.180173
    18  C    0.157601
    19  C   -0.171076
    20  C   -0.219279
    21  H    0.224074
    22  H    0.225463
    23  H    0.291678
    24  H    0.274129
    25  H    0.221698
    26  N    0.487226
    27  O   -0.462885
    28  O   -0.458152
 Sum of Mulliken charges =  -0.00000

 Dipole moment (field-independent basis, Debye):
    X=             -1.3108    Y=             -3.1852    Z=             -5.7947  Tot=              6.7411
 Quadrupole moment (field-independent basis, Debye-Ang):
   XX=            -72.0840   YY=           -110.1798   ZZ=           -107.0707
   XY=            -20.0804   XZ=              6.1682   YZ=              0.6637

 Normal termination of Gaussian 16 at Fri May  7 06:25:44 2021.
