 Gaussian 16, Revision A.03,
 Gaussian 16:  EM64L-G16RevA.03 25-Dec-2016

 -------------
 #p 6-31g* mp2
 -------------

 ------------------------------------------------------
 Input file generated by CHIRIPA (05-May-2021 14:51:08)
 ------------------------------------------------------
 Symbolic Z-matrix:
 Charge =  0 Multiplicity = 1

                         Standard orientation:
 ---------------------------------------------------------------------
 Center     Atomic      Atomic             Coordinates (Angstroms)
 Number     Number       Type             X           Y           Z
 ---------------------------------------------------------------------
      1          6           0        2.261890   -0.385276   -0.417707
      2          6           0        2.806282   -1.681079   -1.019800
      3          6           0        1.714118   -2.721694   -1.268987
      4          1           0        1.749270   -0.614229    0.526617
      5          1           0        1.502211    0.033448   -1.092210
      6          1           0        3.565700   -2.096508   -0.345026
      7          1           0        3.317831   -1.448990   -1.962704
      8          1           0        0.960104   -2.330913   -1.959894
      9          1           0        1.209381   -2.982110   -0.333025
     10          1           0        2.125326   -3.640037   -1.699585
     11          6           0        3.341734    0.664821   -0.162837
     12          6           0        2.797341    1.960624    0.439257
     13          6           0        3.889505    3.001239    0.688443
     14          1           0        4.101412    0.246098    0.511666
     15          1           0        3.854353    0.893774   -1.107160
     16          1           0        2.285792    1.728535    1.382161
     17          1           0        2.037924    2.376053   -0.235517
     18          1           0        4.394243    3.261655   -0.247518
     19          1           0        4.643520    2.610458    1.379351
     20          1           0        3.478297    3.919582    1.119041
     21          6           0       -2.920116    0.559434    0.006462
     22          6           0       -4.364343    0.798141   -0.435365
     23          6           0       -4.585264    2.201408   -1.000898
     24          1           0       -2.646067    1.308220    0.762214
     25          1           0       -2.250696    0.720204   -0.849940
     26          1           0       -5.030956    0.635617    0.421273
     27          1           0       -4.635047    0.048579   -1.190013
     28          1           0       -3.943965    2.371121   -1.871837
     29          1           0       -4.342123    2.961494   -0.251396
     30          1           0       -5.624385    2.350464   -1.310525
     31          6           0       -2.683508   -0.838979    0.574080
     32          6           0       -1.239281   -1.077685    1.015909
     33          6           0       -1.018359   -2.480954    1.581442
     34          1           0       -3.352926   -0.999749    1.430483
     35          1           0       -2.957557   -1.587765   -0.181671
     36          1           0       -0.968576   -0.328125    1.770557
     37          1           0       -0.572668   -0.915163    0.159270
     38          1           0       -1.261501   -3.241039    0.831939
     39          1           0       -1.659658   -2.650665    2.452381
     40          1           0        0.020762   -2.630009    1.891069
 ---------------------------------------------------------------------

 SCF Done:  E(RHF) =  -470.731580015     A.U. after   11 cycles
 E2 =    -0.1584962023D+01 EUMP2 =    -0.47231654203808D+03

 The electronic state is 1-A.
 Alpha  occ. eigenvalues --  -11.21595 -11.21589 -11.21580 -11.21445 -11.21383
 Alpha  occ. eigenvalues --  -11.21361 -11.21319 -11.21293 -11.21073 -11.21064
 Alpha  occ. eigenvalues --  -11.21060 -11.21020  -1.08468  -1.08351  -1.03591
 Alpha  occ. eigenvalues --   -1.03438  -0.96011  -0.95930  -0.87060  -0.86914
 Alpha  occ. eigenvalues --   -0.79682  -0.79522  -0.78446  -0.77985  -0.65095
 Alpha  occ. eigenvalues --   -0.65002  -0.61075  -0.60821  -0.59488  -0.59174
 Alpha  occ. eigenvalues --   -0.57604  -0.57560  -0.55407  -0.55120  -0.52686
 Alpha  occ. eigenvalues --   -0.52662  -0.52458  -0.52338  -0.50050  -0.49751
 Alpha  occ. eigenvalues --   -0.48068  -0.47777  -0.46695  -0.46590  -0.46102
 Alpha  occ. eigenvalues --   -0.45769  -0.45629  -0.45080  -0.43774  -0.43746
 Alpha virt. eigenvalues --    0.21209   0.23047   0.23383   0.24559   0.25507
 Alpha virt. eigenvalues --    0.26220   0.26869   0.27854   0.28482   0.29712
 Alpha virt. eigenvalues --    0.30742   0.31313   0.31510   0.31819   0.32368

 Mulliken charges:
               1
     1  C   -0.304788
     2  C   -0.298568
     3  C   -0.483655
     4  H    0.157585
     5  H    0.148531
     6  H    0.151482
     7  H    0.151561
     8  H    0.153582
     9  H    0.165222
    10  H    0.160104
    11  C   -0.297374
    12  C   -0.299589
    13  C   -0.475709
    14  H    0.149271
    15  H    0.149395
    16  H    0.151908
    17  H    0.152061
    18  H    0.155156
    19  H    0.155089
    20  H    0.160230
    21  C   -0.298019
    22  C   -0.299603
    23  C   -0.475640
    24  H    0.149704
    25  H    0.148766
    26  H    0.151960
    27  H    0.151845
    28  H    0.154925
    29  H    0.155166
    30  H    0.160186
    31  C   -0.297815
    32  C   -0.307894
    33  C   -0.479340
    34  H    0.148813
    35  H    0.149401
    36  H    0.150155
    37  H    0.164606
    38  H    0.156527
    39  H    0.156119
    40  H    0.158644
 Sum of Mulliken charges =  -0.00000

 Dipole moment (field-independent basis, Debye):
    X=              0.0148    Y=             -0.0068    Z=              0.0053  Tot=              0.0172
 Quadrupole moment (field-independent basis, Debye-Ang):
   XX=            -85.4596   YY=            -86.2353   ZZ=            -83.3600
   XY=             -0.4039   XZ=             -0.2990   YZ=              0.1786

 Normal termination of Gaussian 16 at Thu May  6 08:26:24 2021.
