 Gaussian 16, Revision A.03,
 Gaussian 16:  EM64L-G16RevA.03 25-Dec-2016

 -------------
 #p 6-31g* mp2
 -------------

 ------------------------------------------------------
 Input file generated by CHIRIPA (05-May-2021 14:51:11)
 ------------------------------------------------------
 Symbolic Z-matrix:
 Charge =  0 Multiplicity = 1

                         Standard orientation:
 ---------------------------------------------------------------------
 Center     Atomic      Atomic             Coordinates (Angstroms)
 Number     Number       Type             X           Y           Z
 ---------------------------------------------------------------------
      1          6           0        5.116123   -0.558867    0.292528
      2          6           0        6.381315   -0.431559   -0.556628
      3          6           0        7.393634   -1.543404   -0.279492
      4          1           0        5.393052   -0.547935    1.355607
      5          1           0        4.650948   -1.535710    0.100734
      6          1           0        6.843213    0.545317   -0.364324
      7          1           0        6.101324   -0.442602   -1.617807
      8          1           0        6.955478   -2.524469   -0.489566
      9          1           0        7.701582   -1.530937    0.771038
     10          1           0        8.290345   -1.433021   -0.897219
     11          6           0        4.094524    0.545430    0.026834
     12          6           0        2.829332    0.418121    0.875990
     13          6           0        1.817013    1.529966    0.598854
     14          1           0        4.559699    1.522273    0.218627
     15          1           0        3.817596    0.534498   -1.036245
     16          1           0        3.109323    0.429165    1.937168
     17          1           0        2.367434   -0.558754    0.683686
     18          1           0        1.509065    1.517500   -0.451676
     19          1           0        2.255169    2.511032    0.808928
     20          1           0        0.920303    1.419583    1.216580
     21          6           0       -5.023037   -0.631521   -0.119719
     22          6           0       -6.499707   -0.371966    0.180382
     23          6           0       -7.322346   -1.658494    0.257215
     24          1           0       -4.938995   -1.179368   -1.068269
     25          1           0       -4.607808   -1.287453    0.657928
     26          1           0       -6.911674    0.284403   -0.596844
     27          1           0       -6.580233    0.175493    1.128232
     28          1           0       -6.938429   -2.314774    1.044937
     29          1           0       -7.271754   -2.205246   -0.689940
     30          1           0       -8.374902   -1.449723    0.472624
     31          6           0       -4.187610    0.644959   -0.199642
     32          6           0       -2.710941    0.385403   -0.499744
     33          6           0       -1.888301    1.671932   -0.576577
     34          1           0       -4.602838    1.300890   -0.977290
     35          1           0       -4.271653    1.192805    0.748907
     36          1           0       -2.630414   -0.162056   -1.447594
     37          1           0       -2.298973   -0.270965    0.277481
     38          1           0       -1.938894    2.218684    0.370578
     39          1           0       -2.272218    2.328211   -1.364299
     40          1           0       -0.835745    1.463160   -0.791986
 ---------------------------------------------------------------------

 SCF Done:  E(RHF) =  -470.732669749     A.U. after   11 cycles
 E2 =    -0.1582526469D+01 EUMP2 =    -0.47231519621820D+03

 The electronic state is 1-A.
 Alpha  occ. eigenvalues --  -11.21604 -11.21600 -11.21581 -11.21545 -11.21408
 Alpha  occ. eigenvalues --  -11.21370 -11.21349 -11.21309 -11.21073 -11.21056
 Alpha  occ. eigenvalues --  -11.21048 -11.20908  -1.08435  -1.08390  -1.03548
 Alpha  occ. eigenvalues --   -1.03468  -0.96036  -0.95880  -0.87093  -0.86858
 Alpha  occ. eigenvalues --   -0.79653  -0.79492  -0.78247  -0.78204  -0.65070
 Alpha  occ. eigenvalues --   -0.65023  -0.60978  -0.60881  -0.59481  -0.59184
 Alpha  occ. eigenvalues --   -0.57592  -0.57558  -0.55301  -0.55202  -0.52930
 Alpha  occ. eigenvalues --   -0.52458  -0.52405  -0.52251  -0.49915  -0.49843
 Alpha  occ. eigenvalues --   -0.47942  -0.47828  -0.46624  -0.46579  -0.45789
 Alpha  occ. eigenvalues --   -0.45747  -0.45711  -0.45675  -0.43880  -0.43584
 Alpha virt. eigenvalues --    0.22118   0.23029   0.23575   0.25084   0.26462
 Alpha virt. eigenvalues --    0.26616   0.27093   0.27484   0.27532   0.28780
 Alpha virt. eigenvalues --    0.29777   0.31228   0.31745   0.31940   0.32158

 Mulliken charges:
               1
     1  C   -0.298266
     2  C   -0.299652
     3  C   -0.475709
     4  H    0.149655
     5  H    0.149520
     6  H    0.151949
     7  H    0.151935
     8  H    0.155183
     9  H    0.155176
    10  H    0.160266
    11  C   -0.298573
    12  C   -0.300028
    13  C   -0.478648
    14  H    0.149612
    15  H    0.149712
    16  H    0.151885
    17  H    0.151881
    18  H    0.156277
    19  H    0.155391
    20  H    0.163483
    21  C   -0.298173
    22  C   -0.299598
    23  C   -0.475672
    24  H    0.149489
    25  H    0.149347
    26  H    0.151897
    27  H    0.151891
    28  H    0.155119
    29  H    0.155116
    30  H    0.160182
    31  C   -0.298295
    32  C   -0.299537
    33  C   -0.481244
    34  H    0.149480
    35  H    0.149481
    36  H    0.151288
    37  H    0.151305
    38  H    0.154242
    39  H    0.153881
    40  H    0.168750
 Sum of Mulliken charges =  -0.00000

 Dipole moment (field-independent basis, Debye):
    X=              0.0401    Y=              0.0128    Z=              0.0067  Tot=              0.0426
 Quadrupole moment (field-independent basis, Debye-Ang):
   XX=            -85.9884   YY=            -85.7175   ZZ=            -83.2369
   XY=              0.2791   XZ=              0.4955   YZ=              0.5237

 Normal termination of Gaussian 16 at Thu May  6 03:51:30 2021.
