 Gaussian 16, Revision A.03,
 Gaussian 16:  EM64L-G16RevA.03 25-Dec-2016

 -------------
 #p 6-31g* mp2
 -------------

 ------------------------------------------------------
 Input file generated by CHIRIPA (05-May-2021 14:57:22)
 ------------------------------------------------------
 Symbolic Z-matrix:
 Charge =  0 Multiplicity = 1

                         Standard orientation:
 ---------------------------------------------------------------------
 Center     Atomic      Atomic             Coordinates (Angstroms)
 Number     Number       Type             X           Y           Z
 ---------------------------------------------------------------------
      1          6           0       -5.132167   -0.537357    0.615315
      2          6           0       -4.114455   -1.470531    0.838854
      3          6           0       -2.834152   -1.263547    0.316813
      4          6           0       -2.605542   -0.107246   -0.427497
      5          6           0       -3.598698    0.841071   -0.667549
      6          6           0       -4.871500    0.613437   -0.135849
      7          1           0       -6.123825   -0.706168    1.024601
      8          1           0       -4.314017   -2.365153    1.421839
      9          1           0       -2.027906   -1.969590    0.474574
     10          1           0       -3.369456    1.723387   -1.252686
     11          1           0       -5.659944    1.339870   -0.311055
     12          7           0       -1.254112    0.122809   -0.985272
     13          8           0       -1.078296    1.149522   -1.637642
     14          8           0       -0.396268   -0.727942   -0.759524
     15          6           0        4.047687   -1.863910   -0.582354
     16          6           0        4.226283   -0.607575   -1.170782
     17          6           0        3.555746    0.512548   -0.670529
     18          6           0        2.710386    0.339392    0.424310
     19          6           0        2.511685   -0.899184    1.032370
     20          6           0        3.192465   -2.005456    0.515409
     21          1           0        4.572554   -2.728668   -0.977453
     22          1           0        4.889836   -0.494678   -2.023422
     23          1           0        3.675690    1.496755   -1.106838
     24          1           0        1.843675   -0.980413    1.881242
     25          1           0        3.051845   -2.979926    0.974405
     26          7           0        1.995097    1.517885    0.962751
     27          8           0        1.255860    1.338897    1.928219
     28          8           0        2.187233    2.598259    0.409116
 ---------------------------------------------------------------------

 SCF Done:  E(RHF) =  -868.338268051     A.U. after   16 cycles
 E2 =    -0.2600854383D+01 EUMP2 =    -0.87093912243458D+03

 The electronic state is 1-A.
 Alpha  occ. eigenvalues --  -20.60655 -20.60598 -20.59599 -20.59542 -15.85655
 Alpha  occ. eigenvalues --  -15.84617 -11.30942 -11.29788 -11.27551 -11.27481
 Alpha  occ. eigenvalues --  -11.27264 -11.26549 -11.26503 -11.26449 -11.26413
 Alpha  occ. eigenvalues --  -11.26249 -11.25483 -11.25457  -1.59690  -1.58630
 Alpha  occ. eigenvalues --   -1.39248  -1.38199  -1.19113  -1.17991  -1.08528
 Alpha  occ. eigenvalues --   -1.07449  -1.04518  -1.03432  -0.95379  -0.94317
 Alpha  occ. eigenvalues --   -0.85922  -0.84858  -0.82222  -0.81189  -0.77276
 Alpha  occ. eigenvalues --   -0.76226  -0.71905  -0.71047  -0.70878  -0.70247
 Alpha  occ. eigenvalues --   -0.69832  -0.69223  -0.64782  -0.64538  -0.63715
 Alpha  occ. eigenvalues --   -0.63518  -0.61877  -0.60830  -0.55040  -0.54026
 Alpha  occ. eigenvalues --   -0.52834  -0.52626  -0.51709  -0.51595  -0.48653
 Alpha  occ. eigenvalues --   -0.48621  -0.47626  -0.47607  -0.44704  -0.43629
 Alpha  occ. eigenvalues --   -0.37091  -0.36112  -0.35918  -0.34968
 Alpha virt. eigenvalues --    0.05260   0.06367   0.11547   0.12673   0.16782
 Alpha virt. eigenvalues --    0.17855   0.21609   0.22498   0.27481   0.28252
 Alpha virt. eigenvalues --    0.28583   0.29404   0.31131   0.31966   0.32707

 Mulliken charges:
               1
     1  C   -0.170364
     2  C   -0.218240
     3  C   -0.168873
     4  C    0.161853
     5  C   -0.168658
     6  C   -0.218351
     7  H    0.224919
     8  H    0.221598
     9  H    0.270947
    10  H    0.277294
    11  H    0.223543
    12  N    0.490840
    13  O   -0.455395
    14  O   -0.469373
    15  C   -0.169702
    16  C   -0.218471
    17  C   -0.165982
    18  C    0.172626
    19  C   -0.156369
    20  C   -0.218226
    21  H    0.219814
    22  H    0.218548
    23  H    0.273397
    24  H    0.267781
    25  H    0.215726
    26  N    0.489259
    27  O   -0.470225
    28  O   -0.459917
 Sum of Mulliken charges =  -0.00000

 Dipole moment (field-independent basis, Debye):
    X=             -2.4774    Y=             -4.7782    Z=             -0.0716  Tot=              5.3827
 Quadrupole moment (field-independent basis, Debye-Ang):
   XX=            -66.8802   YY=           -103.0960   ZZ=           -106.3295
   XY=             -7.9183   XZ=             -8.5146   YZ=             -6.8389

 Normal termination of Gaussian 16 at Thu May  6 17:56:13 2021.
