 Gaussian 16, Revision A.03,
 Gaussian 16:  EM64L-G16RevA.03 25-Dec-2016

 -------------
 #p 6-31g* mp2
 -------------

 ------------------------------------------------------
 Input file generated by CHIRIPA (05-May-2021 14:53:15)
 ------------------------------------------------------
 Symbolic Z-matrix:
 Charge =  0 Multiplicity = 1

                         Standard orientation:
 ---------------------------------------------------------------------
 Center     Atomic      Atomic             Coordinates (Angstroms)
 Number     Number       Type             X           Y           Z
 ---------------------------------------------------------------------
      1          6           0       -1.829145    1.135937   -0.138644
      2          6           0       -1.805422    2.590196   -0.610401
      3          6           0       -0.411492    3.213819   -0.533928
      4          1           0       -1.459893    1.086321    0.894863
      5          1           0       -1.129544    0.548284   -0.749068
      6          1           0       -2.505887    3.174654   -0.000175
      7          1           0       -2.174954    2.636381   -1.642840
      8          1           0        0.294910    2.655771   -1.156969
      9          1           0       -0.037903    3.197103    0.495029
     10          1           0       -0.417509    4.253497   -0.875825
     11          6           0       -3.215755    0.498706   -0.209183
     12          6           0       -3.239477   -0.955553    0.262574
     13          6           0       -4.633407   -1.579175    0.186101
     14          1           0       -3.915356    1.086359    0.401241
     15          1           0       -3.585006    0.548323   -1.242690
     16          1           0       -2.869946   -1.001737    1.295012
     17          1           0       -2.539013   -1.540010   -0.347652
     18          1           0       -5.006996   -1.562459   -0.842856
     19          1           0       -5.339810   -1.021128    0.809142
     20          1           0       -4.627390   -2.618853    0.527998
     21          6           0        2.941921    1.645122    0.591398
     22          6           0        3.453002    0.861835   -0.448689
     23          6           0        2.922576   -0.404987   -0.710144
     24          6           0        1.876766   -0.859308    0.091832
     25          6           0        1.346018   -0.102595    1.135374
     26          6           0        1.891911    1.161260    1.378722
     27          1           0        3.359977    2.628067    0.787469
     28          1           0        4.268422    1.235040   -1.061757
     29          1           0        3.299226   -1.032291   -1.508920
     30          1           0        0.532836   -0.501682    1.729414
     31          1           0        1.493008    1.767379    2.187140
     32          7           0        1.307041   -2.198865   -0.175375
     33          8           0        0.385960   -2.576278    0.545602
     34          8           0        1.792359   -2.846033   -1.100727
 ---------------------------------------------------------------------

 SCF Done:  E(RHF) =  -669.533740745     A.U. after   15 cycles
 E2 =    -0.2095565254D+01 EUMP2 =    -0.67162930599957D+03

 The electronic state is 1-A.
 Alpha  occ. eigenvalues --  -20.60838 -20.60816 -15.85865 -11.31177 -11.27772
 Alpha  occ. eigenvalues --  -11.27726 -11.27483 -11.26764 -11.26717 -11.21760
 Alpha  occ. eigenvalues --  -11.21442 -11.21341 -11.21169 -11.21025 -11.20578
 Alpha  occ. eigenvalues --   -1.59896  -1.39449  -1.19368  -1.08768  -1.08337
 Alpha  occ. eigenvalues --   -1.04770  -1.03380  -0.95896  -0.95594  -0.86922
 Alpha  occ. eigenvalues --   -0.86150  -0.82445  -0.79492  -0.78156  -0.77449
 Alpha  occ. eigenvalues --   -0.72083  -0.71213  -0.70468  -0.65055  -0.64951
 Alpha  occ. eigenvalues --   -0.64786  -0.62124  -0.60776  -0.59285  -0.57477
 Alpha  occ. eigenvalues --   -0.55269  -0.55195  -0.53211  -0.52884  -0.52559
 Alpha  occ. eigenvalues --   -0.52249  -0.49845  -0.48849  -0.48842  -0.47727
 Alpha  occ. eigenvalues --   -0.46540  -0.45702  -0.45570  -0.44732  -0.43656
 Alpha  occ. eigenvalues --   -0.37288  -0.36242
 Alpha virt. eigenvalues --    0.05004   0.11212   0.16377   0.20383   0.23108
 Alpha virt. eigenvalues --    0.24184   0.25297   0.26734   0.27127   0.28587
 Alpha virt. eigenvalues --    0.29512   0.30510   0.31668   0.31718   0.32286

 Mulliken charges:
               1
     1  C   -0.295505
     2  C   -0.299802
     3  C   -0.473889
     4  H    0.139034
     5  H    0.151792
     6  H    0.150976
     7  H    0.153674
     8  H    0.158718
     9  H    0.145620
    10  H    0.157669
    11  C   -0.298770
    12  C   -0.301072
    13  C   -0.476260
    14  H    0.146785
    15  H    0.149856
    16  H    0.149313
    17  H    0.165945
    18  H    0.154045
    19  H    0.151288
    20  H    0.164184
    21  C   -0.168043
    22  C   -0.220042
    23  C   -0.171882
    24  C    0.156036
    25  C   -0.165753
    26  C   -0.214728
    27  H    0.226044
    28  H    0.223437
    29  H    0.275413
    30  H    0.276103
    31  H    0.222265
    32  N    0.487683
    33  O   -0.459627
    34  O   -0.460503
 Sum of Mulliken charges =  -0.00000

 Dipole moment (field-independent basis, Debye):
    X=              2.0619    Y=              4.5655    Z=              0.8957  Tot=              5.0890
 Quadrupole moment (field-independent basis, Debye-Ang):
   XX=            -86.6439   YY=           -104.0273   ZZ=            -91.2196
   XY=              6.6034   XZ=             -0.8509   YZ=              0.4473

 Normal termination of Gaussian 16 at Wed May  5 15:40:42 2021.
