 Gaussian 16, Revision A.03,
 Gaussian 16:  EM64L-G16RevA.03 25-Dec-2016

 -------------
 #p 6-31g* mp2
 -------------

 ------------------------------------------------------
 Input file generated by CHIRIPA (05-May-2021 14:53:11)
 ------------------------------------------------------
 Symbolic Z-matrix:
 Charge =  0 Multiplicity = 1

                         Standard orientation:
 ---------------------------------------------------------------------
 Center     Atomic      Atomic             Coordinates (Angstroms)
 Number     Number       Type             X           Y           Z
 ---------------------------------------------------------------------
      1          6           0        3.298412    0.685460    0.397025
      2          6           0        2.829841    2.108133    0.089731
      3          6           0        1.486490    2.441379    0.739462
      4          1           0        2.536298   -0.027127    0.053010
      5          1           0        3.375381    0.559378    1.485865
      6          1           0        2.755108    2.231921   -0.998252
      7          1           0        3.593246    2.817407    0.434344
      8          1           0        1.550851    2.345678    1.828177
      9          1           0        0.707951    1.756865    0.387441
     10          1           0        1.170468    3.463072    0.506796
     11          6           0        4.639921    0.337391   -0.245571
     12          6           0        5.108493   -1.085281    0.061722
     13          6           0        6.451844   -1.418528   -0.588008
     14          1           0        4.562952    0.463474   -1.334412
     15          1           0        5.402036    1.049979    0.098443
     16          1           0        4.345088   -1.794556   -0.282891
     17          1           0        5.183225   -1.209070    1.149705
     18          1           0        7.230383   -0.734014   -0.235987
     19          1           0        6.387483   -1.322826   -1.676723
     20          1           0        6.767866   -2.440221   -0.355342
     21          6           0       -5.223401    0.938227   -0.326206
     22          6           0       -5.285289   -0.399626    0.077327
     23          6           0       -4.115698   -1.150449    0.228557
     24          6           0       -2.895717   -0.528883   -0.033345
     25          6           0       -2.801302    0.802113   -0.436861
     26          6           0       -3.983790    1.533777   -0.581562
     27          1           0       -6.136976    1.514042   -0.441149
     28          1           0       -6.246593   -0.864747    0.276332
     29          1           0       -4.134709   -2.187882    0.539665
     30          1           0       -1.828336    1.238281   -0.627946
     31          1           0       -3.932697    2.572591   -0.895087
     32          7           0       -1.650697   -1.313604    0.123300
     33          8           0       -0.588295   -0.742797   -0.113595
     34          8           0       -1.760826   -2.484616    0.480005
 ---------------------------------------------------------------------

 SCF Done:  E(RHF) =  -669.536341466     A.U. after   15 cycles
 E2 =    -0.2091583736D+01 EUMP2 =    -0.67162792520159D+03

 The electronic state is 1-A.
 Alpha  occ. eigenvalues --  -20.60987 -20.60982 -15.86018 -11.31297 -11.27857
 Alpha  occ. eigenvalues --  -11.27851 -11.27590 -11.26859 -11.26847 -11.20840
 Alpha  occ. eigenvalues --  -11.20756 -11.20526 -11.20392 -11.20357 -11.20266
 Alpha  occ. eigenvalues --   -1.60044  -1.39602  -1.19463  -1.08875  -1.07543
 Alpha  occ. eigenvalues --   -1.04854  -1.02742  -0.95725  -0.95195  -0.86266
 Alpha  occ. eigenvalues --   -0.86215  -0.82563  -0.78812  -0.77631  -0.77309
 Alpha  occ. eigenvalues --   -0.72247  -0.71352  -0.70575  -0.65125  -0.64861
 Alpha  occ. eigenvalues --   -0.64162  -0.62210  -0.60136  -0.58567  -0.56801
 Alpha  occ. eigenvalues --   -0.55363  -0.54479  -0.53187  -0.52948  -0.51948
 Alpha  occ. eigenvalues --   -0.51620  -0.49262  -0.48990  -0.48858  -0.47120
 Alpha  occ. eigenvalues --   -0.45829  -0.45050  -0.44874  -0.44700  -0.42973
 Alpha  occ. eigenvalues --   -0.37441  -0.36452
 Alpha virt. eigenvalues --    0.04894   0.11191   0.16397   0.20934   0.23648
 Alpha virt. eigenvalues --    0.24599   0.26389   0.27479   0.27800   0.28597
 Alpha virt. eigenvalues --    0.29243   0.30496   0.31566   0.32322   0.32582

 Mulliken charges:
               1
     1  C   -0.305551
     2  C   -0.296628
     3  C   -0.488111
     4  H    0.172400
     5  H    0.147003
     6  H    0.148571
     7  H    0.147609
     8  H    0.154359
     9  H    0.172313
    10  H    0.150136
    11  C   -0.297719
    12  C   -0.299962
    13  C   -0.475253
    14  H    0.147436
    15  H    0.145370
    16  H    0.157521
    17  H    0.150998
    18  H    0.152742
    19  H    0.153863
    20  H    0.158968
    21  C   -0.170270
    22  C   -0.218773
    23  C   -0.170355
    24  C    0.156666
    25  C   -0.171278
    26  C   -0.219927
    27  H    0.226051
    28  H    0.223806
    29  H    0.275764
    30  H    0.280166
    31  H    0.224416
    32  N    0.493032
    33  O   -0.466804
    34  O   -0.458558
 Sum of Mulliken charges =  -0.00000

 Dipole moment (field-independent basis, Debye):
    X=             -4.6544    Y=              2.5527    Z=             -0.5602  Tot=              5.3379
 Quadrupole moment (field-independent basis, Debye-Ang):
   XX=            -69.8449   YY=            -95.3967   ZZ=            -94.7653
   XY=             -3.2485   XZ=              1.7423   YZ=             -1.0916

 Normal termination of Gaussian 16 at Wed May  5 21:43:07 2021.
