 Gaussian 16, Revision A.03,
 Gaussian 16:  EM64L-G16RevA.03 25-Dec-2016

 -------------
 #p 6-31g* mp2
 -------------

 ------------------------------------------------------
 Input file generated by CHIRIPA (05-May-2021 14:55:23)
 ------------------------------------------------------
 Symbolic Z-matrix:
 Charge =  0 Multiplicity = 1

                         Standard orientation:
 ---------------------------------------------------------------------
 Center     Atomic      Atomic             Coordinates (Angstroms)
 Number     Number       Type             X           Y           Z
 ---------------------------------------------------------------------
      1          6           0       -3.905738    1.145673   -1.477562
      2          6           0       -2.557819    0.922760   -1.777469
      3          6           0       -1.737442    0.226885   -0.884559
      4          6           0       -2.300474   -0.234116    0.304458
      5          6           0       -3.639741   -0.027912    0.631769
      6          6           0       -4.441453    0.670464   -0.276018
      7          1           0       -4.535777    1.687217   -2.176974
      8          1           0       -2.139067    1.290662   -2.709853
      9          1           0       -0.690665    0.040293   -1.091584
     10          1           0       -4.028632   -0.406799    1.569120
     11          1           0       -5.487923    0.842111   -0.040470
     12          7           0       -1.441857   -0.972132    1.257617
     13          8           0       -1.961985   -1.368021    2.298470
     14          8           0       -0.265004   -1.140725    0.945801
     15          6           0        2.898401   -0.368299   -0.707592
     16          6           0        3.268672   -1.806287   -0.342801
     17          6           0        2.807151   -2.819545   -1.390704
     18          1           0        1.809322   -0.297512   -0.833457
     19          1           0        3.342459   -0.118423   -1.681127
     20          1           0        2.825200   -2.052916    0.630401
     21          1           0        4.356978   -1.873617   -0.217601
     22          1           0        3.260053   -2.601337   -2.363260
     23          1           0        1.719571   -2.781654   -1.510440
     24          1           0        3.082164   -3.841005   -1.109911
     25          6           0        3.353077    0.656254    0.330334
     26          6           0        2.982807    2.094243   -0.034457
     27          6           0        3.444329    3.107500    1.013446
     28          1           0        2.909021    0.406378    1.303869
     29          1           0        4.442156    0.585467    0.456199
     30          1           0        1.894501    2.161572   -0.159656
     31          1           0        3.426279    2.340870   -1.007660
     32          1           0        4.531907    3.069610    1.133182
     33          1           0        2.991426    2.889292    1.986003
     34          1           0        3.169314    4.128961    0.732654
 ---------------------------------------------------------------------

 SCF Done:  E(RHF) =  -669.536115607     A.U. after   15 cycles
 E2 =    -0.2092561223D+01 EUMP2 =    -0.67162867682959D+03

 The electronic state is 1-A.
 Alpha  occ. eigenvalues --  -20.61005 -20.60990 -15.86034 -11.31322 -11.27879
 Alpha  occ. eigenvalues --  -11.27875 -11.27608 -11.26881 -11.26870 -11.21216
 Alpha  occ. eigenvalues --  -11.20716 -11.20686 -11.20640 -11.20593 -11.20293
 Alpha  occ. eigenvalues --   -1.60062  -1.39620  -1.19487  -1.08897  -1.07726
 Alpha  occ. eigenvalues --   -1.04878  -1.02870  -0.95747  -0.95336  -0.86366
 Alpha  occ. eigenvalues --   -0.86282  -0.82582  -0.78960  -0.77727  -0.77473
 Alpha  occ. eigenvalues --   -0.72275  -0.71373  -0.70599  -0.65162  -0.64897
 Alpha  occ. eigenvalues --   -0.64277  -0.62227  -0.60231  -0.58732  -0.56959
 Alpha  occ. eigenvalues --   -0.55385  -0.54608  -0.53211  -0.52977  -0.52070
 Alpha  occ. eigenvalues --   -0.51782  -0.49315  -0.49021  -0.48986  -0.47288
 Alpha  occ. eigenvalues --   -0.45963  -0.45121  -0.45009  -0.44914  -0.43119
 Alpha  occ. eigenvalues --   -0.37463  -0.36476
 Alpha virt. eigenvalues --    0.04871   0.11158   0.16382   0.20292   0.23211
 Alpha virt. eigenvalues --    0.24660   0.25394   0.27522   0.27936   0.28602
 Alpha virt. eigenvalues --    0.29457   0.31210   0.31722   0.32352   0.32477

 Mulliken charges:
               1
     1  C   -0.170002
     2  C   -0.222337
     3  C   -0.173493
     4  C    0.154262
     5  C   -0.169628
     6  C   -0.219015
     7  H    0.226238
     8  H    0.225118
     9  H    0.286586
    10  H    0.275895
    11  H    0.223937
    12  N    0.491637
    13  O   -0.458524
    14  O   -0.468069
    15  C   -0.304227
    16  C   -0.299895
    17  C   -0.476139
    18  H    0.157721
    19  H    0.141224
    20  H    0.169422
    21  H    0.146560
    22  H    0.148384
    23  H    0.156810
    24  H    0.159251
    25  C   -0.299265
    26  C   -0.298432
    27  C   -0.475474
    28  H    0.160998
    29  H    0.146948
    30  H    0.146110
    31  H    0.148060
    32  H    0.154991
    33  H    0.157656
    34  H    0.156691
 Sum of Mulliken charges =  -0.00000

 Dipole moment (field-independent basis, Debye):
    X=             -3.2287    Y=              2.5000    Z=             -3.1470  Tot=              5.1554
 Quadrupole moment (field-independent basis, Debye-Ang):
   XX=            -77.7049   YY=            -97.7809   ZZ=            -95.6469
   XY=             -5.3169   XZ=              4.2245   YZ=              0.2567

 Normal termination of Gaussian 16 at Thu May  6 09:25:12 2021.
