 Gaussian 16, Revision A.03,
 Gaussian 16:  EM64L-G16RevA.03 25-Dec-2016

 -------------
 #p 6-31g* mp2
 -------------

 ------------------------------------------------------
 Input file generated by CHIRIPA (05-May-2021 14:53:17)
 ------------------------------------------------------
 Symbolic Z-matrix:
 Charge =  0 Multiplicity = 1

                         Standard orientation:
 ---------------------------------------------------------------------
 Center     Atomic      Atomic             Coordinates (Angstroms)
 Number     Number       Type             X           Y           Z
 ---------------------------------------------------------------------
      1          6           0       -3.101885   -0.500497    0.178472
      2          6           0       -2.679309   -1.690680    1.040377
      3          6           0       -1.162389   -1.875964    1.089528
      4          1           0       -2.714641   -0.637932   -0.840400
      5          1           0       -2.632582    0.412343    0.570739
      6          1           0       -3.150374   -2.600793    0.647431
      7          1           0       -3.067766   -1.550489    2.057267
      8          1           0       -0.678585   -0.984665    1.501987
      9          1           0       -0.761663   -2.040937    0.084141
     10          1           0       -0.882459   -2.732246    1.711042
     11          6           0       -4.615480   -0.302303    0.119508
     12          6           0       -5.038055    0.887879   -0.742397
     13          6           0       -6.554976    1.073163   -0.791548
     14          1           0       -5.084782   -1.215143   -0.272759
     15          1           0       -5.002723   -0.164869    1.138380
     16          1           0       -4.649598    0.747688   -1.759287
     17          1           0       -4.566990    1.797992   -0.349451
     18          1           0       -6.955701    1.238136    0.213839
     19          1           0       -7.038779    0.181864   -1.204007
     20          1           0       -6.834905    1.929446   -1.413062
     21          6           0        2.201141    2.615588    0.520027
     22          6           0        3.573028    2.358081    0.429824
     23          6           0        4.035109    1.086358    0.078046
     24          6           0        3.093237    0.091046   -0.177926
     25          6           0        1.719986    0.316492   -0.096398
     26          6           0        1.280621    1.595770    0.257091
     27          1           0        1.851008    3.606428    0.793961
     28          1           0        4.290203    3.148166    0.633469
     29          1           0        5.091527    0.859551    0.000852
     30          1           0        1.029177   -0.491334   -0.305246
     31          1           0        0.214603    1.792875    0.326373
     32          7           0        3.570398   -1.259270   -0.551244
     33          8           0        2.720255   -2.119061   -0.771820
     34          8           0        4.785503   -1.432288   -0.616204
 ---------------------------------------------------------------------

 SCF Done:  E(RHF) =  -669.535208265     A.U. after   15 cycles
 E2 =    -0.2092153772D+01 EUMP2 =    -0.67162736203723D+03

 The electronic state is 1-A.
 Alpha  occ. eigenvalues --  -20.60692 -20.60687 -15.85742 -11.31071 -11.27677
 Alpha  occ. eigenvalues --  -11.27571 -11.27424 -11.26686 -11.26658 -11.22037
 Alpha  occ. eigenvalues --  -11.22027 -11.21968 -11.21817 -11.21482 -11.21415
 Alpha  occ. eigenvalues --   -1.59766  -1.39320  -1.19263  -1.08909  -1.08667
 Alpha  occ. eigenvalues --   -1.04668  -1.03957  -0.96422  -0.95500  -0.87444
 Alpha  occ. eigenvalues --   -0.86059  -0.82337  -0.80042  -0.78754  -0.77366
 Alpha  occ. eigenvalues --   -0.71964  -0.71087  -0.70383  -0.65537  -0.64917
 Alpha  occ. eigenvalues --   -0.64678  -0.62056  -0.61346  -0.59761  -0.58024
 Alpha  occ. eigenvalues --   -0.55711  -0.55187  -0.53162  -0.53042  -0.52963
 Alpha  occ. eigenvalues --   -0.52468  -0.50361  -0.48723  -0.48716  -0.48313
 Alpha  occ. eigenvalues --   -0.47055  -0.46271  -0.46199  -0.44731  -0.44214
 Alpha  occ. eigenvalues --   -0.37257  -0.36252
 Alpha virt. eigenvalues --    0.05124   0.11374   0.16556   0.20011   0.22652
 Alpha virt. eigenvalues --    0.23845   0.24879   0.26041   0.27070   0.28391
 Alpha virt. eigenvalues --    0.29399   0.29971   0.31550   0.31649   0.31857

 Mulliken charges:
               1
     1  C   -0.299908
     2  C   -0.299770
     3  C   -0.485459
     4  H    0.150443
     5  H    0.140930
     6  H    0.156466
     7  H    0.153162
     8  H    0.149769
     9  H    0.162049
    10  H    0.169913
    11  C   -0.298244
    12  C   -0.299784
    13  C   -0.475978
    14  H    0.152730
    15  H    0.150708
    16  H    0.152892
    17  H    0.148790
    18  H    0.155616
    19  H    0.156893
    20  H    0.160890
    21  C   -0.170480
    22  C   -0.219189
    23  C   -0.170192
    24  C    0.155816
    25  C   -0.174094
    26  C   -0.225746
    27  H    0.225188
    28  H    0.222967
    29  H    0.275255
    30  H    0.287620
    31  H    0.225428
    32  N    0.487450
    33  O   -0.461335
    34  O   -0.460797
 Sum of Mulliken charges =  -0.00000

 Dipole moment (field-independent basis, Debye):
    X=             -1.8343    Y=              4.5933    Z=              1.3233  Tot=              5.1199
 Quadrupole moment (field-independent basis, Debye-Ang):
   XX=           -101.4602   YY=            -93.3317   ZZ=            -95.3955
   XY=             16.9990   XZ=              4.7307   YZ=             -0.1656

 Normal termination of Gaussian 16 at Thu May  6 01:13:38 2021.
