 Gaussian 16, Revision A.03,
 Gaussian 16:  EM64L-G16RevA.03 25-Dec-2016

 -------------
 #p 6-31g* mp2
 -------------

 ------------------------------------------------------
 Input file generated by CHIRIPA (05-May-2021 14:55:20)
 ------------------------------------------------------
 Symbolic Z-matrix:
 Charge =  0 Multiplicity = 1

                         Standard orientation:
 ---------------------------------------------------------------------
 Center     Atomic      Atomic             Coordinates (Angstroms)
 Number     Number       Type             X           Y           Z
 ---------------------------------------------------------------------
      1          6           0       -1.649500   -1.668629    1.412835
      2          6           0       -1.075760   -0.948419    0.359915
      3          6           0       -1.838307   -0.034922   -0.373974
      4          6           0       -3.177611    0.134236   -0.026208
      5          6           0       -3.777987   -0.568393    1.017416
      6          6           0       -2.996408   -1.476656    1.737652
      7          1           0       -1.049742   -2.376222    1.977634
      8          1           0       -0.029979   -1.095462    0.105424
      9          1           0       -1.419500    0.535819   -1.193898
     10          1           0       -4.823060   -0.400265    1.247576
     11          1           0       -3.444640   -2.034599    2.554862
     12          7           0       -3.994960    1.098544   -0.795917
     13          8           0       -5.172705    1.229379   -0.469671
     14          8           0       -3.442377    1.705273   -1.710886
     15          6           0        3.924033    0.528671    0.450403
     16          6           0        4.487519    1.892845    0.051030
     17          6           0        4.539449    2.876378    1.220544
     18          1           0        2.915019    0.662602    0.863802
     19          1           0        4.539230    0.107700    1.257690
     20          1           0        3.872262    2.310501   -0.756212
     21          1           0        5.495233    1.755630   -0.361644
     22          1           0        5.169519    2.484663    2.025635
     23          1           0        3.537327    3.042686    1.628825
     24          1           0        4.945446    3.845035    0.912762
     25          6           0        3.865795   -0.465455   -0.708065
     26          6           0        3.302310   -1.829629   -0.308691
     27          6           0        3.250380   -2.813162   -1.478205
     28          1           0        3.250599   -0.044483   -1.515351
     29          1           0        4.874809   -0.599386   -1.121465
     30          1           0        2.294596   -1.692413    0.103982
     31          1           0        3.917566   -2.247285    0.498549
     32          1           0        4.252502   -2.979470   -1.886487
     33          1           0        2.620310   -2.421446   -2.283296
     34          1           0        2.844384   -3.781819   -1.170423
 ---------------------------------------------------------------------

 SCF Done:  E(RHF) =  -669.535492883     A.U. after   15 cycles
 E2 =    -0.2091107057D+01 EUMP2 =    -0.67162659993992D+03

 The electronic state is 1-A.
 Alpha  occ. eigenvalues --  -20.60763 -20.60758 -15.85816 -11.31182 -11.27753
 Alpha  occ. eigenvalues --  -11.27749 -11.27489 -11.26765 -11.26745 -11.22622
 Alpha  occ. eigenvalues --  -11.22155 -11.22085 -11.22018 -11.21891 -11.21437
 Alpha  occ. eigenvalues --   -1.59838  -1.39392  -1.19354  -1.09156  -1.08748
 Alpha  occ. eigenvalues --   -1.04759  -1.04212  -0.96630  -0.95583  -0.87647
 Alpha  occ. eigenvalues --   -0.86159  -0.82418  -0.80302  -0.78946  -0.77465
 Alpha  occ. eigenvalues --   -0.72035  -0.71161  -0.70461  -0.65846  -0.65006
 Alpha  occ. eigenvalues --   -0.64751  -0.62157  -0.61565  -0.60015  -0.58242
 Alpha  occ. eigenvalues --   -0.55912  -0.55257  -0.53329  -0.53087  -0.53052
 Alpha  occ. eigenvalues --   -0.52860  -0.50574  -0.48807  -0.48790  -0.48583
 Alpha  occ. eigenvalues --   -0.47346  -0.46479  -0.46394  -0.44797  -0.44464
 Alpha  occ. eigenvalues --   -0.37334  -0.36362
 Alpha virt. eigenvalues --    0.05072   0.11282   0.16558   0.18853   0.22722
 Alpha virt. eigenvalues --    0.23681   0.25137   0.26491   0.27372   0.28256
 Alpha virt. eigenvalues --    0.28771   0.30381   0.31136   0.31265   0.32023

 Mulliken charges:
               1
     1  C   -0.173388
     2  C   -0.227334
     3  C   -0.173329
     4  C    0.159071
     5  C   -0.171208
     6  C   -0.218586
     7  H    0.225844
     8  H    0.236406
     9  H    0.275887
    10  H    0.275588
    11  H    0.223450
    12  N    0.487999
    13  O   -0.460468
    14  O   -0.460521
    15  C   -0.298555
    16  C   -0.300300
    17  C   -0.476247
    18  H    0.146049
    19  H    0.150862
    20  H    0.153535
    21  H    0.153475
    22  H    0.155310
    23  H    0.156008
    24  H    0.162755
    25  C   -0.298927
    26  C   -0.304848
    27  C   -0.476157
    28  H    0.149471
    29  H    0.153886
    30  H    0.141962
    31  H    0.155902
    32  H    0.159858
    33  H    0.156067
    34  H    0.160483
 Sum of Mulliken charges =  -0.00000

 Dipole moment (field-independent basis, Debye):
    X=              3.0778    Y=             -3.3796    Z=              2.6868  Tot=              5.3022
 Quadrupole moment (field-independent basis, Debye-Ang):
   XX=           -108.3414   YY=            -96.4893   ZZ=            -94.2257
   XY=             11.8839   XZ=            -11.4296   YZ=             -0.9434

 Normal termination of Gaussian 16 at Thu May  6 06:10:29 2021.
