 Gaussian 16, Revision A.03,
 Gaussian 16:  EM64L-G16RevA.03 25-Dec-2016

 -------------
 #p 6-31g* mp2
 -------------

 ------------------------------------------------------
 Input file generated by CHIRIPA (05-May-2021 14:51:11)
 ------------------------------------------------------
 Symbolic Z-matrix:
 Charge =  0 Multiplicity = 1

                         Standard orientation:
 ---------------------------------------------------------------------
 Center     Atomic      Atomic             Coordinates (Angstroms)
 Number     Number       Type             X           Y           Z
 ---------------------------------------------------------------------
      1          6           0        2.564063   -0.017601    0.617712
      2          6           0        1.578518   -1.176426    0.463409
      3          6           0        0.286585   -0.962795    1.252753
      4          1           0        2.800777    0.114771    1.682319
      5          1           0        2.080724    0.912144    0.287026
      6          1           0        2.064038   -2.103930    0.792988
      7          1           0        1.344271   -1.306179   -0.600973
      8          1           0       -0.222768   -0.052955    0.919058
      9          1           0        0.501088   -0.855240    2.320939
     10          1           0       -0.403567   -1.803060    1.128234
     11          6           0        3.860482   -0.216515   -0.165526
     12          6           0        4.846027    0.942310   -0.011223
     13          6           0        6.137960    0.728678   -0.800568
     14          1           0        4.343821   -1.146260    0.165160
     15          1           0        3.623768   -0.348888   -1.230134
     16          1           0        5.080274    1.072062    1.053159
     17          1           0        4.360507    1.869814   -0.340802
     18          1           0        5.923457    0.621123   -1.868754
     19          1           0        6.647313   -0.181161   -0.466872
     20          1           0        6.828112    1.568944   -0.676048
     21          6           0       -3.264909   -0.591249    0.054909
     22          6           0       -2.734694   -1.662738   -0.898383
     23          6           0       -2.846777   -3.074516   -0.322089
     24          1           0       -2.712245   -0.646858    1.002757
     25          1           0       -4.315423   -0.809020    0.292373
     26          1           0       -1.685896   -1.442239   -1.135071
     27          1           0       -3.288553   -1.604445   -1.844141
     28          1           0       -3.891055   -3.319188   -0.102497
     29          1           0       -2.279292   -3.156060    0.610602
     30          1           0       -2.462080   -3.824733   -1.019973
     31          6           0       -3.159636    0.825365   -0.507095
     32          6           0       -3.689852    1.896854    0.446198
     33          6           0       -3.577768    3.308633   -0.130097
     34          1           0       -2.109122    1.043137   -0.744560
     35          1           0       -3.712300    0.880976   -1.454943
     36          1           0       -3.135992    1.838561    1.391955
     37          1           0       -4.738649    1.676355    0.682885
     38          1           0       -4.145253    3.390176   -1.062787
     39          1           0       -2.533490    3.553305   -0.349688
     40          1           0       -3.962466    4.058850    0.567788
 ---------------------------------------------------------------------

 SCF Done:  E(RHF) =  -470.731807732     A.U. after   11 cycles
 E2 =    -0.1584746706D+01 EUMP2 =    -0.47231655443732D+03

 The electronic state is 1-A.
 Alpha  occ. eigenvalues --  -11.21667 -11.21630 -11.21583 -11.21534 -11.21452
 Alpha  occ. eigenvalues --  -11.21390 -11.21361 -11.21241 -11.21100 -11.21092
 Alpha  occ. eigenvalues --  -11.21070 -11.21066  -1.08499  -1.08375  -1.03628
 Alpha  occ. eigenvalues --   -1.03466  -0.96037  -0.95961  -0.87081  -0.86959
 Alpha  occ. eigenvalues --   -0.79675  -0.79552  -0.78299  -0.78188  -0.65308
 Alpha  occ. eigenvalues --   -0.64923  -0.61203  -0.60868  -0.59375  -0.59218
 Alpha  occ. eigenvalues --   -0.57651  -0.57556  -0.55456  -0.55120  -0.52720
 Alpha  occ. eigenvalues --   -0.52646  -0.52495  -0.52307  -0.50056  -0.49814
 Alpha  occ. eigenvalues --   -0.47983  -0.47836  -0.46733  -0.46563  -0.45871
 Alpha  occ. eigenvalues --   -0.45776  -0.45677  -0.45641  -0.43778  -0.43738
 Alpha virt. eigenvalues --    0.20337   0.23082   0.23287   0.24862   0.26094
 Alpha virt. eigenvalues --    0.26271   0.26892   0.27436   0.27973   0.29606
 Alpha virt. eigenvalues --    0.30483   0.30872   0.31668   0.31775   0.32312

 Mulliken charges:
               1
     1  C   -0.298644
     2  C   -0.301181
     3  C   -0.485579
     4  H    0.149926
     5  H    0.149195
     6  H    0.152426
     7  H    0.152629
     8  H    0.158484
     9  H    0.155247
    10  H    0.167727
    11  C   -0.298309
    12  C   -0.299676
    13  C   -0.475738
    14  H    0.149702
    15  H    0.149743
    16  H    0.151995
    17  H    0.151945
    18  H    0.155255
    19  H    0.155242
    20  H    0.160364
    21  C   -0.301603
    22  C   -0.303527
    23  C   -0.479003
    24  H    0.155974
    25  H    0.149152
    26  H    0.155630
    27  H    0.152373
    28  H    0.155808
    29  H    0.156384
    30  H    0.160314
    31  C   -0.300046
    32  C   -0.300029
    33  C   -0.475555
    34  H    0.149084
    35  H    0.149746
    36  H    0.152279
    37  H    0.152147
    38  H    0.155152
    39  H    0.154674
    40  H    0.160293
 Sum of Mulliken charges =  -0.00000

 Dipole moment (field-independent basis, Debye):
    X=              0.0174    Y=             -0.0140    Z=              0.0191  Tot=              0.0294
 Quadrupole moment (field-independent basis, Debye-Ang):
   XX=            -84.7535   YY=            -85.7736   ZZ=            -84.3051
   XY=             -0.1189   XZ=              1.1849   YZ=             -0.0668

 Normal termination of Gaussian 16 at Wed May  5 21:29:43 2021.
