 Gaussian 16, Revision A.03,
 Gaussian 16:  EM64L-G16RevA.03 25-Dec-2016

 -------------
 #p 6-31g* mp2
 -------------

 ------------------------------------------------------
 Input file generated by CHIRIPA (05-May-2021 14:51:09)
 ------------------------------------------------------
 Symbolic Z-matrix:
 Charge =  0 Multiplicity = 1

                         Standard orientation:
 ---------------------------------------------------------------------
 Center     Atomic      Atomic             Coordinates (Angstroms)
 Number     Number       Type             X           Y           Z
 ---------------------------------------------------------------------
      1          6           0        3.307042   -0.453836    0.504865
      2          6           0        1.904039   -0.321708   -0.088524
      3          6           0        0.842602   -1.051309    0.735387
      4          1           0        3.567428   -1.518449    0.580655
      5          1           0        3.302473   -0.059393    1.530433
      6          1           0        1.911580   -0.715015   -1.113155
      7          1           0        1.647038    0.742720   -0.163088
      8          1           0        0.805845   -0.653904    1.754857
      9          1           0        1.071890   -2.119921    0.799392
     10          1           0       -0.152798   -0.943793    0.293256
     11          6           0        4.379102    0.270243   -0.307615
     12          6           0        5.782105    0.138115    0.285773
     13          6           0        6.843541    0.867716   -0.538137
     14          1           0        4.383671   -0.124200   -1.333183
     15          1           0        4.118716    1.334855   -0.383405
     16          1           0        6.039105   -0.926313    0.360337
     17          1           0        5.774564    0.531422    1.310405
     18          1           0        6.614254    1.936328   -0.602142
     19          1           0        6.880298    0.470311   -1.557607
     20          1           0        7.838941    0.760200   -0.096007
     21          6           0       -4.262791    0.703421    0.083537
     22          6           0       -3.554317    2.029628   -0.194357
     23          6           0       -4.406686    3.243985    0.175230
     24          1           0       -5.206988    0.674849   -0.477373
     25          1           0       -4.530113    0.654581    1.148220
     26          1           0       -3.287179    2.075353   -1.257920
     27          1           0       -2.611604    2.054966    0.367128
     28          1           0       -4.662088    3.225802    1.239674
     29          1           0       -5.341502    3.246304   -0.394608
     30          1           0       -3.880986    4.181396   -0.031557
     31          6           0       -3.423352   -0.519828   -0.280787
     32          6           0       -4.131827   -1.846034   -0.002892
     33          6           0       -3.279457   -3.060392   -0.372480
     34          1           0       -3.156030   -0.470987   -1.345469
     35          1           0       -2.479155   -0.491255    0.280123
     36          1           0       -5.074540   -1.871372   -0.564379
     37          1           0       -4.398964   -1.891759    1.060669
     38          1           0       -2.344641   -3.062710    0.197358
     39          1           0       -3.024055   -3.042208   -1.436924
     40          1           0       -3.805157   -3.997802   -0.165692
 ---------------------------------------------------------------------

 SCF Done:  E(RHF) =  -470.733320480     A.U. after   11 cycles
 E2 =    -0.1582653685D+01 EUMP2 =    -0.47231597416479D+03

 The electronic state is 1-A.
 Alpha  occ. eigenvalues --  -11.21601 -11.21601 -11.21600 -11.21587 -11.21403
 Alpha  occ. eigenvalues --  -11.21399 -11.21344 -11.21339 -11.21072 -11.21070
 Alpha  occ. eigenvalues --  -11.21061 -11.21039  -1.08437  -1.08419  -1.03538
 Alpha  occ. eigenvalues --   -1.03512  -0.95989  -0.95964  -0.87013  -0.86976
 Alpha  occ. eigenvalues --   -0.79627  -0.79553  -0.78259  -0.78230  -0.65071
 Alpha  occ. eigenvalues --   -0.65055  -0.60933  -0.60917  -0.59439  -0.59262
 Alpha  occ. eigenvalues --   -0.57641  -0.57537  -0.55299  -0.55226  -0.52751
 Alpha  occ. eigenvalues --   -0.52644  -0.52455  -0.52328  -0.49955  -0.49876
 Alpha  occ. eigenvalues --   -0.47973  -0.47849  -0.46628  -0.46609  -0.45799
 Alpha  occ. eigenvalues --   -0.45765  -0.45709  -0.45705  -0.43784  -0.43702
 Alpha virt. eigenvalues --    0.21650   0.23061   0.23645   0.24607   0.26093
 Alpha virt. eigenvalues --    0.26637   0.27080   0.27434   0.27989   0.28976
 Alpha virt. eigenvalues --    0.30781   0.31294   0.31665   0.31801   0.32144

 Mulliken charges:
               1
     1  C   -0.298585
     2  C   -0.298745
     3  C   -0.485417
     4  H    0.149698
     5  H    0.149373
     6  H    0.152220
     7  H    0.151999
     8  H    0.154379
     9  H    0.155329
    10  H    0.169326
    11  C   -0.298227
    12  C   -0.299630
    13  C   -0.475702
    14  H    0.149575
    15  H    0.149641
    16  H    0.151958
    17  H    0.151888
    18  H    0.155171
    19  H    0.155199
    20  H    0.160244
    21  C   -0.297485
    22  C   -0.299827
    23  C   -0.475693
    24  H    0.149707
    25  H    0.149539
    26  H    0.151899
    27  H    0.151916
    28  H    0.155203
    29  H    0.155220
    30  H    0.160185
    31  C   -0.306639
    32  C   -0.299042
    33  C   -0.477771
    34  H    0.149053
    35  H    0.157581
    36  H    0.151864
    37  H    0.151911
    38  H    0.157670
    39  H    0.154829
    40  H    0.160185
 Sum of Mulliken charges =  -0.00000

 Dipole moment (field-independent basis, Debye):
    X=             -0.0029    Y=             -0.0014    Z=             -0.0022  Tot=              0.0039
 Quadrupole moment (field-independent basis, Debye-Ang):
   XX=            -85.6791   YY=            -85.2498   ZZ=            -83.8780
   XY=             -0.0776   XZ=              0.7809   YZ=              0.4880

 Normal termination of Gaussian 16 at Wed May  5 18:07:55 2021.
