 Gaussian 16, Revision A.03,
 Gaussian 16:  EM64L-G16RevA.03 25-Dec-2016

 -------------
 #p 6-31g* mp2
 -------------

 ------------------------------------------------------
 Input file generated by CHIRIPA (05-May-2021 14:57:23)
 ------------------------------------------------------
 Symbolic Z-matrix:
 Charge =  0 Multiplicity = 1

                         Standard orientation:
 ---------------------------------------------------------------------
 Center     Atomic      Atomic             Coordinates (Angstroms)
 Number     Number       Type             X           Y           Z
 ---------------------------------------------------------------------
      1          6           0       -6.085820    1.303805    0.490261
      2          6           0       -6.211227   -0.052436    0.171822
      3          6           0       -5.078369   -0.826347   -0.096959
      4          6           0       -3.829952   -0.208869   -0.038100
      5          6           0       -3.672373    1.140073    0.276250
      6          6           0       -4.819027    1.894689    0.541369
      7          1           0       -6.971209    1.897504    0.697634
      8          1           0       -7.193766   -0.513985    0.131396
      9          1           0       -5.146661   -1.878347   -0.346059
     10          1           0       -2.679558    1.572133    0.308812
     11          1           0       -4.718616    2.947750    0.788403
     12          7           0       -2.623343   -1.017961   -0.320708
     13          8           0       -1.534775   -0.450293   -0.262322
     14          8           0       -2.789020   -2.204474   -0.595250
     15          6           0        6.502918    0.277021    0.443340
     16          6           0        5.690879   -0.461508    1.310341
     17          6           0        4.318771   -0.579920    1.069829
     18          6           0        3.789629    0.056040   -0.052157
     19          6           0        4.572513    0.798857   -0.934542
     20          6           0        5.942131    0.903741   -0.674364
     21          1           0        7.567837    0.363752    0.637814
     22          1           0        6.123656   -0.949294    2.179141
     23          1           0        3.667027   -1.145485    1.724646
     24          1           0        4.112269    1.273858   -1.792427
     25          1           0        6.570351    1.477940   -1.349405
     26          7           0        2.338357   -0.062156   -0.317186
     27          8           0        1.896521    0.507622   -1.312560
     28          8           0        1.670165   -0.722341    0.475477
 ---------------------------------------------------------------------

 SCF Done:  E(RHF) =  -868.334251105     A.U. after   16 cycles
 E2 =    -0.2600717776D+01 EUMP2 =    -0.87093496888044D+03

 The electronic state is 1-A.
 Alpha  occ. eigenvalues --  -20.59619 -20.59569 -20.59371 -20.59221 -15.84680
 Alpha  occ. eigenvalues --  -15.84351 -11.30462 -11.30189 -11.27088 -11.27070
 Alpha  occ. eigenvalues --  -11.26902 -11.26839 -11.26788 -11.26667 -11.26194
 Alpha  occ. eigenvalues --  -11.26180 -11.25956 -11.25933  -1.58657  -1.58380
 Alpha  occ. eigenvalues --   -1.38210  -1.37916  -1.18673  -1.18414  -1.07987
 Alpha  occ. eigenvalues --   -1.07726  -1.04139  -1.03885  -0.94753  -0.94469
 Alpha  occ. eigenvalues --   -0.85517  -0.85262  -0.81589  -0.81297  -0.76562
 Alpha  occ. eigenvalues --   -0.76270  -0.70902  -0.70503  -0.70030  -0.69780
 Alpha  occ. eigenvalues --   -0.69736  -0.69521  -0.64315  -0.64149  -0.64043
 Alpha  occ. eigenvalues --   -0.63897  -0.61482  -0.61225  -0.54625  -0.54385
 Alpha  occ. eigenvalues --   -0.52447  -0.52237  -0.52194  -0.51985  -0.47822
 Alpha  occ. eigenvalues --   -0.47606  -0.47331  -0.47054  -0.43541  -0.43208
 Alpha  occ. eigenvalues --   -0.36680  -0.36428  -0.35763  -0.35511
 Alpha virt. eigenvalues --    0.05977   0.06270   0.11885   0.12136   0.17397
 Alpha virt. eigenvalues --    0.17675   0.21969   0.22203   0.27850   0.28081
 Alpha virt. eigenvalues --    0.28896   0.29150   0.31488   0.31718   0.33154

 Mulliken charges:
               1
     1  C   -0.172433
     2  C   -0.218690
     3  C   -0.171991
     4  C    0.159106
     5  C   -0.171578
     6  C   -0.218816
     7  H    0.221866
     8  H    0.220023
     9  H    0.273954
    10  H    0.279051
    11  H    0.220436
    12  N    0.485604
    13  O   -0.438957
    14  O   -0.468330
    15  C   -0.172253
    16  C   -0.218523
    17  C   -0.171737
    18  C    0.159241
    19  C   -0.171950
    20  C   -0.218509
    21  H    0.222883
    22  H    0.221283
    23  H    0.275962
    24  H    0.274423
    25  H    0.220884
    26  N    0.486208
    27  O   -0.459866
    28  O   -0.447288
 Sum of Mulliken charges =  -0.00000

 Dipole moment (field-independent basis, Debye):
    X=              0.9932    Y=              3.2149    Z=              1.9239  Tot=              3.8760
 Quadrupole moment (field-independent basis, Debye-Ang):
   XX=            -36.7020   YY=           -102.3596   ZZ=           -102.7957
   XY=             -5.4426   XZ=             -0.2997   YZ=             -2.3402

 Normal termination of Gaussian 16 at Wed May  5 22:38:38 2021.
