 Gaussian 16, Revision A.03,
 Gaussian 16:  EM64L-G16RevA.03 25-Dec-2016

 -------------
 #p 6-31g* mp2
 -------------

 ------------------------------------------------------
 Input file generated by CHIRIPA (05-May-2021 14:51:10)
 ------------------------------------------------------
 Symbolic Z-matrix:
 Charge =  0 Multiplicity = 1

                         Standard orientation:
 ---------------------------------------------------------------------
 Center     Atomic      Atomic             Coordinates (Angstroms)
 Number     Number       Type             X           Y           Z
 ---------------------------------------------------------------------
      1          6           0        4.086729    0.475215    0.360090
      2          6           0        4.472904    1.567771   -0.637495
      3          6           0        5.367570    2.642864   -0.019805
      4          1           0        3.573373    0.934049    1.216175
      5          1           0        5.000276    0.010326    0.755951
      6          1           0        3.558870    2.029523   -1.032393
      7          1           0        4.985230    1.106259   -1.491395
      8          1           0        6.295468    2.201470    0.358055
      9          1           0        4.861004    3.129980    0.819665
     10          1           0        5.631548    3.413882   -0.750358
     11          6           0        3.192422   -0.606797   -0.242566
     12          6           0        2.806247   -1.699353    0.755019
     13          6           0        1.911581   -2.774446    0.137329
     14          1           0        2.278875   -0.141908   -0.638427
     15          1           0        3.705778   -1.065632   -1.098651
     16          1           0        2.293921   -1.237841    1.608918
     17          1           0        3.720280   -2.161105    1.149916
     18          1           0        2.418146   -3.261562   -0.702141
     19          1           0        0.983683   -2.333052   -0.240531
     20          1           0        1.647602   -3.545464    0.867881
     21          6           0       -4.029753    0.587196    0.340400
     22          6           0       -4.156569    1.930817   -0.378338
     23          6           0       -4.939709    2.963541    0.432813
     24          1           0       -5.034088    0.199109    0.558677
     25          1           0       -3.537308    0.743101    1.310240
     26          1           0       -4.647383    1.772219   -1.347133
     27          1           0       -3.151817    2.315659   -0.595099
     28          1           0       -4.449475    3.150995    1.393611
     29          1           0       -5.953539    2.604468    0.637305
     30          1           0       -5.018271    3.916541   -0.099613
     31          6           0       -3.249398   -0.455614   -0.457924
     32          6           0       -3.122582   -1.799235    0.260814
     33          6           0       -2.339442   -2.831959   -0.550337
     34          1           0       -3.741842   -0.611519   -1.427763
     35          1           0       -2.245063   -0.067527   -0.676201
     36          1           0       -4.127334   -2.184077    0.477576
     37          1           0       -2.631768   -1.640637    1.229610
     38          1           0       -1.325612   -2.472886   -0.754828
     39          1           0       -2.829676   -3.019414   -1.511135
     40          1           0       -2.260879   -3.784960   -0.017910
 ---------------------------------------------------------------------

 SCF Done:  E(RHF) =  -470.733225198     A.U. after   11 cycles
 E2 =    -0.1582349227D+01 EUMP2 =    -0.47231557442479D+03

 The electronic state is 1-A.
 Alpha  occ. eigenvalues --  -11.21620 -11.21619 -11.21618 -11.21598 -11.21429
 Alpha  occ. eigenvalues --  -11.21422 -11.21370 -11.21363 -11.21087 -11.21086
 Alpha  occ. eigenvalues --  -11.21063 -11.21029  -1.08453  -1.08440  -1.03557
 Alpha  occ. eigenvalues --   -1.03523  -0.96023  -0.95955  -0.87056  -0.86955
 Alpha  occ. eigenvalues --   -0.79650  -0.79555  -0.78273  -0.78247  -0.65118
 Alpha  occ. eigenvalues --   -0.65044  -0.61069  -0.60828  -0.59372  -0.59337
 Alpha  occ. eigenvalues --   -0.57656  -0.57551  -0.55493  -0.55090  -0.52714
 Alpha  occ. eigenvalues --   -0.52645  -0.52513  -0.52318  -0.50150  -0.49715
 Alpha  occ. eigenvalues --   -0.48006  -0.47831  -0.46762  -0.46490  -0.45844
 Alpha  occ. eigenvalues --   -0.45775  -0.45746  -0.45651  -0.43812  -0.43779
 Alpha virt. eigenvalues --    0.21601   0.23102   0.23555   0.24906   0.25959
 Alpha virt. eigenvalues --    0.26879   0.27047   0.27477   0.27770   0.28940
 Alpha virt. eigenvalues --    0.30139   0.31522   0.31767   0.31827   0.32129

 Mulliken charges:
               1
     1  C   -0.298288
     2  C   -0.299661
     3  C   -0.475716
     4  H    0.149511
     5  H    0.149680
     6  H    0.151824
     7  H    0.152059
     8  H    0.155247
     9  H    0.155139
    10  H    0.160331
    11  C   -0.298217
    12  C   -0.299442
    13  C   -0.480840
    14  H    0.148815
    15  H    0.149914
    16  H    0.151583
    17  H    0.152045
    18  H    0.155480
    19  H    0.160003
    20  H    0.160660
    21  C   -0.298290
    22  C   -0.299622
    23  C   -0.475709
    24  H    0.149816
    25  H    0.149401
    26  H    0.152038
    27  H    0.151701
    28  H    0.155128
    29  H    0.155265
    30  H    0.160294
    31  C   -0.298075
    32  C   -0.299676
    33  C   -0.480918
    34  H    0.149754
    35  H    0.148574
    36  H    0.152005
    37  H    0.151808
    38  H    0.160635
    39  H    0.155096
    40  H    0.160649
 Sum of Mulliken charges =  -0.00000

 Dipole moment (field-independent basis, Debye):
    X=              0.0047    Y=             -0.0154    Z=             -0.0031  Tot=              0.0164
 Quadrupole moment (field-independent basis, Debye-Ang):
   XX=            -84.0024   YY=            -85.8170   ZZ=            -84.8477
   XY=             -0.2724   XZ=              0.2092   YZ=             -0.3619

 Normal termination of Gaussian 16 at Wed May  5 15:09:27 2021.
