 Gaussian 16, Revision A.03,
 Gaussian 16:  EM64L-G16RevA.03 25-Dec-2016

 -------------
 #p 6-31g* mp2
 -------------

 ------------------------------------------------------
 Input file generated by CHIRIPA (05-May-2021 14:53:15)
 ------------------------------------------------------
 Symbolic Z-matrix:
 Charge =  0 Multiplicity = 1

                         Standard orientation:
 ---------------------------------------------------------------------
 Center     Atomic      Atomic             Coordinates (Angstroms)
 Number     Number       Type             X           Y           Z
 ---------------------------------------------------------------------
      1          6           0       -3.389769   -0.471364    0.047597
      2          6           0       -3.541154   -1.361925   -1.186084
      3          6           0       -3.577056   -2.850712   -0.839648
      4          1           0       -2.469703   -0.747538    0.580656
      5          1           0       -4.221896   -0.668235    0.737670
      6          1           0       -2.709742   -1.162436   -1.874251
      7          1           0       -4.460867   -1.083470   -1.716373
      8          1           0       -4.416256   -3.070720   -0.171860
      9          1           0       -2.655181   -3.150134   -0.330635
     10          1           0       -3.685766   -3.469012   -1.736167
     11          6           0       -3.352292    1.019725   -0.282523
     12          6           0       -3.200907    1.910285    0.951158
     13          6           0       -3.165005    3.399073    0.604722
     14          1           0       -2.520165    1.216595   -0.972596
     15          1           0       -4.272358    1.295898   -0.815582
     16          1           0       -2.281194    1.631831    1.481448
     17          1           0       -4.032319    1.710796    1.639325
     18          1           0       -4.086879    3.698495    0.095709
     19          1           0       -2.325805    3.619081   -0.063066
     20          1           0       -3.056295    4.017373    1.501242
     21          6           0        1.154159   -1.499646    1.680719
     22          6           0        2.418067   -1.067389    2.095701
     23          6           0        3.246270   -0.354394    1.223767
     24          6           0        2.776646   -0.089931   -0.061846
     25          6           0        1.522458   -0.507144   -0.504832
     26          6           0        0.711170   -1.218640    0.384062
     27          1           0        0.517361   -2.052935    2.364645
     28          1           0        2.764712   -1.284187    3.102120
     29          1           0        4.229224   -0.007882    1.518978
     30          1           0        1.204449   -0.275914   -1.514199
     31          1           0       -0.269928   -1.553092    0.059049
     32          7           0        3.644475    0.664090   -0.993901
     33          8           0        3.207481    0.884320   -2.121363
     34          8           0        4.745239    1.020583   -0.579334
 ---------------------------------------------------------------------

 SCF Done:  E(RHF) =  -669.535407948     A.U. after   15 cycles
 E2 =    -0.2091908050D+01 EUMP2 =    -0.67162731599792D+03

 The electronic state is 1-A.
 Alpha  occ. eigenvalues --  -20.60790 -20.60785 -15.85844 -11.31220 -11.27794
 Alpha  occ. eigenvalues --  -11.27790 -11.27535 -11.26802 -11.26782 -11.22469
 Alpha  occ. eigenvalues --  -11.22245 -11.22068 -11.21993 -11.21971 -11.21368
 Alpha  occ. eigenvalues --   -1.59866  -1.39419  -1.19394  -1.09151  -1.08785
 Alpha  occ. eigenvalues --   -1.04800  -1.04188  -0.96635  -0.95619  -0.87648
 Alpha  occ. eigenvalues --   -0.86200  -0.82452  -0.80262  -0.78941  -0.77499
 Alpha  occ. eigenvalues --   -0.72062  -0.71189  -0.70500  -0.65926  -0.65046
 Alpha  occ. eigenvalues --   -0.64726  -0.62182  -0.61535  -0.60011  -0.58234
 Alpha  occ. eigenvalues --   -0.55947  -0.55294  -0.53305  -0.53135  -0.53045
 Alpha  occ. eigenvalues --   -0.52890  -0.50585  -0.48831  -0.48817  -0.48557
 Alpha  occ. eigenvalues --   -0.47313  -0.46463  -0.46383  -0.44822  -0.44446
 Alpha  occ. eigenvalues --   -0.37371  -0.36395
 Alpha virt. eigenvalues --    0.05037   0.11146   0.16488   0.18510   0.23005
 Alpha virt. eigenvalues --    0.23518   0.25519   0.26014   0.27307   0.28535
 Alpha virt. eigenvalues --    0.29075   0.30114   0.31061   0.31410   0.31971

 Mulliken charges:
               1
     1  C   -0.301580
     2  C   -0.302102
     3  C   -0.476093
     4  H    0.140817
     5  H    0.152876
     6  H    0.149256
     7  H    0.157927
     8  H    0.158767
     9  H    0.146580
    10  H    0.165137
    11  C   -0.298028
    12  C   -0.300546
    13  C   -0.476445
    14  H    0.149932
    15  H    0.152755
    16  H    0.152068
    17  H    0.151895
    18  H    0.156030
    19  H    0.158251
    20  H    0.161629
    21  C   -0.172628
    22  C   -0.218426
    23  C   -0.170885
    24  C    0.158851
    25  C   -0.172772
    26  C   -0.224632
    27  H    0.226076
    28  H    0.223645
    29  H    0.275787
    30  H    0.275613
    31  H    0.232905
    32  N    0.488056
    33  O   -0.460414
    34  O   -0.460300
 Sum of Mulliken charges =  -0.00000

 Dipole moment (field-independent basis, Debye):
    X=             -3.1993    Y=             -2.5799    Z=              3.2618  Tot=              5.2470
 Quadrupole moment (field-independent basis, Debye-Ang):
   XX=           -107.7913   YY=            -96.0608   ZZ=            -92.9211
   XY=             -7.0150   XZ=             12.4183   YZ=              0.2272

 Normal termination of Gaussian 16 at Thu May  6 10:33:40 2021.
