 Gaussian 16, Revision A.03,
 Gaussian 16:  EM64L-G16RevA.03 25-Dec-2016

 -------------
 #p 6-31g* mp2
 -------------

 ------------------------------------------------------
 Input file generated by CHIRIPA (05-May-2021 14:53:15)
 ------------------------------------------------------
 Symbolic Z-matrix:
 Charge =  0 Multiplicity = 1

                         Standard orientation:
 ---------------------------------------------------------------------
 Center     Atomic      Atomic             Coordinates (Angstroms)
 Number     Number       Type             X           Y           Z
 ---------------------------------------------------------------------
      1          6           0       -4.493130   -0.643721   -0.246815
      2          6           0       -3.279714   -0.624743    0.683371
      3          6           0       -2.069713   -1.348145    0.091440
      4          1           0       -4.760059   -1.685851   -0.469659
      5          1           0       -4.219575   -0.179504   -1.204450
      6          1           0       -3.555874   -1.087611    1.639459
      7          1           0       -3.015760    0.417461    0.904180
      8          1           0       -1.766442   -0.883037   -0.852118
      9          1           0       -2.309625   -2.396661   -0.112661
     10          1           0       -1.213669   -1.322430    0.772900
     11          6           0       -5.710727    0.075517    0.331012
     12          6           0       -6.924143    0.056539   -0.599175
     13          6           0       -8.134143    0.779941   -0.007243
     14          1           0       -5.984281   -0.388700    1.288647
     15          1           0       -5.443797    1.117647    0.553855
     16          1           0       -7.188096   -0.985665   -0.819983
     17          1           0       -6.647982    0.519407   -1.555262
     18          1           0       -7.894231    1.828457    0.196858
     19          1           0       -8.437414    0.314833    0.936315
     20          1           0       -8.990187    0.754226   -0.688703
     21          6           0        1.750335    1.391628   -0.022091
     22          6           0        2.931698    2.139135    0.024150
     23          6           0        4.175941    1.501658    0.018655
     24          6           0        4.202006    0.108875   -0.033933
     25          6           0        3.042550   -0.663624   -0.080795
     26          6           0        1.809427   -0.004903   -0.074324
     27          1           0        0.788096    1.895088   -0.017443
     28          1           0        2.888840    3.223827    0.064765
     29          1           0        5.106011    2.055873    0.053756
     30          1           0        3.117248   -1.743551   -0.120749
     31          1           0        0.893590   -0.587991   -0.110309
     32          7           0        5.513344   -0.577239   -0.040267
     33          8           0        5.509311   -1.805421   -0.087048
     34          8           0        6.520374    0.126160    0.001668
 ---------------------------------------------------------------------

 SCF Done:  E(RHF) =  -669.535515411     A.U. after   15 cycles
 E2 =    -0.2090921728D+01 EUMP2 =    -0.67162643713902D+03

 The electronic state is 1-A.
 Alpha  occ. eigenvalues --  -20.60705 -20.60700 -15.85757 -11.31109 -11.27680
 Alpha  occ. eigenvalues --  -11.27657 -11.27411 -11.26699 -11.26606 -11.22577
 Alpha  occ. eigenvalues --  -11.22315 -11.22152 -11.22120 -11.21995 -11.21509
 Alpha  occ. eigenvalues --   -1.59781  -1.39335  -1.19276  -1.09168  -1.08675
 Alpha  occ. eigenvalues --   -1.04676  -1.04306  -0.96777  -0.95513  -0.87809
 Alpha  occ. eigenvalues --   -0.86070  -0.82345  -0.80381  -0.78936  -0.77394
 Alpha  occ. eigenvalues --   -0.71976  -0.71104  -0.70390  -0.65801  -0.64926
 Alpha  occ. eigenvalues --   -0.64708  -0.62087  -0.61674  -0.60150  -0.58356
 Alpha  occ. eigenvalues --   -0.56058  -0.55185  -0.53594  -0.53200  -0.53004
 Alpha  occ. eigenvalues --   -0.52639  -0.50697  -0.48736  -0.48732  -0.48681
 Alpha  occ. eigenvalues --   -0.47391  -0.46489  -0.46386  -0.44743  -0.44543
 Alpha  occ. eigenvalues --   -0.37262  -0.36277
 Alpha virt. eigenvalues --    0.05135   0.11333   0.16621   0.20264   0.22434
 Alpha virt. eigenvalues --    0.23804   0.25857   0.26069   0.26799   0.27992
 Alpha virt. eigenvalues --    0.29080   0.29950   0.30691   0.31167   0.32123

 Mulliken charges:
               1
     1  C   -0.299358
     2  C   -0.298452
     3  C   -0.485096
     4  H    0.152184
     5  H    0.149631
     6  H    0.156344
     7  H    0.149389
     8  H    0.153411
     9  H    0.162723
    10  H    0.157595
    11  C   -0.298766
    12  C   -0.300166
    13  C   -0.476055
    14  H    0.151120
    15  H    0.149266
    16  H    0.153188
    17  H    0.152209
    18  H    0.155255
    19  H    0.156070
    20  H    0.161835
    21  C   -0.173342
    22  C   -0.218434
    23  C   -0.171465
    24  C    0.158985
    25  C   -0.172959
    26  C   -0.227243
    27  H    0.225029
    28  H    0.222902
    29  H    0.275255
    30  H    0.275820
    31  H    0.236396
    32  N    0.488023
    33  O   -0.460531
    34  O   -0.460762
 Sum of Mulliken charges =  -0.00000

 Dipole moment (field-independent basis, Debye):
    X=             -4.9065    Y=              2.3652    Z=              0.0298  Tot=              5.4469
 Quadrupole moment (field-independent basis, Debye-Ang):
   XX=           -132.9860   YY=            -89.7835   ZZ=            -95.5738
   XY=             12.9912   XZ=              0.4582   YZ=             -0.4070

 Normal termination of Gaussian 16 at Wed May  5 20:17:03 2021.
