 Gaussian 16, Revision A.03,
 Gaussian 16:  EM64L-G16RevA.03 25-Dec-2016

 -------------
 #p 6-31g* mp2
 -------------

 ------------------------------------------------------
 Input file generated by CHIRIPA (05-May-2021 14:51:07)
 ------------------------------------------------------
 Symbolic Z-matrix:
 Charge =  0 Multiplicity = 1

                         Standard orientation:
 ---------------------------------------------------------------------
 Center     Atomic      Atomic             Coordinates (Angstroms)
 Number     Number       Type             X           Y           Z
 ---------------------------------------------------------------------
      1          6           0        4.868836   -0.713460    0.025095
      2          6           0        6.397863   -0.714169    0.032888
      3          6           0        6.987970   -2.122499    0.111455
      4          1           0        4.503650   -1.215538    0.931463
      5          1           0        4.513176   -1.309105   -0.827024
      6          1           0        6.750537   -0.117553    0.883939
      7          1           0        6.759451   -0.211861   -0.873510
      8          1           0        6.664482   -2.724018   -0.744192
      9          1           0        6.655518   -2.629174    1.023242
     10          1           0        8.082190   -2.099627    0.115777
     11          6           0        4.264063    0.687203   -0.053135
     12          6           0        2.735036    0.687912   -0.060928
     13          6           0        2.144930    2.096242   -0.139494
     14          1           0        4.619724    1.282849    0.798985
     15          1           0        4.629249    1.189281   -0.959502
     16          1           0        2.373449    0.185604    0.845471
     17          1           0        2.382362    0.091296   -0.911978
     18          1           0        2.477382    2.602918   -1.051282
     19          1           0        2.468418    2.697761    0.716153
     20          1           0        1.050709    2.073370   -0.143817
     21          6           0       -4.905245   -0.607283   -0.275357
     22          6           0       -6.232951   -0.945419    0.403500
     23          6           0       -6.898642   -2.189065   -0.186408
     24          1           0       -5.077815   -0.457724   -1.349972
     25          1           0       -4.225781   -1.466037   -0.184440
     26          1           0       -6.909222   -0.085769    0.312534
     27          1           0       -6.057232   -1.094003    1.476656
     28          1           0       -6.245775   -3.061683   -0.081985
     29          1           0       -7.102606   -2.047720   -1.252721
     30          1           0       -7.846245   -2.412563    0.313549
     31          6           0       -4.227654    0.633540    0.303397
     32          6           0       -2.899948    0.971676   -0.375460
     33          6           0       -2.234258    2.215322    0.214448
     34          1           0       -4.907118    1.492294    0.212479
     35          1           0       -4.055085    0.483980    1.378012
     36          1           0       -3.075667    1.120259   -1.448616
     37          1           0       -2.223677    0.112025   -0.284495
     38          1           0       -2.030294    2.073977    1.280760
     39          1           0       -2.887125    3.087939    0.110024
     40          1           0       -1.286654    2.438820   -0.285509
 ---------------------------------------------------------------------

 SCF Done:  E(RHF) =  -470.733301011     A.U. after   11 cycles
 E2 =    -0.1582144463D+01 EUMP2 =    -0.47231544547402D+03

 The electronic state is 1-A.
 Alpha  occ. eigenvalues --  -11.21612 -11.21604 -11.21597 -11.21589 -11.21410
 Alpha  occ. eigenvalues --  -11.21397 -11.21350 -11.21338 -11.21079 -11.21073
 Alpha  occ. eigenvalues --  -11.21069 -11.21030  -1.08437  -1.08420  -1.03546
 Alpha  occ. eigenvalues --   -1.03511  -0.96016  -0.95943  -0.87051  -0.86942
 Alpha  occ. eigenvalues --   -0.79621  -0.79560  -0.78247  -0.78233  -0.65065
 Alpha  occ. eigenvalues --   -0.65051  -0.60936  -0.60913  -0.59624  -0.59148
 Alpha  occ. eigenvalues --   -0.57728  -0.57441  -0.55275  -0.55249  -0.52986
 Alpha  occ. eigenvalues --   -0.52513  -0.52443  -0.52197  -0.49927  -0.49905
 Alpha  occ. eigenvalues --   -0.47976  -0.47834  -0.46631  -0.46615  -0.45791
 Alpha  occ. eigenvalues --   -0.45775  -0.45713  -0.45701  -0.43952  -0.43591
 Alpha virt. eigenvalues --    0.21934   0.23006   0.23430   0.24982   0.26630
 Alpha virt. eigenvalues --    0.26663   0.26859   0.27486   0.27578   0.28734
 Alpha virt. eigenvalues --    0.30118   0.31406   0.31425   0.31854   0.32003

 Mulliken charges:
               1
     1  C   -0.298209
     2  C   -0.299631
     3  C   -0.475696
     4  H    0.149550
     5  H    0.149484
     6  H    0.151933
     7  H    0.151952
     8  H    0.155167
     9  H    0.155138
    10  H    0.160246
    11  C   -0.298522
    12  C   -0.298807
    13  C   -0.483661
    14  H    0.149545
    15  H    0.149639
    16  H    0.151743
    17  H    0.151740
    18  H    0.154871
    19  H    0.155393
    20  H    0.167691
    21  C   -0.298289
    22  C   -0.299661
    23  C   -0.475711
    24  H    0.149657
    25  H    0.149582
    26  H    0.151943
    27  H    0.151948
    28  H    0.155196
    29  H    0.155181
    30  H    0.160263
    31  C   -0.298422
    32  C   -0.299676
    33  C   -0.482095
    34  H    0.149624
    35  H    0.149678
    36  H    0.151972
    37  H    0.152231
    38  H    0.155359
    39  H    0.155647
    40  H    0.166005
 Sum of Mulliken charges =  -0.00000

 Dipole moment (field-independent basis, Debye):
    X=             -0.0167    Y=              0.0051    Z=              0.0012  Tot=              0.0175
 Quadrupole moment (field-independent basis, Debye-Ang):
   XX=            -85.2876   YY=            -86.1237   ZZ=            -83.3590
   XY=             -0.3013   XZ=              0.1247   YZ=             -0.5809

 Normal termination of Gaussian 16 at Wed May  5 15:02:07 2021.
