 Gaussian 16, Revision A.03,
 Gaussian 16:  EM64L-G16RevA.03 25-Dec-2016

 -------------
 #p 6-31g* mp2
 -------------

 ------------------------------------------------------
 Input file generated by CHIRIPA (05-May-2021 14:51:08)
 ------------------------------------------------------
 Symbolic Z-matrix:
 Charge =  0 Multiplicity = 1

                         Standard orientation:
 ---------------------------------------------------------------------
 Center     Atomic      Atomic             Coordinates (Angstroms)
 Number     Number       Type             X           Y           Z
 ---------------------------------------------------------------------
      1          6           0        4.582018   -0.210662   -0.108524
      2          6           0        5.442875    1.050466   -0.028102
      3          6           0        6.905130    0.792308   -0.392735
      4          1           0        4.999050   -0.974937    0.561486
      5          1           0        4.640126   -0.621590   -1.125950
      6          1           0        5.382059    1.459667    0.988496
      7          1           0        5.023634    1.811894   -0.698237
      8          1           0        6.985055    0.405714   -1.413890
      9          1           0        7.345517    0.051486    0.282426
     10          1           0        7.502424    1.707179   -0.328613
     11          6           0        3.117664    0.031339    0.253182
     12          6           0        2.256807   -1.229788    0.172760
     13          6           0        0.794551   -0.971631    0.537393
     14          1           0        3.059556    0.442267    1.270608
     15          1           0        2.700632    0.795614   -0.416828
     16          1           0        2.676048   -1.991216    0.842895
     17          1           0        2.317623   -1.638990   -0.843838
     18          1           0        0.354165   -0.230809   -0.137768
     19          1           0        0.714627   -0.585036    1.558548
     20          1           0        0.197258   -1.886502    0.473271
     21          6           0       -4.028347   -0.609426   -0.323017
     22          6           0       -3.091819   -1.698823    0.200541
     23          6           0       -3.461799   -3.091849   -0.309740
     24          1           0       -5.059244   -0.847891   -0.027499
     25          1           0       -4.008737   -0.615664   -1.421639
     26          1           0       -3.112132   -1.689617    1.297864
     27          1           0       -2.063007   -1.457637   -0.096094
     28          1           0       -3.423044   -3.124366   -1.403376
     29          1           0       -4.478131   -3.357664   -0.001498
     30          1           0       -2.779445   -3.855307    0.076763
     31          6           0       -3.671335    0.788748    0.178359
     32          6           0       -4.607864    1.878146   -0.345199
     33          6           0       -4.237883    3.271172    0.165081
     34          1           0       -3.690944    0.794986    1.276981
     35          1           0       -2.640438    1.027214   -0.117159
     36          1           0       -5.636675    1.636959   -0.048564
     37          1           0       -4.587549    1.868939   -1.442522
     38          1           0       -3.221551    3.536986   -0.143160
     39          1           0       -4.276637    3.303688    1.258718
     40          1           0       -4.920237    4.034630   -0.221421
 ---------------------------------------------------------------------

 SCF Done:  E(RHF) =  -470.732834807     A.U. after   11 cycles
 E2 =    -0.1582838686D+01 EUMP2 =    -0.47231567349287D+03

 The electronic state is 1-A.
 Alpha  occ. eigenvalues --  -11.21622 -11.21615 -11.21560 -11.21428 -11.21425
 Alpha  occ. eigenvalues --  -11.21365 -11.21334 -11.21271 -11.21092 -11.21082
 Alpha  occ. eigenvalues --  -11.21041 -11.21011  -1.08453  -1.08356  -1.03563
 Alpha  occ. eigenvalues --   -1.03454  -0.96012  -0.95917  -0.87047  -0.86920
 Alpha  occ. eigenvalues --   -0.79697  -0.79459  -0.78279  -0.78144  -0.65094
 Alpha  occ. eigenvalues --   -0.64986  -0.60987  -0.60854  -0.59480  -0.59193
 Alpha  occ. eigenvalues --   -0.57666  -0.57473  -0.55297  -0.55211  -0.52776
 Alpha  occ. eigenvalues --   -0.52590  -0.52426  -0.52332  -0.49977  -0.49838
 Alpha  occ. eigenvalues --   -0.47940  -0.47825  -0.46710  -0.46506  -0.45862
 Alpha  occ. eigenvalues --   -0.45741  -0.45681  -0.45570  -0.43772  -0.43660
 Alpha virt. eigenvalues --    0.21925   0.23022   0.23753   0.24650   0.25560
 Alpha virt. eigenvalues --    0.26729   0.27045   0.27073   0.27818   0.29235
 Alpha virt. eigenvalues --    0.30672   0.31333   0.31503   0.31767   0.32223

 Mulliken charges:
               1
     1  C   -0.298293
     2  C   -0.299635
     3  C   -0.475712
     4  H    0.149722
     5  H    0.149504
     6  H    0.151990
     7  H    0.151908
     8  H    0.155180
     9  H    0.155211
    10  H    0.160306
    11  C   -0.298605
    12  C   -0.299867
    13  C   -0.478693
    14  H    0.149673
    15  H    0.149472
    16  H    0.152083
    17  H    0.151843
    18  H    0.154680
    19  H    0.156154
    20  H    0.164037
    21  C   -0.297695
    22  C   -0.308328
    23  C   -0.475808
    24  H    0.149067
    25  H    0.148742
    26  H    0.151086
    27  H    0.163648
    28  H    0.154683
    29  H    0.154995
    30  H    0.159258
    31  C   -0.298875
    32  C   -0.299598
    33  C   -0.475598
    34  H    0.149523
    35  H    0.150169
    36  H    0.151909
    37  H    0.151644
    38  H    0.154995
    39  H    0.155166
    40  H    0.160058
 Sum of Mulliken charges =  -0.00000

 Dipole moment (field-independent basis, Debye):
    X=              0.0486    Y=              0.0001    Z=              0.0161  Tot=              0.0512
 Quadrupole moment (field-independent basis, Debye-Ang):
   XX=            -85.8234   YY=            -85.9800   ZZ=            -83.2766
   XY=             -0.1460   XZ=             -0.0862   YZ=             -0.6401

 Normal termination of Gaussian 16 at Thu May  6 06:52:59 2021.
