 Gaussian 16, Revision A.03,
 Gaussian 16:  EM64L-G16RevA.03 25-Dec-2016

 -------------
 #p 6-31g* mp2
 -------------

 ------------------------------------------------------
 Input file generated by CHIRIPA (05-May-2021 14:57:24)
 ------------------------------------------------------
 Symbolic Z-matrix:
 Charge =  0 Multiplicity = 1

                         Standard orientation:
 ---------------------------------------------------------------------
 Center     Atomic      Atomic             Coordinates (Angstroms)
 Number     Number       Type             X           Y           Z
 ---------------------------------------------------------------------
      1          6           0       -2.711689    2.051270   -0.599897
      2          6           0       -4.095711    2.241764   -0.531224
      3          6           0       -4.948044    1.166293   -0.263949
      4          6           0       -4.379808   -0.091733   -0.069607
      5          6           0       -3.004941   -0.313496   -0.131689
      6          6           0       -2.171673    0.776495   -0.400262
      7          1           0       -2.056981    2.892362   -0.808026
      8          1           0       -4.517887    3.230655   -0.685842
      9          1           0       -6.023099    1.285558   -0.205193
     10          1           0       -2.613533   -1.311029    0.026884
     11          1           0       -1.097200    0.625598   -0.453008
     12          7           0       -5.272043   -1.237972    0.214033
     13          8           0       -4.746572   -2.336368    0.381498
     14          8           0       -6.479954   -1.016295    0.263513
     15          6           0        1.849252    0.171198    0.899169
     16          6           0        2.119325   -0.466896   -0.315910
     17          6           0        3.436112   -0.621187   -0.759544
     18          6           0        4.463185   -0.123127    0.040674
     19          6           0        4.226274    0.517255    1.256023
     20          6           0        2.901732    0.660375    1.679882
     21          1           0        0.823328    0.286715    1.236115
     22          1           0        1.303946   -0.847785   -0.924290
     23          1           0        3.673579   -1.111091   -1.696039
     24          1           0        5.060075    0.886536    1.840680
     25          1           0        2.694965    1.156357    2.623965
     26          7           0        5.861313   -0.280555   -0.418514
     27          8           0        6.748442    0.167024    0.304890
     28          8           0        6.043564   -0.848545   -1.493135
 ---------------------------------------------------------------------

 SCF Done:  E(RHF) =  -868.336644739     A.U. after   16 cycles
 E2 =    -0.2599973173D+01 EUMP2 =    -0.87093661791202D+03

 The electronic state is 1-A.
 Alpha  occ. eigenvalues --  -20.61409 -20.61399 -20.61253 -20.61248 -15.86469
 Alpha  occ. eigenvalues --  -15.86312 -11.31973 -11.31826 -11.28650 -11.28538
 Alpha  occ. eigenvalues --  -11.28428 -11.28387 -11.28350 -11.28263 -11.27736
 Alpha  occ. eigenvalues --  -11.27556 -11.27541 -11.27447  -1.60480  -1.60325
 Alpha  occ. eigenvalues --   -1.40030  -1.39874  -1.20178  -1.20026  -1.09541
 Alpha  occ. eigenvalues --   -1.09415  -1.05623  -1.05446  -0.96345  -0.96220
 Alpha  occ. eigenvalues --   -0.87020  -0.86846  -0.83198  -0.83035  -0.78227
 Alpha  occ. eigenvalues --   -0.78038  -0.72683  -0.72528  -0.71807  -0.71650
 Alpha  occ. eigenvalues --   -0.71272  -0.71189  -0.65835  -0.65807  -0.65645
 Alpha  occ. eigenvalues --   -0.65369  -0.62997  -0.62750  -0.56136  -0.55971
 Alpha  occ. eigenvalues --   -0.53915  -0.53821  -0.53677  -0.53528  -0.49453
 Alpha  occ. eigenvalues --   -0.49429  -0.49301  -0.49272  -0.45405  -0.45246
 Alpha  occ. eigenvalues --   -0.38149  -0.38046  -0.37230  -0.37040
 Alpha virt. eigenvalues --    0.04344   0.04479   0.10368   0.10532   0.15725
 Alpha virt. eigenvalues --    0.15905   0.18079   0.21958   0.24763   0.26987
 Alpha virt. eigenvalues --    0.27575   0.28836   0.30018   0.30638   0.31609

 Mulliken charges:
               1
     1  C   -0.171061
     2  C   -0.218356
     3  C   -0.169173
     4  C    0.159131
     5  C   -0.171496
     6  C   -0.226091
     7  H    0.228549
     8  H    0.226594
     9  H    0.278459
    10  H    0.274361
    11  H    0.218503
    12  N    0.488096
    13  O   -0.459744
    14  O   -0.457869
    15  C   -0.175499
    16  C   -0.220970
    17  C   -0.169571
    18  C    0.159108
    19  C   -0.169970
    20  C   -0.218153
    21  H    0.222842
    22  H    0.219606
    23  H    0.278050
    24  H    0.277947
    25  H    0.225954
    26  N    0.487940
    27  O   -0.458528
    28  O   -0.458658
 Sum of Mulliken charges =  -0.00000

 Dipole moment (field-independent basis, Debye):
    X=             -1.8002    Y=              4.6617    Z=              0.6294  Tot=              5.0367
 Quadrupole moment (field-independent basis, Debye-Ang):
   XX=           -171.1246   YY=           -103.5577   ZZ=           -102.1004
   XY=            -17.1874   XZ=             13.1811   YZ=              1.6704

 Normal termination of Gaussian 16 at Fri May  7 01:53:23 2021.
