 Gaussian 16, Revision A.03,
 Gaussian 16:  EM64L-G16RevA.03 25-Dec-2016

 -------------
 #p 6-31g* mp2
 -------------

 ------------------------------------------------------
 Input file generated by CHIRIPA (05-May-2021 14:57:26)
 ------------------------------------------------------
 Symbolic Z-matrix:
 Charge =  0 Multiplicity = 1

                         Standard orientation:
 ---------------------------------------------------------------------
 Center     Atomic      Atomic             Coordinates (Angstroms)
 Number     Number       Type             X           Y           Z
 ---------------------------------------------------------------------
      1          6           0       -5.500467   -1.081237   -0.692365
      2          6           0       -4.383355   -1.735967   -0.163301
      3          6           0       -3.229458   -1.018349    0.165478
      4          6           0       -3.227240    0.359100   -0.048812
      5          6           0       -4.324256    1.040065   -0.574296
      6          6           0       -5.467411    0.302250   -0.895816
      7          1           0       -6.392669   -1.646544   -0.944949
      8          1           0       -4.406186   -2.810313   -0.004227
      9          1           0       -2.350516   -1.499947    0.576506
     10          1           0       -4.271560    2.111955   -0.721576
     11          1           0       -6.333496    0.813371   -1.306543
     12          7           0       -2.011348    1.129500    0.295409
     13          8           0       -2.034668    2.342249    0.097085
     14          8           0       -1.058033    0.506003    0.757014
     15          6           0        5.202526    0.316365   -1.601746
     16          6           0        4.851418    1.258723   -0.629530
     17          6           0        3.869377    0.965658    0.321394
     18          6           0        3.256044   -0.285154    0.270598
     19          6           0        3.583945   -1.245099   -0.685581
     20          6           0        4.568786   -0.930342   -1.626624
     21          1           0        5.966487    0.552450   -2.336608
     22          1           0        5.341918    2.227736   -0.607804
     23          1           0        3.578222    1.676628    1.085048
     24          1           0        3.077372   -2.202590   -0.681892
     25          1           0        4.839433   -1.664136   -2.380507
     26          7           0        2.214919   -0.606892    1.272069
     27          8           0        1.689446   -1.716009    1.205919
     28          8           0        1.944072    0.256138    2.104209
 ---------------------------------------------------------------------

 SCF Done:  E(RHF) =  -868.336898202     A.U. after   16 cycles
 E2 =    -0.2600267719D+01 EUMP2 =    -0.87093716592132D+03

 The electronic state is 1-A.
 Alpha  occ. eigenvalues --  -20.59999 -20.59926 -20.59648 -20.59525 -15.85016
 Alpha  occ. eigenvalues --  -15.84651 -11.30536 -11.30310 -11.27177 -11.27056
 Alpha  occ. eigenvalues --  -11.26958 -11.26946 -11.26878 -11.26746 -11.26226
 Alpha  occ. eigenvalues --  -11.26165 -11.26045 -11.25992  -1.59051  -1.58619
 Alpha  occ. eigenvalues --   -1.38592  -1.38183  -1.18739  -1.18513  -1.08115
 Alpha  occ. eigenvalues --   -1.07856  -1.04160  -1.03970  -0.94917  -0.94643
 Alpha  occ. eigenvalues --   -0.85552  -0.85356  -0.81739  -0.81489  -0.76751
 Alpha  occ. eigenvalues --   -0.76476  -0.71313  -0.70893  -0.70390  -0.69897
 Alpha  occ. eigenvalues --   -0.69765  -0.69641  -0.64384  -0.64178  -0.64164
 Alpha  occ. eigenvalues --   -0.63990  -0.61490  -0.61320  -0.54678  -0.54481
 Alpha  occ. eigenvalues --   -0.52495  -0.52274  -0.52249  -0.52078  -0.48059
 Alpha  occ. eigenvalues --   -0.47977  -0.47642  -0.47589  -0.43977  -0.43487
 Alpha  occ. eigenvalues --   -0.36750  -0.36511  -0.35775  -0.35585
 Alpha virt. eigenvalues --    0.05761   0.06105   0.11875   0.12067   0.17212
 Alpha virt. eigenvalues --    0.17529   0.21990   0.22116   0.27901   0.27994
 Alpha virt. eigenvalues --    0.28918   0.29057   0.31509   0.31632   0.33263

 Mulliken charges:
               1
     1  C   -0.171487
     2  C   -0.219421
     3  C   -0.173025
     4  C    0.157121
     5  C   -0.171713
     6  C   -0.219082
     7  H    0.223227
     8  H    0.222932
     9  H    0.285900
    10  H    0.273617
    11  H    0.220836
    12  N    0.487839
    13  O   -0.466647
    14  O   -0.450463
    15  C   -0.171991
    16  C   -0.218693
    17  C   -0.168508
    18  C    0.162299
    19  C   -0.171812
    20  C   -0.218769
    21  H    0.222300
    22  H    0.221565
    23  H    0.277969
    24  H    0.271864
    25  H    0.219525
    26  N    0.493741
    27  O   -0.469959
    28  O   -0.449164
 Sum of Mulliken charges =  -0.00000

 Dipole moment (field-independent basis, Debye):
    X=             -0.6070    Y=             -1.5280    Z=             -4.4846  Tot=              4.7765
 Quadrupole moment (field-independent basis, Debye-Ang):
   XX=            -55.5356   YY=           -100.5283   ZZ=           -106.7549
   XY=              9.1147   XZ=             -5.2267   YZ=              1.8224

 Normal termination of Gaussian 16 at Thu May  6 09:55:21 2021.
