 Gaussian 16, Revision A.03,
 Gaussian 16:  EM64L-G16RevA.03 25-Dec-2016

 -------------
 #p 6-31g* mp2
 -------------

 ------------------------------------------------------
 Input file generated by CHIRIPA (05-May-2021 14:55:19)
 ------------------------------------------------------
 Symbolic Z-matrix:
 Charge =  0 Multiplicity = 1

                         Standard orientation:
 ---------------------------------------------------------------------
 Center     Atomic      Atomic             Coordinates (Angstroms)
 Number     Number       Type             X           Y           Z
 ---------------------------------------------------------------------
      1          6           0       -1.758161    1.730396    0.301622
      2          6           0       -1.876315    0.724883    1.266767
      3          6           0       -2.850203   -0.270106    1.139936
      4          6           0       -3.693018   -0.228943    0.030315
      5          6           0       -3.600221    0.759670   -0.948113
      6          6           0       -2.618974    1.744555   -0.800794
      7          1           0       -0.998762    2.499402    0.408105
      8          1           0       -1.209168    0.711384    2.123959
      9          1           0       -2.963665   -1.060191    1.872268
     10          1           0       -4.279723    0.746759   -1.791635
     11          1           0       -2.529519    2.524228   -1.551896
     12          7           0       -4.727926   -1.276945   -0.114800
     13          8           0       -5.458242   -1.218419   -1.101638
     14          8           0       -4.789174   -2.137050    0.761045
     15          6           0        4.768317   -0.598310   -0.327852
     16          6           0        6.174321   -0.936372    0.168991
     17          6           0        6.679785   -2.280286   -0.356553
     18          1           0        4.077071   -1.396105   -0.023471
     19          1           0        4.768121   -0.586920   -1.426608
     20          1           0        6.172184   -0.945761    1.266498
     21          1           0        6.862263   -0.137585   -0.136442
     22          1           0        6.710574   -2.279033   -1.450926
     23          1           0        6.016574   -3.091800   -0.040014
     24          1           0        7.686583   -2.502066    0.010913
     25          6           0        4.249163    0.742232    0.189018
     26          6           0        2.843160    1.080295   -0.307825
     27          6           0        2.337695    2.424208    0.217719
     28          1           0        4.249358    0.730844    1.287774
     29          1           0        4.940409    1.540028   -0.115362
     30          1           0        2.155217    0.281507   -0.002392
     31          1           0        2.845296    1.089683   -1.405333
     32          1           0        3.000906    3.235722   -0.098820
     33          1           0        2.306905    2.422955    1.312091
     34          1           0        1.330897    2.645988   -0.149747
 ---------------------------------------------------------------------

 SCF Done:  E(RHF) =  -669.535498139     A.U. after   15 cycles
 E2 =    -0.2090930299D+01 EUMP2 =    -0.67162642843765D+03

 The electronic state is 1-A.
 Alpha  occ. eigenvalues --  -20.60753 -20.60748 -15.85807 -11.31173 -11.27742
 Alpha  occ. eigenvalues --  -11.27739 -11.27454 -11.26756 -11.26746 -11.22390
 Alpha  occ. eigenvalues --  -11.22174 -11.22011 -11.21989 -11.21843 -11.21374
 Alpha  occ. eigenvalues --   -1.59829  -1.39382  -1.19344  -1.09017  -1.08736
 Alpha  occ. eigenvalues --   -1.04748  -1.04156  -0.96628  -0.95571  -0.87648
 Alpha  occ. eigenvalues --   -0.86143  -0.82407  -0.80220  -0.78787  -0.77454
 Alpha  occ. eigenvalues --   -0.72025  -0.71152  -0.70472  -0.65644  -0.64995
 Alpha  occ. eigenvalues --   -0.64754  -0.62097  -0.61546  -0.60064  -0.58231
 Alpha  occ. eigenvalues --   -0.55912  -0.55275  -0.53315  -0.53099  -0.52976
 Alpha  occ. eigenvalues --   -0.52838  -0.50553  -0.48785  -0.48780  -0.48529
 Alpha  occ. eigenvalues --   -0.47237  -0.46339  -0.46240  -0.44788  -0.44403
 Alpha  occ. eigenvalues --   -0.37312  -0.36354
 Alpha virt. eigenvalues --    0.05059   0.11284   0.16472   0.20179   0.22544
 Alpha virt. eigenvalues --    0.23954   0.26037   0.26223   0.26946   0.27206
 Alpha virt. eigenvalues --    0.28756   0.30151   0.30883   0.31505   0.32385

 Mulliken charges:
               1
     1  C   -0.173083
     2  C   -0.220239
     3  C   -0.170996
     4  C    0.158574
     5  C   -0.170815
     6  C   -0.219731
     7  H    0.231393
     8  H    0.223601
     9  H    0.275422
    10  H    0.275545
    11  H    0.223342
    12  N    0.488059
    13  O   -0.460446
    14  O   -0.460529
    15  C   -0.298821
    16  C   -0.300064
    17  C   -0.476066
    18  H    0.150671
    19  H    0.150793
    20  H    0.152055
    21  H    0.152377
    22  H    0.155918
    23  H    0.156055
    24  H    0.161373
    25  C   -0.298972
    26  C   -0.299447
    27  C   -0.479498
    28  H    0.149299
    29  H    0.150909
    30  H    0.153005
    31  H    0.154661
    32  H    0.160183
    33  H    0.153892
    34  H    0.151581
 Sum of Mulliken charges =  -0.00000

 Dipole moment (field-independent basis, Debye):
    X=              3.8205    Y=              3.6477    Z=              0.4813  Tot=              5.3041
 Quadrupole moment (field-independent basis, Debye-Ang):
   XX=           -121.4085   YY=            -96.9121   ZZ=            -90.7223
   XY=            -14.6944   XZ=             -0.5302   YZ=             -2.8231

 Normal termination of Gaussian 16 at Thu May  6 19:02:23 2021.
