 Gaussian 16, Revision A.03,
 Gaussian 16:  EM64L-G16RevA.03 25-Dec-2016

 -------------
 #p 6-31g* mp2
 -------------

 ------------------------------------------------------
 Input file generated by CHIRIPA (05-May-2021 14:53:14)
 ------------------------------------------------------
 Symbolic Z-matrix:
 Charge =  0 Multiplicity = 1

                         Standard orientation:
 ---------------------------------------------------------------------
 Center     Atomic      Atomic             Coordinates (Angstroms)
 Number     Number       Type             X           Y           Z
 ---------------------------------------------------------------------
      1          6           0        3.872227    0.057978    0.190873
      2          6           0        4.575144   -0.441147   -1.071967
      3          6           0        5.752846    0.443598   -1.481893
      4          1           0        3.520535    1.085516    0.025278
      5          1           0        4.599973    0.105330    1.012785
      6          1           0        3.845978   -0.488861   -1.890903
      7          1           0        4.925036   -1.467686   -0.903413
      8          1           0        6.501459    0.482549   -0.683982
      9          1           0        5.416270    1.466935   -1.677083
     10          1           0        6.240825    0.068519   -2.386908
     11          6           0        2.692723   -0.816108    0.613334
     12          6           0        1.989807   -0.316983    1.876175
     13          6           0        0.812105   -1.201728    2.286101
     14          1           0        1.964977   -0.863460   -0.208577
     15          1           0        3.044416   -1.843647    0.778930
     16          1           0        1.639915    0.709556    1.707621
     17          1           0        2.718973   -0.269269    2.695111
     18          1           0        1.148680   -2.225065    2.481291
     19          1           0        0.063492   -1.240679    1.488189
     20          1           0        0.324126   -0.826649    3.191116
     21          6           0       -1.015245    2.242730    0.106261
     22          6           0       -0.521241    1.065850   -0.465958
     23          6           0       -1.370468   -0.019035   -0.703412
     24          6           0       -2.714203    0.107955   -0.354787
     25          6           0       -3.236397    1.267229    0.216781
     26          6           0       -2.368860    2.339494    0.445206
     27          1           0       -0.348432    3.080593    0.287214
     28          1           0        0.529542    0.987874   -0.730197
     29          1           0       -1.014501   -0.941855   -1.145122
     30          1           0       -4.288648    1.315155    0.469540
     31          1           0       -2.755285    3.252246    0.889732
     32          7           0       -3.622936   -1.033883   -0.601389
     33          8           0       -4.802731   -0.896840   -0.285262
     34          8           0       -3.138195   -2.044276   -1.106136
 ---------------------------------------------------------------------

 SCF Done:  E(RHF) =  -669.533904611     A.U. after   15 cycles
 E2 =    -0.2094738914D+01 EUMP2 =    -0.67162864352541D+03

 The electronic state is 1-A.
 Alpha  occ. eigenvalues --  -20.60802 -20.60797 -15.85857 -11.31259 -11.27808
 Alpha  occ. eigenvalues --  -11.27803 -11.27551 -11.26836 -11.26805 -11.22276
 Alpha  occ. eigenvalues --  -11.22218 -11.22177 -11.22136 -11.21643 -11.21300
 Alpha  occ. eigenvalues --   -1.59877  -1.39429  -1.19432  -1.09165  -1.08806
 Alpha  occ. eigenvalues --   -1.04861  -1.04092  -0.96550  -0.95647  -0.87564
 Alpha  occ. eigenvalues --   -0.86230  -0.82487  -0.80177  -0.78981  -0.77530
 Alpha  occ. eigenvalues --   -0.72074  -0.71201  -0.70534  -0.66033  -0.65080
 Alpha  occ. eigenvalues --   -0.64709  -0.62260  -0.61414  -0.59917  -0.58164
 Alpha  occ. eigenvalues --   -0.55934  -0.55319  -0.53208  -0.53187  -0.52955
 Alpha  occ. eigenvalues --   -0.52815  -0.50462  -0.48834  -0.48828  -0.48470
 Alpha  occ. eigenvalues --   -0.47240  -0.46487  -0.46475  -0.44826  -0.44405
 Alpha  occ. eigenvalues --   -0.37386  -0.36355
 Alpha virt. eigenvalues --    0.04979   0.11078   0.16398   0.19029   0.22906
 Alpha virt. eigenvalues --    0.24103   0.25093   0.25604   0.27026   0.28612
 Alpha virt. eigenvalues --    0.29288   0.31068   0.31263   0.31700   0.31925

 Mulliken charges:
               1
     1  C   -0.299209
     2  C   -0.299571
     3  C   -0.475874
     4  H    0.142185
     5  H    0.153986
     6  H    0.149411
     7  H    0.155721
     8  H    0.156904
     9  H    0.153667
    10  H    0.162942
    11  C   -0.301726
    12  C   -0.300042
    13  C   -0.478358
    14  H    0.139144
    15  H    0.156956
    16  H    0.144888
    17  H    0.154721
    18  H    0.157010
    19  H    0.159949
    20  H    0.161508
    21  C   -0.172534
    22  C   -0.215604
    23  C   -0.177564
    24  C    0.160236
    25  C   -0.171091
    26  C   -0.217924
    27  H    0.225957
    28  H    0.230387
    29  H    0.276271
    30  H    0.275910
    31  H    0.223818
    32  N    0.488289
    33  O   -0.460107
    34  O   -0.460254
 Sum of Mulliken charges =  -0.00000

 Dipole moment (field-independent basis, Debye):
    X=              3.2434    Y=              3.9687    Z=              0.9142  Tot=              5.2064
 Quadrupole moment (field-independent basis, Debye-Ang):
   XX=           -109.1865   YY=            -92.8455   ZZ=            -95.1715
   XY=            -14.0892   XZ=             -4.4345   YZ=             -0.3370

 Normal termination of Gaussian 16 at Wed May  5 20:15:01 2021.
