 Gaussian 16, Revision A.03,
 Gaussian 16:  EM64L-G16RevA.03 25-Dec-2016

 -------------
 #p 6-31g* mp2
 -------------

 ------------------------------------------------------
 Input file generated by CHIRIPA (05-May-2021 14:57:24)
 ------------------------------------------------------
 Symbolic Z-matrix:
 Charge =  0 Multiplicity = 1

                         Standard orientation:
 ---------------------------------------------------------------------
 Center     Atomic      Atomic             Coordinates (Angstroms)
 Number     Number       Type             X           Y           Z
 ---------------------------------------------------------------------
      1          6           0        2.257276    2.280313   -0.180470
      2          6           0        3.187161    1.936855   -1.167319
      3          6           0        3.872761    0.720091   -1.104184
      4          6           0        3.602692   -0.133213   -0.035435
      5          6           0        2.682038    0.180558    0.963181
      6          6           0        2.008121    1.402616    0.879761
      7          1           0        1.729223    3.227581   -0.237394
      8          1           0        3.382677    2.616529   -1.991857
      9          1           0        4.597778    0.429117   -1.854586
     10          1           0        2.508414   -0.517603    1.773023
     11          1           0        1.286498    1.666721    1.647585
     12          7           0        4.322322   -1.424149    0.042140
     13          8           0        4.066429   -2.158495    0.993924
     14          8           0        5.128635   -1.677194   -0.850308
     15          6           0       -2.628430    2.228933    0.600202
     16          6           0       -3.676306    2.070550   -0.312700
     17          6           0       -4.158445    0.796231   -0.626073
     18          6           0       -3.566810   -0.302724   -0.005142
     19          6           0       -2.521416   -0.177481    0.908506
     20          6           0       -2.055340    1.106391    1.206823
     21          1           0       -2.260132    3.222565    0.837791
     22          1           0       -4.123287    2.940531   -0.785339
     23          1           0       -4.968467    0.644888   -1.329193
     24          1           0       -2.095970   -1.063687    1.363537
     25          1           0       -1.241418    1.226383    1.916174
     26          7           0       -4.068727   -1.656845   -0.328928
     27          8           0       -3.530504   -2.609014    0.231722
     28          8           0       -4.990847   -1.740396   -1.137228
 ---------------------------------------------------------------------

 SCF Done:  E(RHF) =  -868.336042453     A.U. after   16 cycles
 E2 =    -0.2600091947D+01 EUMP2 =    -0.87093613440015D+03

 The electronic state is 1-A.
 Alpha  occ. eigenvalues --  -20.61094 -20.61085 -20.61070 -20.61065 -15.86153
 Alpha  occ. eigenvalues --  -15.86132 -11.31687 -11.31650 -11.28305 -11.28295
 Alpha  occ. eigenvalues --  -11.28269 -11.28218 -11.28142 -11.28080 -11.27452
 Alpha  occ. eigenvalues --  -11.27423 -11.27332 -11.27264  -1.60164  -1.60142
 Alpha  occ. eigenvalues --   -1.39713  -1.39692  -1.19897  -1.19854  -1.09279
 Alpha  occ. eigenvalues --   -1.09227  -1.05345  -1.05284  -0.96074  -0.96032
 Alpha  occ. eigenvalues --   -0.86781  -0.86654  -0.82925  -0.82854  -0.77953
 Alpha  occ. eigenvalues --   -0.77845  -0.72369  -0.72348  -0.71490  -0.71466
 Alpha  occ. eigenvalues --   -0.71040  -0.70978  -0.65605  -0.65556  -0.65518
 Alpha  occ. eigenvalues --   -0.65148  -0.62802  -0.62519  -0.55903  -0.55794
 Alpha  occ. eigenvalues --   -0.53715  -0.53584  -0.53550  -0.53239  -0.49150
 Alpha  occ. eigenvalues --   -0.49114  -0.49111  -0.49092  -0.45080  -0.45063
 Alpha  occ. eigenvalues --   -0.37973  -0.37791  -0.37036  -0.36759
 Alpha virt. eigenvalues --    0.04603   0.04712   0.10405   0.11004   0.15941
 Alpha virt. eigenvalues --    0.16222   0.18467   0.21990   0.24612   0.26991
 Alpha virt. eigenvalues --    0.28159   0.28768   0.29198   0.31575   0.31800

 Mulliken charges:
               1
     1  C   -0.169412
     2  C   -0.218065
     3  C   -0.169360
     4  C    0.159611
     5  C   -0.170690
     6  C   -0.217349
     7  H    0.222276
     8  H    0.224900
     9  H    0.277869
    10  H    0.275567
    11  H    0.213925
    12  N    0.488172
    13  O   -0.458980
    14  O   -0.458467
    15  C   -0.172335
    16  C   -0.218266
    17  C   -0.169845
    18  C    0.159236
    19  C   -0.169401
    20  C   -0.217585
    21  H    0.221339
    22  H    0.224326
    23  H    0.277576
    24  H    0.278058
    25  H    0.215735
    26  N    0.487939
    27  O   -0.457655
    28  O   -0.459117
 Sum of Mulliken charges =  -0.00000

 Dipole moment (field-independent basis, Debye):
    X=             -0.7577    Y=              9.1485    Z=              0.6875  Tot=              9.2055
 Quadrupole moment (field-independent basis, Debye-Ang):
   XX=           -132.1511   YY=           -109.1611   ZZ=           -100.0996
   XY=             -1.7076   XZ=             -5.0345   YZ=             -3.3439

 Normal termination of Gaussian 16 at Fri May  7 01:53:11 2021.
