 Gaussian 16, Revision A.03,
 Gaussian 16:  EM64L-G16RevA.03 25-Dec-2016

 -------------
 #p 6-31g* mp2
 -------------

 ------------------------------------------------------
 Input file generated by CHIRIPA (05-May-2021 14:55:22)
 ------------------------------------------------------
 Symbolic Z-matrix:
 Charge =  0 Multiplicity = 1

                         Standard orientation:
 ---------------------------------------------------------------------
 Center     Atomic      Atomic             Coordinates (Angstroms)
 Number     Number       Type             X           Y           Z
 ---------------------------------------------------------------------
      1          6           0       -1.513527    1.289148    1.402961
      2          6           0       -2.757166    1.032140    1.989331
      3          6           0       -3.721596    0.282694    1.309070
      4          6           0       -3.407386   -0.196528    0.038280
      5          6           0       -2.177389    0.042657   -0.572611
      6          6           0       -1.228111    0.794458    0.126113
      7          1           0       -0.770220    1.872250    1.938575
      8          1           0       -2.981584    1.415059    2.980821
      9          1           0       -4.692384    0.068834    1.739480
     10          1           0       -1.982761   -0.352358   -1.562308
     11          1           0       -0.263123    0.992493   -0.331737
     12          7           0       -4.420364   -0.991180   -0.691655
     13          8           0       -4.118991   -1.402145   -1.810099
     14          8           0       -5.496530   -1.188016   -0.131511
     15          6           0        4.195039   -0.642348    0.028826
     16          6           0        5.628381   -1.099765    0.301376
     17          6           0        5.706610   -2.554875    0.764335
     18          1           0        3.596132   -0.771175    0.940780
     19          1           0        3.747924   -1.295205   -0.733578
     20          1           0        6.073123   -0.445382    1.062036
     21          1           0        6.223993   -0.969655   -0.611276
     22          1           0        5.288074   -3.223667    0.005292
     23          1           0        5.136346   -2.696417    1.688113
     24          1           0        6.740241   -2.860988    0.953439
     25          6           0        4.100475    0.810181   -0.434796
     26          6           0        2.667131    1.267599   -0.707345
     27          6           0        2.588903    2.722709   -1.170304
     28          1           0        4.547589    1.463039    0.327609
     29          1           0        4.699381    0.939008   -1.346749
     30          1           0        2.071520    1.137488    0.205308
     31          1           0        2.222391    0.613217   -1.468006
     32          1           0        3.159167    2.864250   -2.094082
     33          1           0        3.007440    3.391501   -0.411261
     34          1           0        1.555272    3.028822   -1.359407
 ---------------------------------------------------------------------

 SCF Done:  E(RHF) =  -669.535368909     A.U. after   15 cycles
 E2 =    -0.2091482987D+01 EUMP2 =    -0.67162685189596D+03

 The electronic state is 1-A.
 Alpha  occ. eigenvalues --  -20.60712 -20.60707 -15.85764 -11.31116 -11.27683
 Alpha  occ. eigenvalues --  -11.27661 -11.27417 -11.26705 -11.26609 -11.22805
 Alpha  occ. eigenvalues --  -11.22243 -11.22138 -11.22136 -11.22041 -11.21488
 Alpha  occ. eigenvalues --   -1.59788  -1.39342  -1.19281  -1.09246  -1.08681
 Alpha  occ. eigenvalues --   -1.04684  -1.04341  -0.96753  -0.95520  -0.87765
 Alpha  occ. eigenvalues --   -0.86085  -0.82354  -0.80467  -0.79026  -0.77392
 Alpha  occ. eigenvalues --   -0.71983  -0.71110  -0.70399  -0.65880  -0.64931
 Alpha  occ. eigenvalues --   -0.64709  -0.62091  -0.61709  -0.60130  -0.58363
 Alpha  occ. eigenvalues --   -0.56011  -0.55183  -0.53472  -0.53178  -0.53008
 Alpha  occ. eigenvalues --   -0.52758  -0.50684  -0.48810  -0.48739  -0.48658
 Alpha  occ. eigenvalues --   -0.47488  -0.46546  -0.46450  -0.44750  -0.44576
 Alpha  occ. eigenvalues --   -0.37266  -0.36278
 Alpha virt. eigenvalues --    0.05128   0.11328   0.16622   0.19812   0.22417
 Alpha virt. eigenvalues --    0.23778   0.25446   0.25801   0.26836   0.27976
 Alpha virt. eigenvalues --    0.28894   0.29931   0.30790   0.31434   0.31776

 Mulliken charges:
               1
     1  C   -0.174686
     2  C   -0.218315
     3  C   -0.171577
     4  C    0.159109
     5  C   -0.173840
     6  C   -0.228192
     7  H    0.225028
     8  H    0.222967
     9  H    0.275261
    10  H    0.275594
    11  H    0.241334
    12  N    0.488014
    13  O   -0.460586
    14  O   -0.460712
    15  C   -0.299295
    16  C   -0.300361
    17  C   -0.476194
    18  H    0.149161
    19  H    0.151263
    20  H    0.152306
    21  H    0.153391
    22  H    0.156686
    23  H    0.155525
    24  H    0.162018
    25  C   -0.297044
    26  C   -0.307297
    27  C   -0.478480
    28  H    0.151223
    29  H    0.153463
    30  H    0.144388
    31  H    0.152284
    32  H    0.161716
    33  H    0.158021
    34  H    0.157829
 Sum of Mulliken charges =  -0.00000

 Dipole moment (field-independent basis, Debye):
    X=              3.8404    Y=              2.7897    Z=              2.5303  Tot=              5.3790
 Quadrupole moment (field-independent basis, Debye-Ang):
   XX=           -116.6813   YY=            -97.4280   ZZ=            -90.9830
   XY=            -10.4258   XZ=            -11.8291   YZ=              0.6500

 Normal termination of Gaussian 16 at Wed May  5 20:41:10 2021.
