 Gaussian 16, Revision A.03,
 Gaussian 16:  EM64L-G16RevA.03 25-Dec-2016

 -------------
 #p 6-31g* mp2
 -------------

 ------------------------------------------------------
 Input file generated by CHIRIPA (05-May-2021 14:55:25)
 ------------------------------------------------------
 Symbolic Z-matrix:
 Charge =  0 Multiplicity = 1

                         Standard orientation:
 ---------------------------------------------------------------------
 Center     Atomic      Atomic             Coordinates (Angstroms)
 Number     Number       Type             X           Y           Z
 ---------------------------------------------------------------------
      1          6           0        1.604552   -2.041391    1.465160
      2          6           0        0.813359   -0.892855    1.358395
      3          6           0        1.258901    0.210541    0.624530
      4          6           0        2.506386    0.130764    0.007516
      5          6           0        3.317784   -0.999373    0.095355
      6          6           0        2.852040   -2.090897    0.834412
      7          1           0        1.250598   -2.893925    2.037261
      8          1           0       -0.155880   -0.851591    1.847186
      9          1           0        0.666779    1.112210    0.525521
     10          1           0        4.279504   -1.010827   -0.403023
     11          1           0        3.468629   -2.981554    0.915613
     12          7           0        2.988755    1.292596   -0.772143
     13          8           0        4.091561    1.197255   -1.306339
     14          8           0        2.254896    2.276581   -0.834279
     15          6           0       -3.040742   -0.674988   -0.062081
     16          6           0       -3.190051   -1.494182   -1.344505
     17          6           0       -3.056232   -2.998217   -1.104165
     18          1           0       -2.063221   -0.889815    0.390961
     19          1           0       -3.799570   -1.000328    0.662992
     20          1           0       -2.432057   -1.166440   -2.067447
     21          1           0       -4.167252   -1.277235   -1.794648
     22          1           0       -3.821376   -3.345796   -0.402492
     23          1           0       -2.076321   -3.234373   -0.676842
     24          1           0       -3.166262   -3.564734   -2.034118
     25          6           0       -3.172086    0.830431   -0.286112
     26          6           0       -3.022777    1.649626    0.996312
     27          6           0       -3.156596    3.153661    0.755973
     28          1           0       -2.413258    1.155772   -1.011184
     29          1           0       -4.149607    1.045258   -0.739154
     30          1           0       -2.045576    1.432679    1.446456
     31          1           0       -3.780772    1.321884    1.719254
     32          1           0       -4.136507    3.389816    0.328649
     33          1           0       -2.391452    3.501241    0.054301
     34          1           0       -3.046567    3.720178    1.685926
 ---------------------------------------------------------------------

 SCF Done:  E(RHF) =  -669.535374566     A.U. after   15 cycles
 E2 =    -0.2092651438D+01 EUMP2 =    -0.67162802600497D+03

 The electronic state is 1-A.
 Alpha  occ. eigenvalues --  -20.60812 -20.60806 -15.85865 -11.31238 -11.27811
 Alpha  occ. eigenvalues --  -11.27808 -11.27548 -11.26821 -11.26793 -11.22213
 Alpha  occ. eigenvalues --  -11.22038 -11.21962 -11.21837 -11.21536 -11.21349
 Alpha  occ. eigenvalues --   -1.59886  -1.39440  -1.19414  -1.08954  -1.08802
 Alpha  occ. eigenvalues --   -1.04818  -1.03992  -0.96422  -0.95638  -0.87436
 Alpha  occ. eigenvalues --   -0.86214  -0.82476  -0.80065  -0.78800  -0.77509
 Alpha  occ. eigenvalues --   -0.72083  -0.71209  -0.70518  -0.65650  -0.65055
 Alpha  occ. eigenvalues --   -0.64804  -0.62154  -0.61383  -0.59791  -0.58042
 Alpha  occ. eigenvalues --   -0.55718  -0.55307  -0.53156  -0.53101  -0.52979
 Alpha  occ. eigenvalues --   -0.52770  -0.50351  -0.48844  -0.48838  -0.48374
 Alpha  occ. eigenvalues --   -0.47110  -0.46308  -0.46212  -0.44843  -0.44255
 Alpha  occ. eigenvalues --   -0.37387  -0.36396
 Alpha virt. eigenvalues --    0.04999   0.11152   0.16364   0.18857   0.22872
 Alpha virt. eigenvalues --    0.23507   0.24828   0.26444   0.27497   0.28137
 Alpha virt. eigenvalues --    0.29636   0.30876   0.31207   0.31625   0.31826

 Mulliken charges:
               1
     1  C   -0.172194
     2  C   -0.220322
     3  C   -0.174533
     4  C    0.159132
     5  C   -0.170345
     6  C   -0.218627
     7  H    0.226353
     8  H    0.227360
     9  H    0.277994
    10  H    0.275850
    11  H    0.223794
    12  N    0.488122
    13  O   -0.460186
    14  O   -0.460613
    15  C   -0.303163
    16  C   -0.299467
    17  C   -0.476105
    18  H    0.144098
    19  H    0.149239
    20  H    0.155887
    21  H    0.154271
    22  H    0.154532
    23  H    0.152152
    24  H    0.162822
    25  C   -0.300742
    26  C   -0.300848
    27  C   -0.477359
    28  H    0.154564
    29  H    0.153417
    30  H    0.140812
    31  H    0.153173
    32  H    0.157356
    33  H    0.161891
    34  H    0.161685
 Sum of Mulliken charges =  -0.00000

 Dipole moment (field-independent basis, Debye):
    X=             -1.7699    Y=             -4.0291    Z=              2.6393  Tot=              5.1314
 Quadrupole moment (field-independent basis, Debye-Ang):
   XX=            -98.4455   YY=            -95.9986   ZZ=            -95.1731
   XY=            -13.1869   XZ=              6.0137   YZ=              0.8672

 Normal termination of Gaussian 16 at Thu May  6 01:38:01 2021.
