 Gaussian 16, Revision A.03,
 Gaussian 16:  EM64L-G16RevA.03 25-Dec-2016

 -------------
 #p 6-31g* mp2
 -------------

 ------------------------------------------------------
 Input file generated by CHIRIPA (05-May-2021 14:57:21)
 ------------------------------------------------------
 Symbolic Z-matrix:
 Charge =  0 Multiplicity = 1

                         Standard orientation:
 ---------------------------------------------------------------------
 Center     Atomic      Atomic             Coordinates (Angstroms)
 Number     Number       Type             X           Y           Z
 ---------------------------------------------------------------------
      1          6           0       -1.943108    1.586393   -0.090547
      2          6           0       -1.846715    0.316495   -0.668983
      3          6           0       -2.948218   -0.544394   -0.679472
      4          6           0       -4.136035   -0.100992   -0.100009
      5          6           0       -4.263448    1.158355    0.484029
      6          6           0       -3.149040    2.002537    0.483102
      7          1           0       -1.082421    2.248663   -0.086833
      8          1           0       -0.911438   -0.009350   -1.115218
      9          1           0       -2.901279   -1.532698   -1.120459
     10          1           0       -5.209115    1.455118    0.921137
     11          1           0       -3.226802    2.988212    0.933037
     12          7           0       -5.308978   -1.003533   -0.105071
     13          8           0       -6.344187   -0.589209    0.411955
     14          8           0       -5.170911   -2.108178   -0.625968
     15          6           0        6.317789   -0.842432   -0.206548
     16          6           0        5.410052   -1.614641    0.525729
     17          6           0        4.091597   -1.184160    0.701542
     18          6           0        3.713107    0.029069    0.128732
     19          6           0        4.594127    0.820878   -0.606205
     20          6           0        5.907652    0.370724   -0.769185
     21          1           0        7.340081   -1.184481   -0.338139
     22          1           0        5.725782   -2.557213    0.963813
     23          1           0        3.368228   -1.762180    1.263724
     24          1           0        4.250019    1.756064   -1.030980
     25          1           0        6.610449    0.972507   -1.338376
     26          7           0        2.319927    0.495213    0.308064
     27          8           0        2.011276    1.567797   -0.206654
     28          8           0        1.562984   -0.220835    0.959946
 ---------------------------------------------------------------------

 SCF Done:  E(RHF) =  -868.341180628     A.U. after   16 cycles
 E2 =    -0.2598828343D+01 EUMP2 =    -0.87094000897104D+03

 The electronic state is 1-A.
 Alpha  occ. eigenvalues --  -20.62082 -20.62070 -20.59767 -20.59761 -15.87063
 Alpha  occ. eigenvalues --  -15.84811 -11.32052 -11.29866 -11.28580 -11.28556
 Alpha  occ. eigenvalues --  -11.28238 -11.27497 -11.27479 -11.26448 -11.26375
 Alpha  occ. eigenvalues --  -11.25843 -11.25341 -11.25175  -1.61134  -1.58850
 Alpha  occ. eigenvalues --   -1.40689  -1.38413  -1.20187  -1.17984  -1.09655
 Alpha  occ. eigenvalues --   -1.07383  -1.05527  -1.03354  -0.96549  -0.94282
 Alpha  occ. eigenvalues --   -0.86942  -0.84732  -0.83391  -0.81151  -0.78482
 Alpha  occ. eigenvalues --   -0.76282  -0.73286  -0.72429  -0.71283  -0.71036
 Alpha  occ. eigenvalues --   -0.70171  -0.68970  -0.65838  -0.65522  -0.63611
 Alpha  occ. eigenvalues --   -0.63327  -0.62875  -0.60729  -0.56039  -0.53881
 Alpha  occ. eigenvalues --   -0.53696  -0.53601  -0.51694  -0.51436  -0.50065
 Alpha  occ. eigenvalues --   -0.49996  -0.47809  -0.47759  -0.46170  -0.43890
 Alpha  occ. eigenvalues --   -0.38143  -0.37111  -0.35855  -0.34965
 Alpha virt. eigenvalues --    0.03997   0.06257   0.10549   0.12713   0.15583
 Alpha virt. eigenvalues --    0.17870   0.20736   0.22991   0.26684   0.27593
 Alpha virt. eigenvalues --    0.28636   0.29895   0.30444   0.31785   0.32628

 Mulliken charges:
               1
     1  C   -0.170885
     2  C   -0.211156
     3  C   -0.174332
     4  C    0.156774
     5  C   -0.172851
     6  C   -0.220766
     7  H    0.242546
     8  H    0.226469
     9  H    0.270130
    10  H    0.270487
    11  H    0.218880
    12  N    0.488398
    13  O   -0.464466
    14  O   -0.464403
    15  C   -0.169287
    16  C   -0.218584
    17  C   -0.170388
    18  C    0.157156
    19  C   -0.170525
    20  C   -0.218565
    21  H    0.228774
    22  H    0.226682
    23  H    0.277425
    24  H    0.275373
    25  H    0.225909
    26  N    0.487889
    27  O   -0.469172
    28  O   -0.457514
 Sum of Mulliken charges =  -0.00000

 Dipole moment (field-independent basis, Debye):
    X=              9.8508    Y=              1.5349    Z=             -0.5744  Tot=              9.9863
 Quadrupole moment (field-independent basis, Debye-Ang):
   XX=           -102.5467   YY=           -100.4264   ZZ=           -103.7504
   XY=            -21.3946   XZ=             -4.3610   YZ=             -1.3534

 Normal termination of Gaussian 16 at Thu May  6 04:52:34 2021.
