 Gaussian 16, Revision A.03,
 Gaussian 16:  EM64L-G16RevA.03 25-Dec-2016

 -------------
 #p 6-31g* mp2
 -------------

 ------------------------------------------------------
 Input file generated by CHIRIPA (05-May-2021 14:55:22)
 ------------------------------------------------------
 Symbolic Z-matrix:
 Charge =  0 Multiplicity = 1

                         Standard orientation:
 ---------------------------------------------------------------------
 Center     Atomic      Atomic             Coordinates (Angstroms)
 Number     Number       Type             X           Y           Z
 ---------------------------------------------------------------------
      1          6           0        1.449841    1.593760    1.675561
      2          6           0        0.706764    0.713839    0.881775
      3          6           0        1.349693   -0.224724    0.069193
      4          6           0        2.743354   -0.255817    0.074880
      5          6           0        3.511528    0.607465    0.854586
      6          6           0        2.847388    1.537863    1.659462
      7          1           0        0.942159    2.319687    2.303801
      8          1           0       -0.378705    0.754974    0.892268
      9          1           0        0.798982   -0.917758   -0.555179
     10          1           0        4.592359    0.542487    0.822951
     11          1           0        3.427045    2.219982    2.274894
     12          7           0        3.435222   -1.245109   -0.781285
     13          8           0        4.664067   -1.252262   -0.758398
     14          8           0        2.735561   -1.994632   -1.459023
     15          6           0       -3.741739   -0.202933    0.305282
     16          6           0       -3.946635   -1.708737    0.136296
     17          6           0       -4.700755   -2.337909    1.308148
     18          1           0       -3.193186   -0.016435    1.238692
     19          1           0       -4.720963    0.283190    0.415742
     20          1           0       -2.967388   -2.191708    0.024802
     21          1           0       -4.494597   -1.891685   -0.796916
     22          1           0       -5.690464   -1.882961    1.418147
     23          1           0       -4.154578   -2.184690    2.244533
     24          1           0       -4.836175   -3.414714    1.166676
     25          6           0       -2.989334    0.440422   -0.858207
     26          6           0       -2.784438    1.946226   -0.689220
     27          6           0       -2.030318    2.575399   -1.861073
     28          1           0       -2.010110   -0.045700   -0.968666
     29          1           0       -3.537886    0.253923   -1.791616
     30          1           0       -2.236477    2.129173    0.243992
     31          1           0       -3.763685    2.429198   -0.577726
     32          1           0       -2.576495    2.422179   -2.797457
     33          1           0       -1.040609    2.120451   -1.971071
     34          1           0       -1.894897    3.652203   -1.719599
 ---------------------------------------------------------------------

 SCF Done:  E(RHF) =  -669.535175756     A.U. after   15 cycles
 E2 =    -0.2092718941D+01 EUMP2 =    -0.67162789469731D+03

 The electronic state is 1-A.
 Alpha  occ. eigenvalues --  -20.60768 -20.60763 -15.85822 -11.31195 -11.27767
 Alpha  occ. eigenvalues --  -11.27763 -11.27501 -11.26780 -11.26736 -11.22551
 Alpha  occ. eigenvalues --  -11.22322 -11.22236 -11.22178 -11.21731 -11.21549
 Alpha  occ. eigenvalues --   -1.59844  -1.39397  -1.19367  -1.09276  -1.08757
 Alpha  occ. eigenvalues --   -1.04777  -1.04245  -0.96680  -0.95594  -0.87692
 Alpha  occ. eigenvalues --   -0.86171  -0.82430  -0.80323  -0.79072  -0.77483
 Alpha  occ. eigenvalues --   -0.72040  -0.71167  -0.70478  -0.66137  -0.65017
 Alpha  occ. eigenvalues --   -0.64665  -0.62213  -0.61497  -0.60048  -0.58287
 Alpha  occ. eigenvalues --   -0.55978  -0.55264  -0.53342  -0.53115  -0.53061
 Alpha  occ. eigenvalues --   -0.52855  -0.50613  -0.48806  -0.48795  -0.48607
 Alpha  occ. eigenvalues --   -0.47390  -0.46580  -0.46557  -0.44801  -0.44533
 Alpha  occ. eigenvalues --   -0.37342  -0.36366
 Alpha virt. eigenvalues --    0.05045   0.11233   0.16449   0.18409   0.23075
 Alpha virt. eigenvalues --    0.23862   0.24252   0.25293   0.27086   0.28585
 Alpha virt. eigenvalues --    0.29965   0.30743   0.31115   0.31168   0.31862

 Mulliken charges:
               1
     1  C   -0.172819
     2  C   -0.224973
     3  C   -0.175971
     4  C    0.159360
     5  C   -0.170910
     6  C   -0.218402
     7  H    0.225758
     8  H    0.235926
     9  H    0.276201
    10  H    0.275689
    11  H    0.223519
    12  N    0.488182
    13  O   -0.460428
    14  O   -0.460428
    15  C   -0.299701
    16  C   -0.299897
    17  C   -0.476208
    18  H    0.143379
    19  H    0.153538
    20  H    0.151954
    21  H    0.155434
    22  H    0.156120
    23  H    0.154767
    24  H    0.163773
    25  C   -0.303775
    26  C   -0.301567
    27  C   -0.476970
    28  H    0.143841
    29  H    0.157842
    30  H    0.140777
    31  H    0.157128
    32  H    0.159341
    33  H    0.157815
    34  H    0.161705
 Sum of Mulliken charges =  -0.00000

 Dipole moment (field-independent basis, Debye):
    X=             -2.6139    Y=              3.4730    Z=              2.9238  Tot=              5.2386
 Quadrupole moment (field-independent basis, Debye-Ang):
   XX=           -102.9050   YY=            -96.7070   ZZ=            -94.6582
   XY=             11.6975   XZ=             10.9809   YZ=              0.4037

 Normal termination of Gaussian 16 at Thu May  6 07:48:48 2021.
