 Gaussian 16, Revision A.03,
 Gaussian 16:  EM64L-G16RevA.03 25-Dec-2016

 -------------
 #p 6-31g* mp2
 -------------

 ------------------------------------------------------
 Input file generated by CHIRIPA (05-May-2021 14:51:11)
 ------------------------------------------------------
 Symbolic Z-matrix:
 Charge =  0 Multiplicity = 1

                         Standard orientation:
 ---------------------------------------------------------------------
 Center     Atomic      Atomic             Coordinates (Angstroms)
 Number     Number       Type             X           Y           Z
 ---------------------------------------------------------------------
      1          6           0       -3.452418    0.748048   -0.353079
      2          6           0       -4.407414    1.359397    0.672699
      3          6           0       -4.773147    2.808449    0.349772
      4          1           0       -2.538760    1.356143   -0.401997
      5          1           0       -3.914421    0.797402   -1.348827
      6          1           0       -3.944326    1.307650    1.666423
      7          1           0       -5.318825    0.749667    0.719319
      8          1           0       -5.258344    2.874253   -0.629440
      9          1           0       -3.876034    3.435406    0.323045
     10          1           0       -5.456619    3.225807    1.095787
     11          6           0       -3.077509   -0.700256   -0.043909
     12          6           0       -2.122514   -1.311606   -1.069687
     13          6           0       -1.756780   -2.760658   -0.746760
     14          1           0       -2.615506   -0.749610    0.951838
     15          1           0       -3.991168   -1.308352    0.005009
     16          1           0       -1.211102   -0.701875   -1.116308
     17          1           0       -2.585602   -1.259858   -2.063412
     18          1           0       -2.653893   -3.387615   -0.720034
     19          1           0       -1.271584   -2.826462    0.232451
     20          1           0       -1.073309   -3.178016   -1.492775
     21          6           0        2.844820   -0.422098    0.696837
     22          6           0        2.306364   -1.733664    0.124258
     23          6           0        1.467802   -2.519011    1.133138
     24          1           0        3.449343   -0.639289    1.588086
     25          1           0        2.001466    0.196202    1.034258
     26          1           0        3.150407   -2.348722   -0.213249
     27          1           0        1.703210   -1.513342   -0.765842
     28          1           0        0.607308   -1.927510    1.462192
     29          1           0        2.062729   -2.767637    2.017926
     30          1           0        1.092940   -3.452973    0.702962
     31          6           0        3.685108    0.374307   -0.299849
     32          6           0        4.223564    1.685872    0.272730
     33          6           0        5.062125    2.471220   -0.736150
     34          1           0        4.528462   -0.243994   -0.637268
     35          1           0        3.080584    0.591498   -1.191097
     36          1           0        4.826718    1.465551    1.162831
     37          1           0        3.379520    2.300930    0.610238
     38          1           0        4.467199    2.719845   -1.620937
     39          1           0        5.922620    1.879719   -1.065204
     40          1           0        5.436988    3.405183   -0.305972
 ---------------------------------------------------------------------

 SCF Done:  E(RHF) =  -470.732409723     A.U. after   11 cycles
 E2 =    -0.1583428066D+01 EUMP2 =    -0.47231583778902D+03

 The electronic state is 1-A.
 Alpha  occ. eigenvalues --  -11.21627 -11.21626 -11.21617 -11.21595 -11.21436
 Alpha  occ. eigenvalues --  -11.21422 -11.21376 -11.21363 -11.21089 -11.21086
 Alpha  occ. eigenvalues --  -11.21066 -11.20925  -1.08470  -1.08426  -1.03602
 Alpha  occ. eigenvalues --   -1.03476  -0.96086  -0.95891  -0.87119  -0.86896
 Alpha  occ. eigenvalues --   -0.79688  -0.79523  -0.78284  -0.78237  -0.65214
 Alpha  occ. eigenvalues --   -0.64971  -0.61257  -0.60663  -0.59434  -0.59281
 Alpha  occ. eigenvalues --   -0.57634  -0.57565  -0.55601  -0.54950  -0.52814
 Alpha  occ. eigenvalues --   -0.52619  -0.52400  -0.52341  -0.50179  -0.49643
 Alpha  occ. eigenvalues --   -0.47950  -0.47879  -0.46821  -0.46437  -0.45847
 Alpha  occ. eigenvalues --   -0.45788  -0.45750  -0.45631  -0.43825  -0.43740
 Alpha virt. eigenvalues --    0.20199   0.23237   0.23550   0.25502   0.26092
 Alpha virt. eigenvalues --    0.26127   0.26995   0.27615   0.28111   0.29416
 Alpha virt. eigenvalues --    0.30252   0.30919   0.30945   0.32302   0.32707

 Mulliken charges:
               1
     1  C   -0.298187
     2  C   -0.299665
     3  C   -0.475697
     4  H    0.149106
     5  H    0.149696
     6  H    0.151878
     7  H    0.152090
     8  H    0.155233
     9  H    0.155055
    10  H    0.160343
    11  C   -0.298623
    12  C   -0.301365
    13  C   -0.480345
    14  H    0.148980
    15  H    0.150085
    16  H    0.151752
    17  H    0.151890
    18  H    0.154015
    19  H    0.163859
    20  H    0.158956
    21  C   -0.298504
    22  C   -0.302073
    23  C   -0.477744
    24  H    0.149894
    25  H    0.149012
    26  H    0.152231
    27  H    0.154301
    28  H    0.154857
    29  H    0.155034
    30  H    0.163770
    31  C   -0.298340
    32  C   -0.299634
    33  C   -0.475733
    34  H    0.149711
    35  H    0.149571
    36  H    0.152022
    37  H    0.151748
    38  H    0.155239
    39  H    0.155261
    40  H    0.160320
 Sum of Mulliken charges =  -0.00000

 Dipole moment (field-independent basis, Debye):
    X=              0.0232    Y=             -0.0244    Z=              0.0143  Tot=              0.0366
 Quadrupole moment (field-independent basis, Debye-Ang):
   XX=            -83.9465   YY=            -85.9559   ZZ=            -84.8280
   XY=             -0.2665   XZ=              1.0160   YZ=              0.4887

 Normal termination of Gaussian 16 at Wed May  5 21:29:12 2021.
