 Gaussian 16, Revision A.03,
 Gaussian 16:  EM64L-G16RevA.03 25-Dec-2016

 -------------
 #p 6-31g* mp2
 -------------

 ------------------------------------------------------
 Input file generated by CHIRIPA (05-May-2021 14:55:18)
 ------------------------------------------------------
 Symbolic Z-matrix:
 Charge =  0 Multiplicity = 1

                         Standard orientation:
 ---------------------------------------------------------------------
 Center     Atomic      Atomic             Coordinates (Angstroms)
 Number     Number       Type             X           Y           Z
 ---------------------------------------------------------------------
      1          6           0        1.929548    1.702013   -1.855938
      2          6           0        3.243136    1.434627   -1.456549
      3          6           0        3.516078    0.392806   -0.565111
      4          6           0        2.446571   -0.365028   -0.090629
      5          6           0        1.127055   -0.123332   -0.469773
      6          6           0        0.877555    0.923553   -1.362146
      7          1           0        1.726625    2.513292   -2.548792
      8          1           0        4.062105    2.037546   -1.838416
      9          1           0        4.523523    0.164004   -0.239348
     10          1           0        0.331502   -0.741665   -0.072059
     11          1           0       -0.143590    1.128923   -1.670581
     12          7           0        2.723114   -1.470638    0.853591
     13          8           0        1.763287   -2.123674    1.257215
     14          8           0        3.894459   -1.663243    1.172167
     15          6           0       -2.846043    0.955813    0.419030
     16          6           0       -2.129100    1.180201    1.750806
     17          6           0       -1.680583    2.629104    1.943949
     18          1           0       -2.178262    1.247141   -0.403248
     19          1           0       -3.718709    1.621235    0.363694
     20          1           0       -1.258837    0.513562    1.804205
     21          1           0       -2.798596    0.888122    2.570003
     22          1           0       -2.540984    3.305557    1.917072
     23          1           0       -0.992475    2.928869    1.146922
     24          1           0       -1.170369    2.767062    2.902337
     25          6           0       -3.300501   -0.487819    0.211365
     26          6           0       -4.017443   -0.712206   -1.120412
     27          6           0       -4.465962   -2.161109   -1.313554
     28          1           0       -2.427836   -1.153241    0.266701
     29          1           0       -3.968282   -0.779147    1.033644
     30          1           0       -3.347948   -0.420127   -1.939608
     31          1           0       -4.887707   -0.045568   -1.173810
     32          1           0       -5.154068   -2.460874   -0.516527
     33          1           0       -3.605561   -2.837563   -1.286677
     34          1           0       -4.976176   -2.299068   -2.271942
 ---------------------------------------------------------------------

 SCF Done:  E(RHF) =  -669.535292581     A.U. after   15 cycles
 E2 =    -0.2093054471D+01 EUMP2 =    -0.67162834705183D+03

 The electronic state is 1-A.
 Alpha  occ. eigenvalues --  -20.60806 -20.60800 -15.85858 -11.31230 -11.27806
 Alpha  occ. eigenvalues --  -11.27801 -11.27543 -11.26815 -11.26802 -11.22123
 Alpha  occ. eigenvalues --  -11.22074 -11.21979 -11.21918 -11.21415 -11.21388
 Alpha  occ. eigenvalues --   -1.59880  -1.39434  -1.19407  -1.08979  -1.08796
 Alpha  occ. eigenvalues --   -1.04813  -1.03960  -0.96417  -0.95632  -0.87427
 Alpha  occ. eigenvalues --   -0.86212  -0.82468  -0.80025  -0.78798  -0.77519
 Alpha  occ. eigenvalues --   -0.72077  -0.71202  -0.70522  -0.65703  -0.65042
 Alpha  occ. eigenvalues --   -0.64819  -0.62160  -0.61326  -0.59774  -0.58021
 Alpha  occ. eigenvalues --   -0.55731  -0.55293  -0.53129  -0.53085  -0.52961
 Alpha  occ. eigenvalues --   -0.52782  -0.50359  -0.48838  -0.48832  -0.48330
 Alpha  occ. eigenvalues --   -0.47070  -0.46314  -0.46241  -0.44836  -0.44255
 Alpha  occ. eigenvalues --   -0.37381  -0.36397
 Alpha virt. eigenvalues --    0.04993   0.11157   0.16390   0.18433   0.23093
 Alpha virt. eigenvalues --    0.23983   0.24407   0.25022   0.27309   0.28511
 Alpha virt. eigenvalues --    0.30665   0.30950   0.31297   0.31531   0.31725

 Mulliken charges:
               1
     1  C   -0.171306
     2  C   -0.218538
     3  C   -0.170158
     4  C    0.158258
     5  C   -0.175899
     6  C   -0.223938
     7  H    0.226292
     8  H    0.223721
     9  H    0.275834
    10  H    0.280756
    11  H    0.229072
    12  N    0.487861
    13  O   -0.460774
    14  O   -0.460096
    15  C   -0.302633
    16  C   -0.302512
    17  C   -0.476282
    18  H    0.139116
    19  H    0.153127
    20  H    0.155930
    21  H    0.156498
    22  H    0.154985
    23  H    0.152316
    24  H    0.164392
    25  C   -0.302608
    26  C   -0.298840
    27  C   -0.476319
    28  H    0.150533
    29  H    0.155684
    30  H    0.145206
    31  H    0.153586
    32  H    0.157766
    33  H    0.157880
    34  H    0.161091
 Sum of Mulliken charges =  -0.00000

 Dipole moment (field-independent basis, Debye):
    X=             -1.0563    Y=              3.8464    Z=             -3.2175  Tot=              5.1247
 Quadrupole moment (field-independent basis, Debye-Ang):
   XX=            -93.3885   YY=            -98.9702   ZZ=            -94.5820
   XY=             10.8850   XZ=             -9.1923   YZ=              0.6233

 Normal termination of Gaussian 16 at Thu May  6 14:01:22 2021.
