 Gaussian 16, Revision A.03,
 Gaussian 16:  EM64L-G16RevA.03 25-Dec-2016

 -------------
 #p 6-31g* mp2
 -------------

 ------------------------------------------------------
 Input file generated by CHIRIPA (05-May-2021 14:55:24)
 ------------------------------------------------------
 Symbolic Z-matrix:
 Charge =  0 Multiplicity = 1

                         Standard orientation:
 ---------------------------------------------------------------------
 Center     Atomic      Atomic             Coordinates (Angstroms)
 Number     Number       Type             X           Y           Z
 ---------------------------------------------------------------------
      1          6           0       -1.807409    1.823338   -1.635093
      2          6           0       -0.831726    0.839140   -1.445574
      3          6           0       -1.114782   -0.306070   -0.695294
      4          6           0       -2.389675   -0.435229   -0.146426
      5          6           0       -3.383010    0.527756   -0.317413
      6          6           0       -3.077698    1.664784   -1.071401
      7          1           0       -1.578880    2.709787   -2.219369
      8          1           0        0.155655    0.959610   -1.882165
      9          1           0       -0.378180   -1.083529   -0.532837
     10          1           0       -4.358243    0.379586    0.130231
     11          1           0       -3.837390    2.427498   -1.216935
     12          7           0       -2.701115   -1.643281    0.649825
     13          8           0       -3.831927   -1.733364    1.122885
     14          8           0       -1.808513   -2.477194    0.785789
     15          6           0        2.364147    0.538455    0.718824
     16          6           0        2.387876    2.027219    1.066680
     17          6           0        1.122832    2.484725    1.793416
     18          1           0        1.484743    0.328195    0.094818
     19          1           0        2.239169   -0.044651    1.641734
     20          1           0        2.514161    2.607285    0.143539
     21          1           0        3.267432    2.233995    1.689771
     22          1           0        0.994957    1.931606    2.729529
     23          1           0        0.237407    2.307018    1.174511
     24          1           0        1.160971    3.552075    2.032516
     25          6           0        3.622019    0.066032   -0.008019
     26          6           0        3.598291   -1.422732   -0.355875
     27          6           0        4.863335   -1.880238   -1.082611
     28          1           0        3.746998    0.649138   -0.930929
     29          1           0        4.501424    0.276292    0.615987
     30          1           0        2.718735   -1.629508   -0.978966
     31          1           0        3.472006   -2.002799    0.567267
     32          1           0        5.748760   -1.702531   -0.463706
     33          1           0        4.991210   -1.327119   -2.018724
     34          1           0        4.825196   -2.947589   -1.321710
 ---------------------------------------------------------------------

 SCF Done:  E(RHF) =  -669.533897534     A.U. after   15 cycles
 E2 =    -0.2094482130D+01 EUMP2 =    -0.67162837966476D+03

 The electronic state is 1-A.
 Alpha  occ. eigenvalues --  -20.60794 -20.60789 -15.85849 -11.31244 -11.27821
 Alpha  occ. eigenvalues --  -11.27813 -11.27589 -11.26852 -11.26840 -11.22014
 Alpha  occ. eigenvalues --  -11.22008 -11.21839 -11.21771 -11.21368 -11.21273
 Alpha  occ. eigenvalues --   -1.59868  -1.39421  -1.19443  -1.08882  -1.08810
 Alpha  occ. eigenvalues --   -1.04866  -1.03884  -0.96328  -0.95651  -0.87341
 Alpha  occ. eigenvalues --   -0.86241  -0.82507  -0.79958  -0.78731  -0.77500
 Alpha  occ. eigenvalues --   -0.72069  -0.71192  -0.70546  -0.65619  -0.65065
 Alpha  occ. eigenvalues --   -0.64834  -0.62208  -0.61287  -0.59692  -0.57933
 Alpha  occ. eigenvalues --   -0.55633  -0.55330  -0.53217  -0.53005  -0.52929
 Alpha  occ. eigenvalues --   -0.52736  -0.50271  -0.48830  -0.48820  -0.48251
 Alpha  occ. eigenvalues --   -0.47003  -0.46211  -0.46145  -0.44817  -0.44159
 Alpha  occ. eigenvalues --   -0.37414  -0.36345
 Alpha virt. eigenvalues --    0.04985   0.11150   0.16344   0.19576   0.23030
 Alpha virt. eigenvalues --    0.23707   0.25128   0.26280   0.27350   0.28202
 Alpha virt. eigenvalues --    0.30177   0.31041   0.31286   0.31641   0.31742

 Mulliken charges:
               1
     1  C   -0.171894
     2  C   -0.218690
     3  C   -0.169739
     4  C    0.156882
     5  C   -0.170768
     6  C   -0.218568
     7  H    0.226348
     8  H    0.224982
     9  H    0.279141
    10  H    0.276018
    11  H    0.224009
    12  N    0.488126
    13  O   -0.460298
    14  O   -0.459916
    15  C   -0.305128
    16  C   -0.298417
    17  C   -0.481115
    18  H    0.144970
    19  H    0.156567
    20  H    0.145661
    21  H    0.154525
    22  H    0.158600
    23  H    0.159201
    24  H    0.158915
    25  C   -0.298475
    26  C   -0.299836
    27  C   -0.475892
    28  H    0.144800
    29  H    0.152886
    30  H    0.144924
    31  H    0.158422
    32  H    0.156981
    33  H    0.153562
    34  H    0.163217
 Sum of Mulliken charges =  -0.00000

 Dipole moment (field-independent basis, Debye):
    X=              1.0805    Y=              4.1815    Z=             -2.7251  Tot=              5.1067
 Quadrupole moment (field-independent basis, Debye-Ang):
   XX=            -95.9271   YY=            -98.7192   ZZ=            -93.9293
   XY=            -12.6416   XZ=              6.9134   YZ=              0.3015

 Normal termination of Gaussian 16 at Thu May  6 16:02:30 2021.
