 Gaussian 16, Revision A.03,
 Gaussian 16:  EM64L-G16RevA.03 25-Dec-2016

 -------------
 #p 6-31g* mp2
 -------------

 ------------------------------------------------------
 Input file generated by CHIRIPA (05-May-2021 14:51:09)
 ------------------------------------------------------
 Symbolic Z-matrix:
 Charge =  0 Multiplicity = 1

                         Standard orientation:
 ---------------------------------------------------------------------
 Center     Atomic      Atomic             Coordinates (Angstroms)
 Number     Number       Type             X           Y           Z
 ---------------------------------------------------------------------
      1          6           0       -4.739197   -0.296152    0.371292
      2          6           0       -5.902713   -0.273618   -0.620527
      3          6           0       -7.264791   -0.182114    0.068070
      4          1           0       -4.864323   -1.147544    1.054241
      5          1           0       -4.777472    0.610189    0.991355
      6          1           0       -5.861450   -1.179064   -1.239462
      7          1           0       -5.774701    0.577708   -1.301316
      8          1           0       -7.330995    0.729025    0.671430
      9          1           0       -7.418238   -1.037729    0.733635
     10          1           0       -8.082281   -0.167363   -0.659497
     11          6           0       -3.370935   -0.387420   -0.301952
     12          6           0       -2.207418   -0.409954    0.689868
     13          6           0       -0.845340   -0.501458    0.001271
     14          1           0       -3.332660   -1.293761   -0.922014
     15          1           0       -3.245808    0.463972   -0.984901
     16          1           0       -2.335430   -1.261280    1.370656
     17          1           0       -2.248681    0.495492    1.308803
     18          1           0       -0.691894    0.354157   -0.664295
     19          1           0       -0.779136   -1.412597   -0.602089
     20          1           0       -0.027851   -0.516209    0.728838
     21          6           0        4.564236   -0.092735    0.333256
     22          6           0        5.312847   -1.059142   -0.585234
     23          6           0        6.327963   -1.921583    0.165450
     24          1           0        5.290382    0.554192    0.844275
     25          1           0        4.050748   -0.666436    1.117215
     26          1           0        5.823639   -0.483889   -1.368045
     27          1           0        4.584821   -1.703716   -1.094272
     28          1           0        5.830314   -2.520340    0.935149
     29          1           0        7.076170   -1.293581    0.659821
     30          1           0        6.851635   -2.605047   -0.510201
     31          6           0        3.545896    0.776307   -0.402596
     32          6           0        2.797285    1.742715    0.515894
     33          6           0        1.782168    2.605155   -0.234791
     34          1           0        4.059383    1.350008   -1.186556
     35          1           0        2.819749    0.129381   -0.913617
     36          1           0        3.525311    2.387287    1.024932
     37          1           0        2.286494    1.167460    1.298703
     38          1           0        1.033962    1.977153   -0.729162
     39          1           0        2.279819    3.203911   -1.004490
     40          1           0        1.258496    3.288619    0.440859
 ---------------------------------------------------------------------

 SCF Done:  E(RHF) =  -470.733084035     A.U. after   11 cycles
 E2 =    -0.1582849488D+01 EUMP2 =    -0.47231593352294D+03

 The electronic state is 1-A.
 Alpha  occ. eigenvalues --  -11.21648 -11.21617 -11.21566 -11.21548 -11.21433
 Alpha  occ. eigenvalues --  -11.21373 -11.21355 -11.21290 -11.21138 -11.21083
 Alpha  occ. eigenvalues --  -11.21045 -11.20976  -1.08462  -1.08378  -1.03578
 Alpha  occ. eigenvalues --   -1.03469  -0.96039  -0.95912  -0.87055  -0.86933
 Alpha  occ. eigenvalues --   -0.79646  -0.79534  -0.78274  -0.78191  -0.65118
 Alpha  occ. eigenvalues --   -0.64993  -0.61104  -0.60777  -0.59369  -0.59299
 Alpha  occ. eigenvalues --   -0.57655  -0.57522  -0.55520  -0.55027  -0.52708
 Alpha  occ. eigenvalues --   -0.52625  -0.52489  -0.52321  -0.50146  -0.49683
 Alpha  occ. eigenvalues --   -0.47976  -0.47841  -0.46738  -0.46467  -0.45837
 Alpha  occ. eigenvalues --   -0.45750  -0.45707  -0.45607  -0.43815  -0.43733
 Alpha virt. eigenvalues --    0.20976   0.22988   0.23699   0.25099   0.25907
 Alpha virt. eigenvalues --    0.26275   0.26799   0.27714   0.27800   0.29018
 Alpha virt. eigenvalues --    0.30265   0.30934   0.31667   0.31846   0.32477

 Mulliken charges:
               1
     1  C   -0.298333
     2  C   -0.299698
     3  C   -0.475731
     4  H    0.149667
     5  H    0.149686
     6  H    0.151932
     7  H    0.152065
     8  H    0.155247
     9  H    0.155180
    10  H    0.160325
    11  C   -0.298662
    12  C   -0.299639
    13  C   -0.481387
    14  H    0.149538
    15  H    0.150018
    16  H    0.151997
    17  H    0.152558
    18  H    0.159111
    19  H    0.155143
    20  H    0.161904
    21  C   -0.298146
    22  C   -0.299652
    23  C   -0.475674
    24  H    0.149454
    25  H    0.149125
    26  H    0.151837
    27  H    0.152121
    28  H    0.155101
    29  H    0.155088
    30  H    0.160135
    31  C   -0.299733
    32  C   -0.299665
    33  C   -0.480541
    34  H    0.149237
    35  H    0.151786
    36  H    0.151606
    37  H    0.152185
    38  H    0.161075
    39  H    0.154472
    40  H    0.159268
 Sum of Mulliken charges =  -0.00000

 Dipole moment (field-independent basis, Debye):
    X=             -0.0403    Y=             -0.0137    Z=             -0.0091  Tot=              0.0435
 Quadrupole moment (field-independent basis, Debye-Ang):
   XX=            -86.0448   YY=            -83.7984   ZZ=            -85.0620
   XY=              1.1220   XZ=             -0.0820   YZ=              0.0967

 Normal termination of Gaussian 16 at Thu May  6 05:19:19 2021.
