 Gaussian 16, Revision A.03,
 Gaussian 16:  EM64L-G16RevA.03 25-Dec-2016

 -------------
 #p 6-31g* mp2
 -------------

 ------------------------------------------------------
 Input file generated by CHIRIPA (05-May-2021 14:51:14)
 ------------------------------------------------------
 Symbolic Z-matrix:
 Charge =  0 Multiplicity = 1

                         Standard orientation:
 ---------------------------------------------------------------------
 Center     Atomic      Atomic             Coordinates (Angstroms)
 Number     Number       Type             X           Y           Z
 ---------------------------------------------------------------------
      1          6           0       -2.511041    0.944086   -0.321733
      2          6           0       -2.573300    2.330794    0.319478
      3          6           0       -1.303064    3.148590    0.083888
      4          1           0       -1.643991    0.400760    0.078223
      5          1           0       -2.339868    1.054412   -1.401512
      6          1           0       -2.745686    2.217920    1.397512
      7          1           0       -3.440413    2.870811   -0.081909
      8          1           0       -1.129590    3.290693   -0.987706
      9          1           0       -0.430915    2.634092    0.500121
     10          1           0       -1.369108    4.136269    0.550780
     11          6           0       -3.773627    0.114529   -0.094927
     12          6           0       -3.711368   -1.272178   -0.736138
     13          6           0       -4.981605   -2.089975   -0.500549
     14          1           0       -3.944800    0.004203    0.984852
     15          1           0       -4.640677    0.657855   -0.494883
     16          1           0       -2.844255   -1.812196   -0.334751
     17          1           0       -3.538982   -1.159305   -1.814173
     18          1           0       -5.853753   -1.575477   -0.916781
     19          1           0       -5.155078   -2.232077    0.571046
     20          1           0       -4.915560   -3.077654   -0.967440
     21          6           0        3.666079   -0.535929   -0.347619
     22          6           0        4.960162    0.185791    0.029813
     23          6           0        5.998174    0.163989   -1.092617
     24          1           0        3.898195   -1.576129   -0.614171
     25          1           0        3.243486   -0.069327   -1.248226
     26          1           0        5.379461   -0.281150    0.930241
     27          1           0        4.724914    1.224342    0.295682
     28          1           0        5.603465    0.647984   -1.991813
     29          1           0        6.261730   -0.866061   -1.353649
     30          1           0        6.915319    0.685461   -0.801459
     31          6           0        2.618590   -0.522687    0.764279
     32          6           0        1.324506   -1.244405    0.386848
     33          6           0        0.286494   -1.222604    1.509278
     34          1           0        3.041182   -0.989288    1.664887
     35          1           0        2.386473    0.517513    1.030831
     36          1           0        1.559754   -2.282957    0.120978
     37          1           0        0.905208   -0.777465   -0.513582
     38          1           0        0.022938   -0.192555    1.770309
     39          1           0        0.681203   -1.706600    2.408474
     40          1           0       -0.630651   -1.744076    1.218120
 ---------------------------------------------------------------------

 SCF Done:  E(RHF) =  -470.732801413     A.U. after   11 cycles
 E2 =    -0.1583951264D+01 EUMP2 =    -0.47231675267629D+03

 The electronic state is 1-A.
 Alpha  occ. eigenvalues --  -11.21658 -11.21611 -11.21597 -11.21586 -11.21440
 Alpha  occ. eigenvalues --  -11.21375 -11.21350 -11.21250 -11.21175 -11.21111
 Alpha  occ. eigenvalues --  -11.21076 -11.21063  -1.08479  -1.08390  -1.03584
 Alpha  occ. eigenvalues --   -1.03520  -0.96056  -0.95949  -0.87064  -0.86978
 Alpha  occ. eigenvalues --   -0.79641  -0.79584  -0.78274  -0.78216  -0.65247
 Alpha  occ. eigenvalues --   -0.64928  -0.61098  -0.60821  -0.59423  -0.59315
 Alpha  occ. eigenvalues --   -0.57664  -0.57555  -0.55467  -0.55129  -0.52759
 Alpha  occ. eigenvalues --   -0.52650  -0.52456  -0.52389  -0.50081  -0.49824
 Alpha  occ. eigenvalues --   -0.48021  -0.47842  -0.46724  -0.46570  -0.45863
 Alpha  occ. eigenvalues --   -0.45756  -0.45696  -0.45556  -0.43817  -0.43754
 Alpha virt. eigenvalues --    0.19829   0.22557   0.23543   0.24284   0.26277
 Alpha virt. eigenvalues --    0.26465   0.26765   0.27637   0.28294   0.28996
 Alpha virt. eigenvalues --    0.30592   0.31128   0.31590   0.31817   0.32197

 Mulliken charges:
               1
     1  C   -0.310305
     2  C   -0.299236
     3  C   -0.476649
     4  H    0.165216
     5  H    0.148274
     6  H    0.151738
     7  H    0.151953
     8  H    0.155253
     9  H    0.154236
    10  H    0.160518
    11  C   -0.297363
    12  C   -0.303494
    13  C   -0.475578
    14  H    0.149441
    15  H    0.149460
    16  H    0.154415
    17  H    0.152014
    18  H    0.155297
    19  H    0.155246
    20  H    0.160123
    21  C   -0.298368
    22  C   -0.299747
    23  C   -0.475746
    24  H    0.149713
    25  H    0.149997
    26  H    0.151884
    27  H    0.152190
    28  H    0.155323
    29  H    0.155153
    30  H    0.160322
    31  C   -0.298607
    32  C   -0.302227
    33  C   -0.483882
    34  H    0.149713
    35  H    0.149712
    36  H    0.152546
    37  H    0.154778
    38  H    0.155880
    39  H    0.157364
    40  H    0.163444
 Sum of Mulliken charges =  -0.00000

 Dipole moment (field-independent basis, Debye):
    X=              0.0307    Y=             -0.0224    Z=              0.0048  Tot=              0.0383
 Quadrupole moment (field-independent basis, Debye-Ang):
   XX=            -85.9757   YY=            -84.4247   ZZ=            -84.4387
   XY=             -1.1515   XZ=              1.1278   YZ=             -0.5560

 Normal termination of Gaussian 16 at Wed May  5 23:16:54 2021.
