 Gaussian 16, Revision A.03,
 Gaussian 16:  EM64L-G16RevA.03 25-Dec-2016

 -------------
 #p 6-31g* mp2
 -------------

 ------------------------------------------------------
 Input file generated by CHIRIPA (05-May-2021 14:53:12)
 ------------------------------------------------------
 Symbolic Z-matrix:
 Charge =  0 Multiplicity = 1

                         Standard orientation:
 ---------------------------------------------------------------------
 Center     Atomic      Atomic             Coordinates (Angstroms)
 Number     Number       Type             X           Y           Z
 ---------------------------------------------------------------------
      1          6           0       -3.021029    1.096118    0.509256
      2          6           0       -2.817120    2.358746   -0.328704
      3          6           0       -2.299637    3.538040    0.495476
      4          1           0       -3.725991    1.313821    1.323245
      5          1           0       -2.069090    0.822498    0.985009
      6          1           0       -3.768834    2.629114   -0.803842
      7          1           0       -2.112708    2.137960   -1.140906
      8          1           0       -1.337888    3.292628    0.957443
      9          1           0       -3.003424    3.786573    1.296423
     10          1           0       -2.160999    4.430126   -0.123249
     11          6           0       -3.538076   -0.091515   -0.300632
     12          6           0       -3.741985   -1.354143    0.537328
     13          6           0       -4.259468   -2.533436   -0.286852
     14          1           0       -4.490014    0.182105   -0.776385
     15          1           0       -2.833113   -0.309218   -1.114621
     16          1           0       -4.446397   -1.133357    1.349530
     17          1           0       -2.790270   -1.624511    1.012466
     18          1           0       -3.555680   -2.781970   -1.087799
     19          1           0       -5.221216   -2.288025   -0.748819
     20          1           0       -4.398106   -3.425523    0.331873
     21          6           0        0.728001   -2.123373   -0.156561
     22          6           0        1.964962   -2.438546    0.415379
     23          6           0        2.988451   -1.487335    0.462433
     24          6           0        2.739469   -0.225081   -0.074237
     25          6           0        1.517829    0.119242   -0.650715
     26          6           0        0.508769   -0.847733   -0.686848
     27          1           0       -0.061466   -2.868419   -0.188872
     28          1           0        2.138047   -3.428420    0.827977
     29          1           0        3.955572   -1.704589    0.899351
     30          1           0        1.375068    1.114472   -1.053893
     31          1           0       -0.450874   -0.600163   -1.131638
     32          7           0        3.815353    0.790268   -0.030203
     33          8           0        3.570859    1.895158   -0.509866
     34          8           0        4.882754    0.461982    0.483139
 ---------------------------------------------------------------------

 SCF Done:  E(RHF) =  -669.535569651     A.U. after   15 cycles
 E2 =    -0.2092427204D+01 EUMP2 =    -0.67162799685543D+03

 The electronic state is 1-A.
 Alpha  occ. eigenvalues --  -20.60786 -20.60780 -15.85839 -11.31219 -11.27790
 Alpha  occ. eigenvalues --  -11.27787 -11.27531 -11.26803 -11.26782 -11.22559
 Alpha  occ. eigenvalues --  -11.22383 -11.22263 -11.22096 -11.22032 -11.21462
 Alpha  occ. eigenvalues --   -1.59861  -1.39414  -1.19393  -1.09282  -1.08781
 Alpha  occ. eigenvalues --   -1.04797  -1.04301  -0.96739  -0.95616  -0.87744
 Alpha  occ. eigenvalues --   -0.86195  -0.82449  -0.80372  -0.79069  -0.77497
 Alpha  occ. eigenvalues --   -0.72057  -0.71184  -0.70498  -0.66087  -0.65044
 Alpha  occ. eigenvalues --   -0.64692  -0.62122  -0.61709  -0.60111  -0.58336
 Alpha  occ. eigenvalues --   -0.56074  -0.55269  -0.53400  -0.53164  -0.53118
 Alpha  occ. eigenvalues --   -0.52854  -0.50681  -0.48821  -0.48811  -0.48670
 Alpha  occ. eigenvalues --   -0.47433  -0.46604  -0.46520  -0.44816  -0.44563
 Alpha  occ. eigenvalues --   -0.37368  -0.36392
 Alpha virt. eigenvalues --    0.05024   0.11168   0.16442   0.18134   0.22488
 Alpha virt. eigenvalues --    0.23579   0.24895   0.26088   0.26987   0.27951
 Alpha virt. eigenvalues --    0.29774   0.30887   0.31108   0.31196   0.31837

 Mulliken charges:
               1
     1  C   -0.302690
     2  C   -0.299275
     3  C   -0.476799
     4  H    0.153894
     5  H    0.152271
     6  H    0.154552
     7  H    0.144646
     8  H    0.158211
     9  H    0.156955
    10  H    0.163790
    11  C   -0.300900
    12  C   -0.302348
    13  C   -0.476085
    14  H    0.155101
    15  H    0.140001
    16  H    0.157409
    17  H    0.148957
    18  H    0.149216
    19  H    0.159869
    20  H    0.162368
    21  C   -0.174676
    22  C   -0.218484
    23  C   -0.170881
    24  C    0.159006
    25  C   -0.174025
    26  C   -0.223963
    27  H    0.227292
    28  H    0.223713
    29  H    0.275774
    30  H    0.276319
    31  H    0.233362
    32  N    0.488025
    33  O   -0.460252
    34  O   -0.460354
 Sum of Mulliken charges =  -0.00000

 Dipole moment (field-independent basis, Debye):
    X=             -3.9394    Y=             -3.4866    Z=             -0.0495  Tot=              5.2609
 Quadrupole moment (field-independent basis, Debye-Ang):
   XX=           -112.5084   YY=            -91.7569   ZZ=            -94.6075
   XY=            -12.1063   XZ=              0.8225   YZ=             -1.7819

 Normal termination of Gaussian 16 at Thu May  6 15:18:46 2021.
