 Gaussian 16, Revision A.03,
 Gaussian 16:  EM64L-G16RevA.03 25-Dec-2016

 -------------
 #p 6-31g* mp2
 -------------

 ------------------------------------------------------
 Input file generated by CHIRIPA (05-May-2021 14:51:09)
 ------------------------------------------------------
 Symbolic Z-matrix:
 Charge =  0 Multiplicity = 1

                         Standard orientation:
 ---------------------------------------------------------------------
 Center     Atomic      Atomic             Coordinates (Angstroms)
 Number     Number       Type             X           Y           Z
 ---------------------------------------------------------------------
      1          6           0        2.764407    0.120918   -0.245821
      2          6           0        4.240764    0.406444   -0.523005
      3          6           0        4.444569    1.489684   -1.582651
      4          1           0        2.274246   -0.182234   -1.181121
      5          1           0        2.273161    1.048941    0.077978
      6          1           0        4.729387   -0.522144   -0.844855
      7          1           0        4.727510    0.708767    0.413101
      8          1           0        3.982895    2.430409   -1.265641
      9          1           0        3.984783    1.192504   -2.530745
     10          1           0        5.507174    1.677859   -1.765194
     11          6           0        2.544447   -0.959757    0.811291
     12          6           0        1.068090   -1.245283    1.088475
     13          6           0        0.864285   -2.328522    2.148121
     14          1           0        3.035694   -1.887779    0.487492
     15          1           0        3.034608   -0.656605    1.746591
     16          1           0        0.581344   -1.547605    0.152369
     17          1           0        0.579467   -0.316695    1.410326
     18          1           0        1.324071   -2.031342    3.096215
     19          1           0        1.325959   -3.269247    1.831111
     20          1           0       -0.198319   -2.516697    2.330665
     21          6           0       -2.885143    0.966143    0.198196
     22          6           0       -1.989795    2.205525    0.181831
     23          6           0       -2.464285    3.290391    1.149157
     24          1           0       -3.912907    1.260735   -0.054514
     25          1           0       -2.918389    0.559837    1.218591
     26          1           0       -1.957142    2.608569   -0.838514
     27          1           0       -0.964005    1.907919    0.434423
     28          1           0       -2.479733    2.910985    2.176004
     29          1           0       -3.478513    3.615616    0.895835
     30          1           0       -1.809929    4.167260    1.121280
     31          6           0       -2.423711   -0.127305   -0.763666
     32          6           0       -3.319059   -1.366687   -0.747302
     33          6           0       -2.844569   -2.451553   -1.714627
     34          1           0       -2.390466    0.279002   -1.784060
     35          1           0       -1.395946   -0.421897   -0.510956
     36          1           0       -4.344849   -1.069080   -0.999894
     37          1           0       -3.351712   -1.769731    0.273044
     38          1           0       -1.830342   -2.776777   -1.461304
     39          1           0       -2.829121   -2.072147   -2.741473
     40          1           0       -3.498925   -3.328423   -1.686750
 ---------------------------------------------------------------------

 SCF Done:  E(RHF) =  -470.733004213     A.U. after   11 cycles
 E2 =    -0.1583974298D+01 EUMP2 =    -0.47231697851094D+03

 The electronic state is 1-A.
 Alpha  occ. eigenvalues --  -11.21720 -11.21639 -11.21571 -11.21554 -11.21475
 Alpha  occ. eigenvalues --  -11.21411 -11.21330 -11.21216 -11.21175 -11.21091
 Alpha  occ. eigenvalues --  -11.21065 -11.21059  -1.08515  -1.08364  -1.03609
 Alpha  occ. eigenvalues --   -1.03495  -0.96047  -0.95941  -0.87065  -0.86959
 Alpha  occ. eigenvalues --   -0.79714  -0.79545  -0.78425  -0.78074  -0.65140
 Alpha  occ. eigenvalues --   -0.65017  -0.61076  -0.60832  -0.59421  -0.59307
 Alpha  occ. eigenvalues --   -0.57670  -0.57543  -0.55329  -0.55232  -0.52747
 Alpha  occ. eigenvalues --   -0.52645  -0.52479  -0.52364  -0.50005  -0.49883
 Alpha  occ. eigenvalues --   -0.48107  -0.47870  -0.46824  -0.46510  -0.46234
 Alpha  occ. eigenvalues --   -0.45738  -0.45692  -0.45141  -0.43847  -0.43733
 Alpha virt. eigenvalues --    0.20180   0.22463   0.23222   0.24753   0.25211
 Alpha virt. eigenvalues --    0.26367   0.26763   0.27748   0.28211   0.29798
 Alpha virt. eigenvalues --    0.30457   0.31246   0.31693   0.31971   0.32318

 Mulliken charges:
               1
     1  C   -0.299577
     2  C   -0.299673
     3  C   -0.475763
     4  H    0.150218
     5  H    0.150098
     6  H    0.152099
     7  H    0.152014
     8  H    0.155377
     9  H    0.155417
    10  H    0.160345
    11  C   -0.297478
    12  C   -0.308011
    13  C   -0.475593
    14  H    0.149886
    15  H    0.149908
    16  H    0.156076
    17  H    0.154825
    18  H    0.155703
    19  H    0.155742
    20  H    0.160195
    21  C   -0.297354
    22  C   -0.302853
    23  C   -0.475610
    24  H    0.149336
    25  H    0.148828
    26  H    0.152120
    27  H    0.154024
    28  H    0.154874
    29  H    0.155319
    30  H    0.159899
    31  C   -0.308103
    32  C   -0.298972
    33  C   -0.476650
    34  H    0.148476
    35  H    0.161582
    36  H    0.151697
    37  H    0.151241
    38  H    0.154907
    39  H    0.155161
    40  H    0.160271
 Sum of Mulliken charges =  -0.00000

 Dipole moment (field-independent basis, Debye):
    X=              0.0652    Y=             -0.0161    Z=              0.0064  Tot=              0.0674
 Quadrupole moment (field-independent basis, Debye-Ang):
   XX=            -84.6706   YY=            -85.4979   ZZ=            -84.6818
   XY=             -0.3021   XZ=              0.7919   YZ=              0.1817

 Normal termination of Gaussian 16 at Wed May  5 22:58:23 2021.
