 Gaussian 16, Revision A.03,
 Gaussian 16:  EM64L-G16RevA.03 25-Dec-2016

 -------------
 #p 6-31g* mp2
 -------------

 ------------------------------------------------------
 Input file generated by CHIRIPA (05-May-2021 14:55:20)
 ------------------------------------------------------
 Symbolic Z-matrix:
 Charge =  0 Multiplicity = 1

                         Standard orientation:
 ---------------------------------------------------------------------
 Center     Atomic      Atomic             Coordinates (Angstroms)
 Number     Number       Type             X           Y           Z
 ---------------------------------------------------------------------
      1          6           0        3.491597   -1.869242    1.047200
      2          6           0        3.016238   -0.913432    1.951071
      3          6           0        2.515367    0.309052    1.493679
      4          6           0        2.504671    0.543593    0.119573
      5          6           0        2.971209   -0.388607   -0.805973
      6          6           0        3.467608   -1.604246   -0.326016
      7          1           0        3.878948   -2.816239    1.411278
      8          1           0        3.033647   -1.116505    3.018078
      9          1           0        2.141118    1.066740    2.171369
     10          1           0        2.940986   -0.157443   -1.863833
     11          1           0        3.836123   -2.344682   -1.030286
     12          7           0        1.976789    1.834159   -0.376592
     13          8           0        1.978231    2.016534   -1.592065
     14          8           0        1.571588    2.638893    0.459382
     15          6           0       -2.917763   -0.844217   -0.754515
     16          6           0       -1.414071   -0.570680   -0.708996
     17          6           0       -0.628218   -1.419858   -1.708559
     18          1           0       -3.096504   -1.909336   -0.553220
     19          1           0       -3.287769   -0.651854   -1.771121
     20          1           0       -1.047263   -0.762171    0.307567
     21          1           0       -1.238900    0.493950   -0.910233
     22          1           0       -0.966216   -1.222715   -2.731052
     23          1           0       -0.773490   -2.485973   -1.506333
     24          1           0        0.444460   -1.208253   -1.659095
     25          6           0       -3.716919   -0.002866    0.239067
     26          6           0       -5.220611   -0.276405    0.193548
     27          6           0       -6.006464    0.572774    1.193111
     28          1           0       -3.346912   -0.195230    1.255673
     29          1           0       -3.538177    1.062251    0.037773
     30          1           0       -5.395781   -1.341033    0.394785
     31          1           0       -5.587417   -0.084913   -0.823014
     32          1           0       -5.861190    1.638888    0.990885
     33          1           0       -5.668464    0.375631    2.215605
     34          1           0       -7.079141    0.361168    1.143647
 ---------------------------------------------------------------------

 SCF Done:  E(RHF) =  -669.535137114     A.U. after   15 cycles
 E2 =    -0.2093117875D+01 EUMP2 =    -0.67162825498900D+03

 The electronic state is 1-A.
 Alpha  occ. eigenvalues --  -20.60817 -20.60808 -15.85869 -11.31244 -11.27817
 Alpha  occ. eigenvalues --  -11.27805 -11.27556 -11.26832 -11.26822 -11.21372
 Alpha  occ. eigenvalues --  -11.21323 -11.21148 -11.21074 -11.20848 -11.20844
 Alpha  occ. eigenvalues --   -1.59889  -1.39441  -1.19429  -1.08811  -1.08174
 Alpha  occ. eigenvalues --   -1.04838  -1.03294  -0.95766  -0.95636  -0.86781
 Alpha  occ. eigenvalues --   -0.86221  -0.82477  -0.79361  -0.77985  -0.77524
 Alpha  occ. eigenvalues --   -0.72085  -0.71213  -0.70534  -0.65076  -0.64829
 Alpha  occ. eigenvalues --   -0.64798  -0.62185  -0.60683  -0.59169  -0.57409
 Alpha  occ. eigenvalues --   -0.55324  -0.55033  -0.53320  -0.52922  -0.52340
 Alpha  occ. eigenvalues --   -0.52081  -0.49686  -0.48848  -0.48838  -0.47685
 Alpha  occ. eigenvalues --   -0.46379  -0.45530  -0.45443  -0.44837  -0.43565
 Alpha  occ. eigenvalues --   -0.37382  -0.36367
 Alpha virt. eigenvalues --    0.04988   0.11156   0.16488   0.21310   0.23113
 Alpha virt. eigenvalues --    0.24441   0.26902   0.27057   0.27614   0.28044
 Alpha virt. eigenvalues --    0.28519   0.30830   0.31608   0.31760   0.32048

 Mulliken charges:
               1
     1  C   -0.170636
     2  C   -0.218451
     3  C   -0.171216
     4  C    0.164438
     5  C   -0.177069
     6  C   -0.216327
     7  H    0.225930
     8  H    0.223684
     9  H    0.276012
    10  H    0.276754
    11  H    0.224298
    12  N    0.488679
    13  O   -0.460951
    14  O   -0.460202
    15  C   -0.298032
    16  C   -0.303887
    17  C   -0.478545
    18  H    0.146880
    19  H    0.150644
    20  H    0.148650
    21  H    0.161478
    22  H    0.156743
    23  H    0.150479
    24  H    0.159707
    25  C   -0.298741
    26  C   -0.299544
    27  C   -0.475633
    28  H    0.147549
    29  H    0.154540
    30  H    0.150081
    31  H    0.152305
    32  H    0.156960
    33  H    0.154120
    34  H    0.159300
 Sum of Mulliken charges =  -0.00000

 Dipole moment (field-independent basis, Debye):
    X=              1.9382    Y=             -4.4508    Z=              1.7604  Tot=              5.1639
 Quadrupole moment (field-independent basis, Debye-Ang):
   XX=            -86.5059   YY=            -99.8286   ZZ=            -89.9363
   XY=            -10.8909   XZ=              4.3250   YZ=              0.9198

 Normal termination of Gaussian 16 at Thu May  6 17:26:35 2021.
