 Gaussian 16, Revision A.03,
 Gaussian 16:  EM64L-G16RevA.03 25-Dec-2016

 -------------
 #p 6-31g* mp2
 -------------

 ------------------------------------------------------
 Input file generated by CHIRIPA (05-May-2021 14:57:24)
 ------------------------------------------------------
 Symbolic Z-matrix:
 Charge =  0 Multiplicity = 1

                         Standard orientation:
 ---------------------------------------------------------------------
 Center     Atomic      Atomic             Coordinates (Angstroms)
 Number     Number       Type             X           Y           Z
 ---------------------------------------------------------------------
      1          6           0       -2.701217    2.469254    1.102731
      2          6           0       -1.740612    2.025030    0.188168
      3          6           0       -1.891743    0.795070   -0.459061
      4          6           0       -3.020769    0.031465   -0.166664
      5          6           0       -3.995274    0.446668    0.739557
      6          6           0       -3.823504    1.680046    1.375026
      7          1           0       -2.575799    3.426044    1.600946
      8          1           0       -0.868025    2.635840   -0.025252
      9          1           0       -1.163454    0.427001   -1.171479
     10          1           0       -4.854524   -0.184342    0.931739
     11          1           0       -4.571135    2.022503    2.084827
     12          7           0       -3.191689   -1.272448   -0.845631
     13          8           0       -4.195302   -1.926506   -0.570665
     14          8           0       -2.318807   -1.615707   -1.639915
     15          6           0        2.042280   -2.256760    1.246872
     16          6           0        1.381182   -1.725244    0.134685
     17          6           0        1.898577   -0.611574   -0.533589
     18          6           0        3.084472   -0.052008   -0.060488
     19          6           0        3.766410   -0.558564    1.044797
     20          6           0        3.230688   -1.672754    1.697584
     21          1           0        1.633237   -3.122088    1.759989
     22          1           0        0.458076   -2.176729   -0.217567
     23          1           0        1.407309   -0.179790   -1.397092
     24          1           0        4.684800   -0.086773    1.372504
     25          1           0        3.746258   -2.083409    2.561063
     26          7           0        3.641916    1.127259   -0.759762
     27          8           0        4.688218    1.601894   -0.323172
     28          8           0        3.021982    1.554605   -1.731202
 ---------------------------------------------------------------------

 SCF Done:  E(RHF) =  -868.339687356     A.U. after   16 cycles
 E2 =    -0.2600083478D+01 EUMP2 =    -0.87093977083439D+03

 The electronic state is 1-A.
 Alpha  occ. eigenvalues --  -20.61540 -20.61486 -20.61030 -20.61007 -15.86529
 Alpha  occ. eigenvalues --  -15.86064 -11.31638 -11.31293 -11.28190 -11.28151
 Alpha  occ. eigenvalues --  -11.27817 -11.27807 -11.27805 -11.27440 -11.27112
 Alpha  occ. eigenvalues --  -11.27047 -11.26805 -11.26634  -1.60572  -1.60100
 Alpha  occ. eigenvalues --   -1.40137  -1.39658  -1.19771  -1.19415  -1.09204
 Alpha  occ. eigenvalues --   -1.08824  -1.05131  -1.04776  -0.96090  -0.95697
 Alpha  occ. eigenvalues --   -0.86540  -0.86178  -0.82925  -0.82520  -0.78042
 Alpha  occ. eigenvalues --   -0.77584  -0.72751  -0.72282  -0.71882  -0.71426
 Alpha  occ. eigenvalues --   -0.70899  -0.70495  -0.65421  -0.65141  -0.65026
 Alpha  occ. eigenvalues --   -0.64727  -0.62573  -0.62025  -0.55622  -0.55251
 Alpha  occ. eigenvalues --   -0.53491  -0.53238  -0.53085  -0.52822  -0.49531
 Alpha  occ. eigenvalues --   -0.49477  -0.49053  -0.49020  -0.45582  -0.45095
 Alpha  occ. eigenvalues --   -0.37728  -0.37373  -0.36816  -0.36268
 Alpha virt. eigenvalues --    0.04411   0.04919   0.10897   0.11248   0.15995
 Alpha virt. eigenvalues --    0.16441   0.19806   0.22018   0.25005   0.27502
 Alpha virt. eigenvalues --    0.28046   0.29354   0.30966   0.31341   0.31864

 Mulliken charges:
               1
     1  C   -0.170298
     2  C   -0.219650
     3  C   -0.173084
     4  C    0.157419
     5  C   -0.171074
     6  C   -0.218462
     7  H    0.228742
     8  H    0.232410
     9  H    0.272263
    10  H    0.275631
    11  H    0.224840
    12  N    0.487789
    13  O   -0.455974
    14  O   -0.468080
    15  C   -0.171522
    16  C   -0.224371
    17  C   -0.180515
    18  C    0.159425
    19  C   -0.172422
    20  C   -0.217917
    21  H    0.228292
    22  H    0.241800
    23  H    0.272578
    24  H    0.274786
    25  H    0.223539
    26  N    0.487614
    27  O   -0.459546
    28  O   -0.464213
 Sum of Mulliken charges =  -0.00000

 Dipole moment (field-independent basis, Debye):
    X=             -1.5281    Y=              0.4513    Z=              5.0042  Tot=              5.2518
 Quadrupole moment (field-independent basis, Debye-Ang):
   XX=           -114.2390   YY=           -104.6394   ZZ=           -103.7548
   XY=            -26.3807   XZ=              0.7063   YZ=             -0.8352

 Normal termination of Gaussian 16 at Fri May  7 06:31:35 2021.
