 Gaussian 16, Revision A.03,
 Gaussian 16:  EM64L-G16RevA.03 25-Dec-2016

 -------------
 #p 6-31g* mp2
 -------------

 ------------------------------------------------------
 Input file generated by CHIRIPA (05-May-2021 14:57:27)
 ------------------------------------------------------
 Symbolic Z-matrix:
 Charge =  0 Multiplicity = 1

                         Standard orientation:
 ---------------------------------------------------------------------
 Center     Atomic      Atomic             Coordinates (Angstroms)
 Number     Number       Type             X           Y           Z
 ---------------------------------------------------------------------
      1          6           0       -1.976375    1.279662    0.535276
      2          6           0       -3.087149    1.527700    1.348405
      3          6           0       -4.324210    0.944854    1.057683
      4          6           0       -4.415150    0.115419   -0.059035
      5          6           0       -3.326806   -0.151038   -0.888370
      6          6           0       -2.099532    0.442561   -0.578553
      7          1           0       -1.019198    1.736608    0.768532
      8          1           0       -2.994442    2.177379    2.214065
      9          1           0       -5.200323    1.119818    1.670244
     10          1           0       -3.450176   -0.803145   -1.744498
     11          1           0       -1.238587    0.248143   -1.211815
     12          7           0       -5.719590   -0.507306   -0.376917
     13          8           0       -5.773574   -1.234262   -1.366492
     14          8           0       -6.663327   -0.256651    0.369521
     15          6           0        6.446640    0.816656   -0.491995
     16          6           0        6.367284   -0.342979    0.286125
     17          6           0        5.127934   -0.924942    0.568754
     18          6           0        3.982981   -0.318084    0.054851
     19          6           0        4.029346    0.837485   -0.723483
     20          6           0        5.279475    1.402154   -0.993431
     21          1           0        7.413585    1.262021   -0.706623
     22          1           0        7.272063   -0.799860    0.676870
     23          1           0        5.037646   -1.822519    1.168437
     24          1           0        3.109952    1.270012   -1.099052
     25          1           0        5.338080    2.302759   -1.598014
     26          7           0        2.665231   -0.925027    0.347345
     27          8           0        1.671272   -0.371039   -0.117177
     28          8           0        2.651289   -1.943244    1.035586
 ---------------------------------------------------------------------

 SCF Done:  E(RHF) =  -868.339622312     A.U. after   16 cycles
 E2 =    -0.2598457298D+01 EUMP2 =    -0.87093807961004D+03

 The electronic state is 1-A.
 Alpha  occ. eigenvalues --  -20.61791 -20.61708 -20.59987 -20.59979 -15.86798
 Alpha  occ. eigenvalues --  -15.85030 -11.31952 -11.30207 -11.28528 -11.28462
 Alpha  occ. eigenvalues --  -11.28175 -11.27465 -11.27429 -11.26786 -11.26690
 Alpha  occ. eigenvalues --  -11.26369 -11.25769 -11.25549  -1.60811  -1.59064
 Alpha  occ. eigenvalues --   -1.40377  -1.38624  -1.20099  -1.18340  -1.09526
 Alpha  occ. eigenvalues --   -1.07752  -1.05471  -1.03710  -0.96400  -0.94629
 Alpha  occ. eigenvalues --   -0.86878  -0.85102  -0.83246  -0.81471  -0.78322
 Alpha  occ. eigenvalues --   -0.76557  -0.73034  -0.72120  -0.71254  -0.71201
 Alpha  occ. eigenvalues --   -0.70384  -0.69419  -0.65757  -0.65467  -0.63981
 Alpha  occ. eigenvalues --   -0.63675  -0.62826  -0.61058  -0.55965  -0.54172
 Alpha  occ. eigenvalues --   -0.53808  -0.53559  -0.52053  -0.51782  -0.49786
 Alpha  occ. eigenvalues --   -0.49734  -0.48020  -0.47991  -0.45828  -0.44072
 Alpha  occ. eigenvalues --   -0.38058  -0.37065  -0.36279  -0.35310
 Alpha virt. eigenvalues --    0.04197   0.05961   0.10592   0.12353   0.15734
 Alpha virt. eigenvalues --    0.17526   0.20703   0.22473   0.26659   0.27411
 Alpha virt. eigenvalues --    0.28484   0.29268   0.30463   0.31862   0.32118

 Mulliken charges:
               1
     1  C   -0.168685
     2  C   -0.219295
     3  C   -0.172723
     4  C    0.158031
     5  C   -0.173132
     6  C   -0.215552
     7  H    0.227579
     8  H    0.219145
     9  H    0.271962
    10  H    0.273178
    11  H    0.235368
    12  N    0.488230
    13  O   -0.462332
    14  O   -0.463472
    15  C   -0.169990
    16  C   -0.218321
    17  C   -0.170284
    18  C    0.158031
    19  C   -0.170970
    20  C   -0.218211
    21  H    0.228147
    22  H    0.226063
    23  H    0.277353
    24  H    0.271082
    25  H    0.224964
    26  N    0.492067
    27  O   -0.474623
    28  O   -0.453611
 Sum of Mulliken charges =  -0.00000

 Dipole moment (field-independent basis, Debye):
    X=              9.8529    Y=              4.2492    Z=              0.0870  Tot=             10.7305
 Quadrupole moment (field-independent basis, Debye-Ang):
   XX=           -107.7050   YY=           -103.0470   ZZ=           -101.4857
   XY=             -4.9007   XZ=             -9.4319   YZ=              0.0731

 Normal termination of Gaussian 16 at Fri May  7 02:02:00 2021.
