 Gaussian 16, Revision A.03,
 Gaussian 16:  EM64L-G16RevA.03 25-Dec-2016

 -------------
 #p 6-31g* mp2
 -------------

 ------------------------------------------------------
 Input file generated by CHIRIPA (05-May-2021 14:55:21)
 ------------------------------------------------------
 Symbolic Z-matrix:
 Charge =  0 Multiplicity = 1

                         Standard orientation:
 ---------------------------------------------------------------------
 Center     Atomic      Atomic             Coordinates (Angstroms)
 Number     Number       Type             X           Y           Z
 ---------------------------------------------------------------------
      1          6           0        1.476402   -2.298287    1.088360
      2          6           0        2.844708   -2.379715    0.809741
      3          6           0        3.511593   -1.308758    0.207359
      4          6           0        2.775950   -0.166414   -0.104361
      5          6           0        1.411902   -0.054951    0.160666
      6          6           0        0.765619   -1.138210    0.763506
      7          1           0        0.966352   -3.135010    1.556482
      8          1           0        3.399253   -3.279400    1.060923
      9          1           0        4.570211   -1.345030   -0.019427
     10          1           0        0.885879    0.855027   -0.101361
     11          1           0       -0.297097   -1.072166    0.978722
     12          7           0        3.471046    0.973872   -0.742319
     13          8           0        2.800339    1.969195   -1.007121
     14          8           0        4.673408    0.850713   -0.965467
     15          6           0       -3.413145    1.174818    0.250359
     16          6           0       -2.024106    1.705409    0.606771
     17          6           0       -2.053644    3.149583    1.108053
     18          1           0       -3.860017    1.821722   -0.516952
     19          1           0       -4.062312    1.243927    1.134215
     20          1           0       -1.377361    1.634036   -0.277109
     21          1           0       -1.580411    1.057056    1.373184
     22          1           0       -2.676332    3.233505    2.004612
     23          1           0       -2.472129    3.813763    0.344943
     24          1           0       -1.050213    3.508712    1.357073
     25          6           0       -3.400014   -0.267690   -0.252359
     26          6           0       -4.789052   -0.798282   -0.608772
     27          6           0       -4.759513   -2.242455   -1.110054
     28          1           0       -2.750846   -0.336798   -1.136216
     29          1           0       -2.953141   -0.914594    0.514951
     30          1           0       -5.232747   -0.149928   -1.375184
     31          1           0       -5.435796   -0.726908    0.275108
     32          1           0       -4.341029   -2.906635   -0.346944
     33          1           0       -4.136826   -2.326377   -2.006613
     34          1           0       -5.762945   -2.601583   -1.359074
 ---------------------------------------------------------------------

 SCF Done:  E(RHF) =  -669.535124366     A.U. after   15 cycles
 E2 =    -0.2092762130D+01 EUMP2 =    -0.67162788649547D+03

 The electronic state is 1-A.
 Alpha  occ. eigenvalues --  -20.60694 -20.60689 -15.85743 -11.31060 -11.27646
 Alpha  occ. eigenvalues --  -11.27567 -11.27376 -11.26660 -11.26577 -11.22495
 Alpha  occ. eigenvalues --  -11.22276 -11.22218 -11.22100 -11.21658 -11.21541
 Alpha  occ. eigenvalues --   -1.59769  -1.39323  -1.19234  -1.09200  -1.08642
 Alpha  occ. eigenvalues --   -1.04637  -1.04205  -0.96621  -0.95483  -0.87635
 Alpha  occ. eigenvalues --   -0.86034  -0.82332  -0.80328  -0.79092  -0.77325
 Alpha  occ. eigenvalues --   -0.71964  -0.71091  -0.70355  -0.65857  -0.64886
 Alpha  occ. eigenvalues --   -0.64617  -0.62026  -0.61598  -0.59963  -0.58255
 Alpha  occ. eigenvalues --   -0.55895  -0.55148  -0.53291  -0.53052  -0.52965
 Alpha  occ. eigenvalues --   -0.52728  -0.50553  -0.48742  -0.48720  -0.48575
 Alpha  occ. eigenvalues --   -0.47338  -0.46537  -0.46474  -0.44739  -0.44475
 Alpha  occ. eigenvalues --   -0.37226  -0.36225
 Alpha virt. eigenvalues --    0.05144   0.11403   0.16598   0.19803   0.22658
 Alpha virt. eigenvalues --    0.23367   0.24336   0.25460   0.26915   0.28569
 Alpha virt. eigenvalues --    0.29237   0.30573   0.31304   0.31485   0.32119

 Mulliken charges:
               1
     1  C   -0.171978
     2  C   -0.218830
     3  C   -0.170677
     4  C    0.159675
     5  C   -0.180196
     6  C   -0.227301
     7  H    0.225184
     8  H    0.222834
     9  H    0.275062
    10  H    0.284652
    11  H    0.232566
    12  N    0.487827
    13  O   -0.461015
    14  O   -0.460809
    15  C   -0.297182
    16  C   -0.311281
    17  C   -0.476245
    18  H    0.155025
    19  H    0.151965
    20  H    0.153587
    21  H    0.146620
    22  H    0.156475
    23  H    0.160000
    24  H    0.166764
    25  C   -0.302091
    26  C   -0.299903
    27  C   -0.476179
    28  H    0.152281
    29  H    0.141604
    30  H    0.155689
    31  H    0.153384
    32  H    0.152498
    33  H    0.156954
    34  H    0.163040
 Sum of Mulliken charges =  -0.00000

 Dipole moment (field-independent basis, Debye):
    X=             -2.6962    Y=             -3.8643    Z=              2.1937  Tot=              5.1975
 Quadrupole moment (field-independent basis, Debye-Ang):
   XX=           -104.1507   YY=            -93.0537   ZZ=            -95.2547
   XY=            -13.7631   XZ=              6.6922   YZ=             -0.6499

 Normal termination of Gaussian 16 at Thu May  6 17:30:51 2021.
