 Gaussian 16, Revision A.03,
 Gaussian 16:  EM64L-G16RevA.03 25-Dec-2016

 -------------
 #p 6-31g* mp2
 -------------

 ------------------------------------------------------
 Input file generated by CHIRIPA (05-May-2021 14:53:18)
 ------------------------------------------------------
 Symbolic Z-matrix:
 Charge =  0 Multiplicity = 1

                         Standard orientation:
 ---------------------------------------------------------------------
 Center     Atomic      Atomic             Coordinates (Angstroms)
 Number     Number       Type             X           Y           Z
 ---------------------------------------------------------------------
      1          6           0       -4.474890    0.152157   -0.252429
      2          6           0       -5.630857   -0.373455    0.599310
      3          6           0       -6.955987    0.325229    0.293265
      4          1           0       -4.367913    1.232979   -0.087125
      5          1           0       -4.722541    0.021464   -1.314965
      6          1           0       -5.380508   -0.243075    1.659943
      7          1           0       -5.734971   -1.453186    0.432104
      8          1           0       -7.232275    0.184346   -0.756696
      9          1           0       -6.875797    1.401333    0.478119
     10          1           0       -7.768638   -0.065886    0.913336
     11          6           0       -3.143462   -0.536571    0.041987
     12          6           0       -1.987496   -0.010959   -0.809752
     13          6           0       -0.662366   -0.709643   -0.503707
     14          1           0       -2.895812   -0.405878    1.104523
     15          1           0       -3.250440   -1.617393   -0.123317
     16          1           0       -1.883381    1.068772   -0.642546
     17          1           0       -2.237845   -0.141339   -1.870385
     18          1           0       -0.742556   -1.785746   -0.688561
     19          1           0       -0.386078   -0.568760    0.546255
     20          1           0        0.150286   -0.318528   -1.123777
     21          6           0        2.526156    2.632279    0.029949
     22          6           0        2.560928    1.901924   -1.162483
     23          6           0        2.809243    0.526206   -1.145489
     24          6           0        3.019401   -0.089800    0.087256
     25          6           0        2.991048    0.610472    1.292289
     26          6           0        2.740949    1.985362    1.251376
     27          1           0        2.332567    3.700649    0.007457
     28          1           0        2.394473    2.401690   -2.112521
     29          1           0        2.841711   -0.063386   -2.053643
     30          1           0        3.160724    0.084473    2.223930
     31          1           0        2.714527    2.550031    2.179005
     32          7           0        3.283224   -1.545773    0.117907
     33          8           0        3.465210   -2.065000    1.216962
     34          8           0        3.303028   -2.140169   -0.957702
 ---------------------------------------------------------------------

 SCF Done:  E(RHF) =  -669.534550407     A.U. after   15 cycles
 E2 =    -0.2092937400D+01 EUMP2 =    -0.67162748780687D+03

 The electronic state is 1-A.
 Alpha  occ. eigenvalues --  -20.60748 -20.60736 -15.85797 -11.31170 -11.27777
 Alpha  occ. eigenvalues --  -11.27749 -11.27531 -11.26804 -11.26795 -11.21624
 Alpha  occ. eigenvalues --  -11.21604 -11.21424 -11.21344 -11.21115 -11.20864
 Alpha  occ. eigenvalues --   -1.59816  -1.39371  -1.19382  -1.08763  -1.08434
 Alpha  occ. eigenvalues --   -1.04802  -1.03517  -0.95964  -0.95593  -0.86985
 Alpha  occ. eigenvalues --   -0.86186  -0.82431  -0.79593  -0.78252  -0.77470
 Alpha  occ. eigenvalues --   -0.72021  -0.71134  -0.70496  -0.65067  -0.65034
 Alpha  occ. eigenvalues --   -0.64797  -0.62146  -0.60917  -0.59384  -0.57601
 Alpha  occ. eigenvalues --   -0.55293  -0.55261  -0.53476  -0.52886  -0.52416
 Alpha  occ. eigenvalues --   -0.52227  -0.49874  -0.48780  -0.48772  -0.47904
 Alpha  occ. eigenvalues --   -0.46621  -0.45789  -0.45722  -0.44777  -0.43785
 Alpha  occ. eigenvalues --   -0.37315  -0.36334
 Alpha virt. eigenvalues --    0.05038   0.11199   0.16530   0.21355   0.22862
 Alpha virt. eigenvalues --    0.24333   0.26637   0.27133   0.27477   0.27875
 Alpha virt. eigenvalues --    0.28427   0.30851   0.31412   0.31801   0.31869

 Mulliken charges:
               1
     1  C   -0.297984
     2  C   -0.299651
     3  C   -0.475624
     4  H    0.147532
     5  H    0.149408
     6  H    0.151709
     7  H    0.153138
     8  H    0.155234
     9  H    0.154146
    10  H    0.160553
    11  C   -0.298424
    12  C   -0.299005
    13  C   -0.480528
    14  H    0.149119
    15  H    0.151999
    16  H    0.147607
    17  H    0.150842
    18  H    0.161108
    19  H    0.153753
    20  H    0.160668
    21  C   -0.170750
    22  C   -0.216508
    23  C   -0.177755
    24  C    0.168281
    25  C   -0.172143
    26  C   -0.218153
    27  H    0.225655
    28  H    0.223724
    29  H    0.275956
    30  H    0.275702
    31  H    0.223431
    32  N    0.488367
    33  O   -0.460799
    34  O   -0.460609
 Sum of Mulliken charges =  -0.00000

 Dipole moment (field-independent basis, Debye):
    X=             -0.8647    Y=              5.0952    Z=             -0.0967  Tot=              5.1689
 Quadrupole moment (field-independent basis, Debye-Ang):
   XX=           -102.3587   YY=            -95.9240   ZZ=            -89.3278
   XY=             16.4529   XZ=              0.0403   YZ=              1.2562

 Normal termination of Gaussian 16 at Wed May  5 23:39:40 2021.
