 Gaussian 16, Revision A.03,
 Gaussian 16:  EM64L-G16RevA.03 25-Dec-2016

 -------------
 #p 6-31g* mp2
 -------------

 ------------------------------------------------------
 Input file generated by CHIRIPA (05-May-2021 14:57:22)
 ------------------------------------------------------
 Symbolic Z-matrix:
 Charge =  0 Multiplicity = 1

                         Standard orientation:
 ---------------------------------------------------------------------
 Center     Atomic      Atomic             Coordinates (Angstroms)
 Number     Number       Type             X           Y           Z
 ---------------------------------------------------------------------
      1          6           0        5.142216    2.035125    0.513201
      2          6           0        4.127843    2.113629   -0.446697
      3          6           0        3.354330    0.990811   -0.755738
      4          6           0        3.623597   -0.199849   -0.082600
      5          6           0        4.627202   -0.309773    0.878641
      6          6           0        5.388225    0.825806    1.171646
      7          1           0        5.738248    2.912313    0.747043
      8          1           0        3.934555    3.051488   -0.959636
      9          1           0        2.562823    1.023608   -1.494561
     10          1           0        4.796333   -1.258530    1.373286
     11          1           0        6.175349    0.761905    1.917565
     12          7           0        2.811325   -1.395281   -0.401280
     13          8           0        3.068430   -2.432558    0.205836
     14          8           0        1.932942   -1.272347   -1.252142
     15          6           0       -2.514158   -2.189316   -0.090796
     16          6           0       -2.090257   -1.100794   -0.860179
     17          6           0       -2.771538    0.118599   -0.801161
     18          6           0       -3.877668    0.214755    0.041763
     19          6           0       -4.324464   -0.851592    0.820588
     20          6           0       -3.627945   -2.061465    0.745657
     21          1           0       -1.979003   -3.132872   -0.142824
     22          1           0       -1.225605   -1.197197   -1.510663
     23          1           0       -2.464945    0.977332   -1.385967
     24          1           0       -5.189864   -0.725064    1.459721
     25          1           0       -3.959413   -2.905145    1.344305
     26          7           0       -4.606976    1.500633    0.112667
     27          8           0       -5.578545    1.559656    0.863139
     28          8           0       -4.193229    2.425133   -0.583573
 ---------------------------------------------------------------------

 SCF Done:  E(RHF) =  -868.340286636     A.U. after   16 cycles
 E2 =    -0.2598133640D+01 EUMP2 =    -0.87093842027616D+03

 The electronic state is 1-A.
 Alpha  occ. eigenvalues --  -20.61625 -20.61581 -20.60291 -20.60285 -15.86640
 Alpha  occ. eigenvalues --  -15.85334 -11.31721 -11.30496 -11.28265 -11.28247
 Alpha  occ. eigenvalues --  -11.27933 -11.27202 -11.27191 -11.27046 -11.26983
 Alpha  occ. eigenvalues --  -11.26607 -11.26015 -11.25788  -1.60667  -1.59370
 Alpha  occ. eigenvalues --   -1.40231  -1.38930  -1.19864  -1.18617  -1.09308
 Alpha  occ. eigenvalues --   -1.08027  -1.05225  -1.03977  -0.96194  -0.94910
 Alpha  occ. eigenvalues --   -0.86636  -0.85364  -0.83041  -0.81747  -0.78120
 Alpha  occ. eigenvalues --   -0.76839  -0.72881  -0.71964  -0.71557  -0.70969
 Alpha  occ. eigenvalues --   -0.70691  -0.69684  -0.65522  -0.65223  -0.64249
 Alpha  occ. eigenvalues --   -0.63921  -0.62579  -0.61317  -0.55730  -0.54417
 Alpha  occ. eigenvalues --   -0.53566  -0.53313  -0.52334  -0.52028  -0.49642
 Alpha  occ. eigenvalues --   -0.49598  -0.48326  -0.48289  -0.45693  -0.44382
 Alpha  occ. eigenvalues --   -0.37821  -0.36814  -0.36559  -0.35587
 Alpha virt. eigenvalues --    0.04386   0.05664   0.10845   0.12076   0.15928
 Alpha virt. eigenvalues --    0.17239   0.20981   0.22378   0.26920   0.27612
 Alpha virt. eigenvalues --    0.28449   0.29185   0.30600   0.31744   0.32345

 Mulliken charges:
               1
     1  C   -0.169701
     2  C   -0.218098
     3  C   -0.169928
     4  C    0.158103
     5  C   -0.170449
     6  C   -0.218398
     7  H    0.228097
     8  H    0.226152
     9  H    0.273309
    10  H    0.275861
    11  H    0.225220
    12  N    0.491254
    13  O   -0.458298
    14  O   -0.471248
    15  C   -0.172214
    16  C   -0.223072
    17  C   -0.174535
    18  C    0.158086
    19  C   -0.173113
    20  C   -0.219031
    21  H    0.231715
    22  H    0.242917
    23  H    0.271301
    24  H    0.272607
    25  H    0.221334
    26  N    0.488209
    27  O   -0.462478
    28  O   -0.463600
 Sum of Mulliken charges =  -0.00000

 Dipole moment (field-independent basis, Debye):
    X=              5.8860    Y=             -0.3886    Z=              0.8750  Tot=              5.9634
 Quadrupole moment (field-independent basis, Debye-Ang):
   XX=           -101.8941   YY=           -106.9201   ZZ=           -101.5633
   XY=             33.6596   XZ=              4.9932   YZ=             -4.3252

 Normal termination of Gaussian 16 at Fri May  7 00:11:07 2021.
