 Gaussian 16, Revision A.03,
 Gaussian 16:  EM64L-G16RevA.03 25-Dec-2016

 -------------
 #p 6-31g* mp2
 -------------

 ------------------------------------------------------
 Input file generated by CHIRIPA (05-May-2021 14:55:19)
 ------------------------------------------------------
 Symbolic Z-matrix:
 Charge =  0 Multiplicity = 1

                         Standard orientation:
 ---------------------------------------------------------------------
 Center     Atomic      Atomic             Coordinates (Angstroms)
 Number     Number       Type             X           Y           Z
 ---------------------------------------------------------------------
      1          6           0        1.990333   -2.349811    0.909182
      2          6           0        3.329436   -1.949392    0.963856
      3          6           0        3.717276   -0.699159    0.472892
      4          6           0        2.735401    0.129167   -0.068485
      5          6           0        1.393244   -0.241233   -0.137105
      6          6           0        1.028208   -1.495959    0.359845
      7          1           0        1.697907   -3.322767    1.292900
      8          1           0        4.078789   -2.610434    1.389929
      9          1           0        4.746927   -0.363978    0.502736
     10          1           0        0.668945    0.439546   -0.567626
     11          1           0       -0.012495   -1.804289    0.316076
     12          7           0        3.133920    1.455110   -0.591415
     13          8           0        2.249728    2.166445   -1.063480
     14          8           0        4.322924    1.757944   -0.519321
     15          6           0       -3.777478    0.707959    0.295674
     16          6           0       -2.929840    1.979841    0.338253
     17          6           0       -3.664228    3.158534    0.977904
     18          1           0       -4.703209    0.910330   -0.260215
     19          1           0       -4.078781    0.442068    1.318374
     20          1           0       -2.629071    2.242478   -0.684086
     21          1           0       -2.005933    1.774365    0.893942
     22          1           0       -3.950546    2.921081    2.007582
     23          1           0       -4.577225    3.391854    0.420590
     24          1           0       -3.040005    4.057312    0.998026
     25          6           0       -3.057007   -0.479185   -0.340987
     26          6           0       -3.904644   -1.751066   -0.383566
     27          6           0       -3.170258   -2.929759   -1.023217
     28          1           0       -2.755703   -0.213294   -1.363686
     29          1           0       -2.131276   -0.681557    0.214903
     30          1           0       -4.828552   -1.545590   -0.939255
     31          1           0       -4.205414   -2.013704    0.638772
     32          1           0       -2.257261   -3.163079   -0.465902
     33          1           0       -2.883938   -2.692307   -2.052895
     34          1           0       -3.794479   -3.828538   -1.043338
 ---------------------------------------------------------------------

 SCF Done:  E(RHF) =  -669.535508648     A.U. after   15 cycles
 E2 =    -0.2092006339D+01 EUMP2 =    -0.67162751498676D+03

 The electronic state is 1-A.
 Alpha  occ. eigenvalues --  -20.60713 -20.60708 -15.85766 -11.31119 -11.27697
 Alpha  occ. eigenvalues --  -11.27665 -11.27434 -11.26712 -11.26661 -11.22370
 Alpha  occ. eigenvalues --  -11.22238 -11.21970 -11.21927 -11.21865 -11.21217
 Alpha  occ. eigenvalues --   -1.59789  -1.39342  -1.19292  -1.09064  -1.08691
 Alpha  occ. eigenvalues --   -1.04692  -1.04078  -0.96548  -0.95527  -0.87560
 Alpha  occ. eigenvalues --   -0.86095  -0.82366  -0.80169  -0.78880  -0.77394
 Alpha  occ. eigenvalues --   -0.71985  -0.71112  -0.70402  -0.65741  -0.64942
 Alpha  occ. eigenvalues --   -0.64684  -0.62061  -0.61447  -0.59926  -0.58142
 Alpha  occ. eigenvalues --   -0.55858  -0.55203  -0.53200  -0.53031  -0.52968
 Alpha  occ. eigenvalues --   -0.52803  -0.50501  -0.48754  -0.48739  -0.48452
 Alpha  occ. eigenvalues --   -0.47198  -0.46388  -0.46279  -0.44751  -0.44350
 Alpha  occ. eigenvalues --   -0.37279  -0.36293
 Alpha virt. eigenvalues --    0.05114   0.11337   0.16572   0.19091   0.22832
 Alpha virt. eigenvalues --    0.23155   0.24898   0.25754   0.26777   0.28522
 Alpha virt. eigenvalues --    0.29693   0.30302   0.31269   0.31572   0.32228

 Mulliken charges:
               1
     1  C   -0.171964
     2  C   -0.218581
     3  C   -0.171038
     4  C    0.158780
     5  C   -0.175285
     6  C   -0.227337
     7  H    0.225528
     8  H    0.223108
     9  H    0.275330
    10  H    0.278178
    11  H    0.234417
    12  N    0.488057
    13  O   -0.460372
    14  O   -0.460846
    15  C   -0.297810
    16  C   -0.302256
    17  C   -0.476472
    18  H    0.152787
    19  H    0.150382
    20  H    0.156151
    21  H    0.151327
    22  H    0.154764
    23  H    0.155810
    24  H    0.165499
    25  C   -0.304903
    26  C   -0.300343
    27  C   -0.477491
    28  H    0.152854
    29  H    0.141852
    30  H    0.156865
    31  H    0.153255
    32  H    0.146039
    33  H    0.159098
    34  H    0.164616
 Sum of Mulliken charges =  -0.00000

 Dipole moment (field-independent basis, Debye):
    X=             -1.6255    Y=             -4.5725    Z=              1.7941  Tot=              5.1739
 Quadrupole moment (field-independent basis, Debye-Ang):
   XX=            -97.1606   YY=            -96.9253   ZZ=            -94.7814
   XY=            -13.9439   XZ=              7.2664   YZ=             -0.3186

 Normal termination of Gaussian 16 at Thu May  6 17:23:25 2021.
