 Gaussian 16, Revision A.03,
 Gaussian 16:  EM64L-G16RevA.03 25-Dec-2016

 -------------
 #p 6-31g* mp2
 -------------

 ------------------------------------------------------
 Input file generated by CHIRIPA (05-May-2021 14:53:14)
 ------------------------------------------------------
 Symbolic Z-matrix:
 Charge =  0 Multiplicity = 1

                         Standard orientation:
 ---------------------------------------------------------------------
 Center     Atomic      Atomic             Coordinates (Angstroms)
 Number     Number       Type             X           Y           Z
 ---------------------------------------------------------------------
      1          6           0        3.310107    0.038303    0.886534
      2          6           0        2.068256   -0.806180    1.174009
      3          6           0        1.326615   -0.357189    2.433442
      4          1           0        3.987488   -0.011447    1.750030
      5          1           0        3.013042    1.091078    0.782550
      6          1           0        2.367387   -1.857238    1.276048
      7          1           0        1.393839   -0.754568    0.309652
      8          1           0        1.000173    0.683440    2.337910
      9          1           0        1.979252   -0.425495    3.309798
     10          1           0        0.442264   -0.974395    2.620099
     11          6           0        4.062230   -0.398364   -0.369396
     12          6           0        5.304080    0.446119   -0.656872
     13          6           0        6.045721   -0.002871   -1.916304
     14          1           0        4.359294   -1.451139   -0.265412
     15          1           0        3.384848   -0.348614   -1.232892
     16          1           0        5.978497    0.394507    0.207486
     17          1           0        5.004949    1.497177   -0.758910
     18          1           0        5.393084    0.065434   -2.792660
     19          1           0        6.372163   -1.043501   -1.820773
     20          1           0        6.930072    0.614334   -2.102961
     21          6           0       -3.570290   -2.259921   -0.557588
     22          6           0       -4.373182   -1.221634   -1.041165
     23          6           0       -4.000456    0.112175   -0.849913
     24          6           0       -2.813067    0.372727   -0.167631
     25          6           0       -1.991837   -0.639754    0.326085
     26          6           0       -2.384271   -1.966185    0.123293
     27          1           0       -3.867487   -3.293190   -0.710640
     28          1           0       -5.294790   -1.446785   -1.570307
     29          1           0       -4.603244    0.935384   -1.213767
     30          1           0       -1.078717   -0.384025    0.849756
     31          1           0       -1.758766   -2.770498    0.499948
     32          7           0       -2.408047    1.780866    0.040948
     33          8           0       -1.357241    1.983997    0.645250
     34          8           0       -3.149066    2.654769   -0.403820
 ---------------------------------------------------------------------

 SCF Done:  E(RHF) =  -669.535541566     A.U. after   15 cycles
 E2 =    -0.2092292999D+01 EUMP2 =    -0.67162783456430D+03

 The electronic state is 1-A.
 Alpha  occ. eigenvalues --  -20.60809 -20.60802 -15.85854 -11.31154 -11.27742
 Alpha  occ. eigenvalues --  -11.27653 -11.27480 -11.26750 -11.26726 -11.21809
 Alpha  occ. eigenvalues --  -11.21496 -11.21353 -11.21294 -11.21177 -11.20989
 Alpha  occ. eigenvalues --   -1.59877  -1.39433  -1.19335  -1.08745  -1.08422
 Alpha  occ. eigenvalues --   -1.04735  -1.03568  -0.96015  -0.95577  -0.87018
 Alpha  occ. eigenvalues --   -0.86130  -0.82422  -0.79632  -0.78226  -0.77475
 Alpha  occ. eigenvalues --   -0.72081  -0.71196  -0.70467  -0.65103  -0.64991
 Alpha  occ. eigenvalues --   -0.64706  -0.62205  -0.60866  -0.59370  -0.57623
 Alpha  occ. eigenvalues --   -0.55352  -0.55118  -0.53073  -0.52916  -0.52618
 Alpha  occ. eigenvalues --   -0.52378  -0.49903  -0.48826  -0.48822  -0.47947
 Alpha  occ. eigenvalues --   -0.46643  -0.45773  -0.45660  -0.44849  -0.43815
 Alpha  occ. eigenvalues --   -0.37323  -0.36327
 Alpha virt. eigenvalues --    0.05033   0.11286   0.16537   0.20362   0.23065
 Alpha virt. eigenvalues --    0.24024   0.26490   0.26824   0.27509   0.27969
 Alpha virt. eigenvalues --    0.29509   0.30756   0.31456   0.31781   0.32466

 Mulliken charges:
               1
     1  C   -0.299106
     2  C   -0.303220
     3  C   -0.491889
     4  H    0.149835
     5  H    0.158695
     6  H    0.148921
     7  H    0.148531
     8  H    0.179227
     9  H    0.160769
    10  H    0.146399
    11  C   -0.298608
    12  C   -0.300180
    13  C   -0.475769
    14  H    0.147271
    15  H    0.150278
    16  H    0.151719
    17  H    0.154903
    18  H    0.155399
    19  H    0.153949
    20  H    0.160678
    21  C   -0.170246
    22  C   -0.219313
    23  C   -0.169667
    24  C    0.156081
    25  C   -0.182616
    26  C   -0.224659
    27  H    0.225563
    28  H    0.223345
    29  H    0.275421
    30  H    0.299461
    31  H    0.224033
    32  N    0.488203
    33  O   -0.463457
    34  O   -0.459951
 Sum of Mulliken charges =  -0.00000

 Dipole moment (field-independent basis, Debye):
    X=             -1.3503    Y=             -4.7884    Z=             -0.7141  Tot=              5.0261
 Quadrupole moment (field-independent basis, Debye-Ang):
   XX=            -83.5058   YY=            -98.2813   ZZ=            -94.4696
   XY=             12.3065   XZ=              5.7079   YZ=             -0.5487

 Normal termination of Gaussian 16 at Wed May  5 15:34:32 2021.
