 Gaussian 16, Revision A.03,
 Gaussian 16:  EM64L-G16RevA.03 25-Dec-2016

 -------------
 #p 6-31g* mp2
 -------------

 ------------------------------------------------------
 Input file generated by CHIRIPA (05-May-2021 14:55:21)
 ------------------------------------------------------
 Symbolic Z-matrix:
 Charge =  0 Multiplicity = 1

                         Standard orientation:
 ---------------------------------------------------------------------
 Center     Atomic      Atomic             Coordinates (Angstroms)
 Number     Number       Type             X           Y           Z
 ---------------------------------------------------------------------
      1          6           0       -1.454020    1.796241   -0.445980
      2          6           0       -1.031963    0.462793   -0.463471
      3          6           0       -1.947820   -0.574491   -0.263977
      4          6           0       -3.284091   -0.240763   -0.048817
      5          6           0       -3.735421    1.077970   -0.025708
      6          6           0       -2.802025    2.099040   -0.227540
      7          1           0       -0.735748    2.595731   -0.601860
      8          1           0        0.014288    0.224672   -0.632885
      9          1           0       -1.648276   -1.615461   -0.272503
     10          1           0       -4.784983    1.284114    0.145587
     11          1           0       -3.132650    3.133706   -0.213431
     12          7           0       -4.262952   -1.330307    0.163615
     13          8           0       -5.434631   -1.009929    0.351133
     14          8           0       -3.839968   -2.484038    0.138581
     15          6           0        3.939588    0.807973   -0.111190
     16          6           0        2.884344    1.593032    0.668634
     17          6           0        2.781024    3.051087    0.220088
     18          1           0        4.914931    1.299522    0.007260
     19          1           0        3.698054    0.846781   -1.182428
     20          1           0        3.127032    1.551592    1.738214
     21          1           0        1.911435    1.099448    0.548471
     22          1           0        2.515756    3.110005   -0.840461
     23          1           0        3.738259    3.564719    0.356043
     24          1           0        2.020811    3.593721    0.790600
     25          6           0        4.054686   -0.651317    0.325792
     26          6           0        5.109930   -1.436376   -0.454033
     27          6           0        5.213251   -2.894432   -0.005486
     28          1           0        4.296221   -0.690126    1.397030
     29          1           0        3.079344   -1.142867    0.207342
     30          1           0        6.082840   -0.942793   -0.333869
     31          1           0        4.867243   -1.394937   -1.523613
     32          1           0        4.256015   -3.408063   -0.141441
     33          1           0        5.478519   -2.953350    1.055062
     34          1           0        5.973464   -3.437066   -0.575998
 ---------------------------------------------------------------------

 SCF Done:  E(RHF) =  -669.535459284     A.U. after   15 cycles
 E2 =    -0.2091579002D+01 EUMP2 =    -0.67162703828642D+03

 The electronic state is 1-A.
 Alpha  occ. eigenvalues --  -20.60756 -20.60751 -15.85810 -11.31177 -11.27752
 Alpha  occ. eigenvalues --  -11.27749 -11.27478 -11.26757 -11.26744 -11.22664
 Alpha  occ. eigenvalues --  -11.22270 -11.22196 -11.22195 -11.22123 -11.21522
 Alpha  occ. eigenvalues --   -1.59831  -1.39385  -1.19352  -1.09269  -1.08742
 Alpha  occ. eigenvalues --   -1.04759  -1.04345  -0.96789  -0.95576  -0.87804
 Alpha  occ. eigenvalues --   -0.86158  -0.82411  -0.80421  -0.79045  -0.77461
 Alpha  occ. eigenvalues --   -0.72028  -0.71154  -0.70452  -0.65971  -0.65002
 Alpha  occ. eigenvalues --   -0.64749  -0.62175  -0.61674  -0.60173  -0.58381
 Alpha  occ. eigenvalues --   -0.56087  -0.55240  -0.53484  -0.53203  -0.53081
 Alpha  occ. eigenvalues --   -0.52863  -0.50729  -0.48816  -0.48782  -0.48689
 Alpha  occ. eigenvalues --   -0.47453  -0.46580  -0.46497  -0.44790  -0.44595
 Alpha  occ. eigenvalues --   -0.37322  -0.36356
 Alpha virt. eigenvalues --    0.05078   0.11189   0.16557   0.18652   0.22558
 Alpha virt. eigenvalues --    0.23711   0.24649   0.26037   0.26683   0.28627
 Alpha virt. eigenvalues --    0.29576   0.30553   0.30990   0.31203   0.31971

 Mulliken charges:
               1
     1  C   -0.173583
     2  C   -0.221557
     3  C   -0.171353
     4  C    0.158518
     5  C   -0.170755
     6  C   -0.218816
     7  H    0.229121
     8  H    0.227077
     9  H    0.275558
    10  H    0.275608
    11  H    0.223536
    12  N    0.488054
    13  O   -0.460437
    14  O   -0.460460
    15  C   -0.299385
    16  C   -0.304691
    17  C   -0.478691
    18  H    0.153593
    19  H    0.147992
    20  H    0.158159
    21  H    0.146152
    22  H    0.151621
    23  H    0.161684
    24  H    0.159268
    25  C   -0.297848
    26  C   -0.300319
    27  C   -0.476175
    28  H    0.152824
    29  H    0.144741
    30  H    0.153686
    31  H    0.152052
    32  H    0.155712
    33  H    0.156655
    34  H    0.162463
 Sum of Mulliken charges =  -0.00000

 Dipole moment (field-independent basis, Debye):
    X=              3.6579    Y=              3.8381    Z=             -0.6942  Tot=              5.3473
 Quadrupole moment (field-independent basis, Debye-Ang):
   XX=           -113.4952   YY=            -95.5326   ZZ=            -95.0614
   XY=            -16.0197   XZ=              2.5530   YZ=              0.8565

 Normal termination of Gaussian 16 at Wed May  5 15:54:43 2021.
