 Gaussian 16, Revision A.03,
 Gaussian 16:  EM64L-G16RevA.03 25-Dec-2016

 -------------
 #p 6-31g* mp2
 -------------

 ------------------------------------------------------
 Input file generated by CHIRIPA (05-May-2021 14:53:11)
 ------------------------------------------------------
 Symbolic Z-matrix:
 Charge =  0 Multiplicity = 1

                         Standard orientation:
 ---------------------------------------------------------------------
 Center     Atomic      Atomic             Coordinates (Angstroms)
 Number     Number       Type             X           Y           Z
 ---------------------------------------------------------------------
      1          6           0       -3.229709   -0.610134   -0.505856
      2          6           0       -3.726009   -1.478636    0.650594
      3          6           0       -4.056107   -2.907377    0.217550
      4          1           0       -3.994558   -0.588396   -1.294195
      5          1           0       -2.337990   -1.075453   -0.948247
      6          1           0       -4.615716   -1.011101    1.091557
      7          1           0       -2.959970   -1.498153    1.436354
      8          1           0       -3.171616   -3.396449   -0.203265
      9          1           0       -4.836770   -2.906630   -0.550021
     10          1           0       -4.408974   -3.510747    1.059744
     11          6           0       -2.895606    0.820978   -0.088697
     12          6           0       -2.399306    1.689480   -1.245147
     13          6           0       -2.069208    3.118222   -0.812104
     14          1           0       -3.787325    1.286297    0.353694
     15          1           0       -2.130757    0.799241    0.699642
     16          1           0       -3.165345    1.708997   -2.030908
     17          1           0       -1.509599    1.221945   -1.686110
     18          1           0       -1.288545    3.117475   -0.044532
     19          1           0       -2.953699    3.607294   -0.391288
     20          1           0       -1.716341    3.721592   -1.654297
     21          6           0        1.180645    1.838875    1.330289
     22          6           0        0.696790    0.534018    1.470836
     23          6           0        1.360247   -0.538159    0.866839
     24          6           0        2.509878   -0.268099    0.126093
     25          6           0        3.016751    1.020801   -0.032357
     26          6           0        2.337042    2.077682    0.580462
     27          1           0        0.658943    2.665826    1.802915
     28          1           0       -0.201050    0.345586    2.052575
     29          1           0        1.007544   -1.558185    0.959393
     30          1           0        3.914214    1.177325   -0.618426
     31          1           0        2.715102    3.090018    0.469608
     32          7           0        3.220853   -1.395068   -0.518002
     33          8           0        4.231610   -1.130707   -1.165396
     34          8           0        2.753895   -2.521407   -0.363252
 ---------------------------------------------------------------------

 SCF Done:  E(RHF) =  -669.534924258     A.U. after   15 cycles
 E2 =    -0.2093531373D+01 EUMP2 =    -0.67162845563173D+03

 The electronic state is 1-A.
 Alpha  occ. eigenvalues --  -20.60843 -20.60838 -15.85898 -11.31294 -11.27863
 Alpha  occ. eigenvalues --  -11.27850 -11.27605 -11.26883 -11.26871 -11.22126
 Alpha  occ. eigenvalues --  -11.22074 -11.21952 -11.21826 -11.21682 -11.21391
 Alpha  occ. eigenvalues --   -1.59918  -1.39471  -1.19471  -1.08965  -1.08841
 Alpha  occ. eigenvalues --   -1.04875  -1.04016  -0.96472  -0.95688  -0.87489
 Alpha  occ. eigenvalues --   -0.86274  -0.82519  -0.80087  -0.78781  -0.77556
 Alpha  occ. eigenvalues --   -0.72115  -0.71242  -0.70581  -0.65682  -0.65121
 Alpha  occ. eigenvalues --   -0.64812  -0.62217  -0.61420  -0.59834  -0.58089
 Alpha  occ. eigenvalues --   -0.55867  -0.55290  -0.53196  -0.53151  -0.53029
 Alpha  occ. eigenvalues --   -0.52832  -0.50405  -0.48876  -0.48868  -0.48401
 Alpha  occ. eigenvalues --   -0.47119  -0.46313  -0.46206  -0.44870  -0.44276
 Alpha  occ. eigenvalues --   -0.37404  -0.36446
 Alpha virt. eigenvalues --    0.04929   0.11060   0.16278   0.19556   0.22860
 Alpha virt. eigenvalues --    0.23489   0.25065   0.26446   0.26606   0.28474
 Alpha virt. eigenvalues --    0.29373   0.30763   0.31215   0.31719   0.31892

 Mulliken charges:
               1
     1  C   -0.300087
     2  C   -0.298561
     3  C   -0.476481
     4  H    0.152733
     5  H    0.152521
     6  H    0.152907
     7  H    0.143285
     8  H    0.158355
     9  H    0.157175
    10  H    0.161253
    11  C   -0.299892
    12  C   -0.299291
    13  C   -0.477038
    14  H    0.149514
    15  H    0.142031
    16  H    0.154377
    17  H    0.156725
    18  H    0.147623
    19  H    0.155128
    20  H    0.162305
    21  C   -0.170351
    22  C   -0.217194
    23  C   -0.172930
    24  C    0.158786
    25  C   -0.170663
    26  C   -0.218892
    27  H    0.226904
    28  H    0.225566
    29  H    0.275868
    30  H    0.276092
    31  H    0.224411
    32  N    0.488039
    33  O   -0.459982
    34  O   -0.460237
 Sum of Mulliken charges =  -0.00000

 Dipole moment (field-independent basis, Debye):
    X=             -2.4969    Y=              3.9152    Z=              2.1628  Tot=              5.1226
 Quadrupole moment (field-independent basis, Debye-Ang):
   XX=           -104.2998   YY=            -96.2577   ZZ=            -94.1321
   XY=             12.9596   XZ=              4.4374   YZ=             -1.6450

 Normal termination of Gaussian 16 at Thu May  6 00:53:15 2021.
