 Gaussian 16, Revision A.03,
 Gaussian 16:  EM64L-G16RevA.03 25-Dec-2016

 -------------
 #p 6-31g* mp2
 -------------

 ------------------------------------------------------
 Input file generated by CHIRIPA (05-May-2021 14:51:12)
 ------------------------------------------------------
 Symbolic Z-matrix:
 Charge =  0 Multiplicity = 1

                         Standard orientation:
 ---------------------------------------------------------------------
 Center     Atomic      Atomic             Coordinates (Angstroms)
 Number     Number       Type             X           Y           Z
 ---------------------------------------------------------------------
      1          6           0        2.996594   -0.058274    0.428626
      2          6           0        2.345593   -0.700765    1.653938
      3          6           0        0.931550   -0.180189    1.913318
      4          1           0        3.024837    1.031428    0.565367
      5          1           0        2.368138   -0.246496   -0.452855
      6          1           0        2.975793   -0.512569    2.532599
      7          1           0        2.319070   -1.789079    1.514348
      8          1           0        0.283251   -0.381742    1.054432
      9          1           0        0.943706    0.902021    2.078468
     10          1           0        0.484981   -0.652737    2.793735
     11          6           0        4.410543   -0.568498    0.156329
     12          6           0        5.061544    0.073993   -1.068982
     13          6           0        6.475586   -0.446583   -1.328363
     14          1           0        5.038999   -0.380276    1.037811
     15          1           0        4.382300   -1.658200    0.019588
     16          1           0        5.088067    1.162307   -0.929392
     17          1           0        4.431343   -0.114204   -1.947643
     18          1           0        6.463430   -1.528793   -1.493513
     19          1           0        7.123885   -0.245030   -0.469476
     20          1           0        6.922156    0.025965   -2.208780
     21          6           0       -3.838726   -0.405303   -0.513045
     22          6           0       -5.231073   -0.906167   -0.127699
     23          6           0       -5.486498   -2.345533   -0.575781
     24          1           0       -3.718218   -0.478521   -1.602568
     25          1           0       -3.082608   -1.067973   -0.069705
     26          1           0       -5.984311   -0.241949   -0.570488
     27          1           0       -5.348350   -0.831569    0.961015
     28          1           0       -4.757082   -3.025069   -0.123251
     29          1           0       -5.396656   -2.432098   -1.663456
     30          1           0       -6.487586   -2.683277   -0.290106
     31          6           0       -3.568410    1.032075   -0.071911
     32          6           0       -2.176064    1.532939   -0.457257
     33          6           0       -1.920638    2.972305   -0.009174
     34          1           0       -4.324528    1.694744   -0.515250
     35          1           0       -3.688918    1.105293    1.017613
     36          1           0       -2.058786    1.458341   -1.545970
     37          1           0       -1.422826    0.868720   -0.014467
     38          1           0       -2.010480    3.058871    1.078500
     39          1           0       -2.650055    3.651841   -0.461705
     40          1           0       -0.919549    3.310049   -0.294849
 ---------------------------------------------------------------------

 SCF Done:  E(RHF) =  -470.733258422     A.U. after   11 cycles
 E2 =    -0.1582624714D+01 EUMP2 =    -0.47231588313603D+03

 The electronic state is 1-A.
 Alpha  occ. eigenvalues --  -11.21641 -11.21612 -11.21577 -11.21495 -11.21425
 Alpha  occ. eigenvalues --  -11.21365 -11.21365 -11.21298 -11.21126 -11.21079
 Alpha  occ. eigenvalues --  -11.21055 -11.21008  -1.08455  -1.08383  -1.03565
 Alpha  occ. eigenvalues --   -1.03475  -0.96015  -0.95931  -0.87036  -0.86947
 Alpha  occ. eigenvalues --   -0.79664  -0.79513  -0.78280  -0.78183  -0.65101
 Alpha  occ. eigenvalues --   -0.65003  -0.61005  -0.60848  -0.59388  -0.59296
 Alpha  occ. eigenvalues --   -0.57651  -0.57513  -0.55308  -0.55221  -0.52707
 Alpha  occ. eigenvalues --   -0.52634  -0.52456  -0.52348  -0.50031  -0.49822
 Alpha  occ. eigenvalues --   -0.48072  -0.47775  -0.46756  -0.46472  -0.45882
 Alpha  occ. eigenvalues --   -0.45752  -0.45715  -0.45474  -0.43813  -0.43737
 Alpha virt. eigenvalues --    0.21630   0.23021   0.23758   0.24747   0.25501
 Alpha virt. eigenvalues --    0.26721   0.27194   0.27610   0.27903   0.29028
 Alpha virt. eigenvalues --    0.30852   0.31559   0.31841   0.31918   0.31934

 Mulliken charges:
               1
     1  C   -0.298423
     2  C   -0.299400
     3  C   -0.481171
     4  H    0.149723
     5  H    0.149783
     6  H    0.152121
     7  H    0.151979
     8  H    0.159574
     9  H    0.156285
    10  H    0.160244
    11  C   -0.298320
    12  C   -0.299695
    13  C   -0.475725
    14  H    0.149568
    15  H    0.149689
    16  H    0.151970
    17  H    0.152045
    18  H    0.155202
    19  H    0.155191
    20  H    0.160309
    21  C   -0.298487
    22  C   -0.299593
    23  C   -0.475699
    24  H    0.149393
    25  H    0.149074
    26  H    0.151938
    27  H    0.152038
    28  H    0.155107
    29  H    0.155051
    30  H    0.160189
    31  C   -0.297601
    32  C   -0.307929
    33  C   -0.475145
    34  H    0.149192
    35  H    0.149781
    36  H    0.151023
    37  H    0.160872
    38  H    0.155149
    39  H    0.154749
    40  H    0.159951
 Sum of Mulliken charges =  -0.00000

 Dipole moment (field-independent basis, Debye):
    X=              0.0328    Y=             -0.0072    Z=              0.0167  Tot=              0.0375
 Quadrupole moment (field-independent basis, Debye-Ang):
   XX=            -85.7541   YY=            -85.3083   ZZ=            -83.8059
   XY=              0.1221   XZ=              0.7709   YZ=             -0.1927

 Normal termination of Gaussian 16 at Thu May  6 02:20:03 2021.
