 Gaussian 16, Revision A.03,
 Gaussian 16:  EM64L-G16RevA.03 25-Dec-2016

 -------------
 #p 6-31g* mp2
 -------------

 ------------------------------------------------------
 Input file generated by CHIRIPA (05-May-2021 14:53:16)
 ------------------------------------------------------
 Symbolic Z-matrix:
 Charge =  0 Multiplicity = 1

                         Standard orientation:
 ---------------------------------------------------------------------
 Center     Atomic      Atomic             Coordinates (Angstroms)
 Number     Number       Type             X           Y           Z
 ---------------------------------------------------------------------
      1          6           0        4.466477    0.777332    0.364397
      2          6           0        3.042893    0.931886   -0.171797
      3          6           0        2.269107    2.054365    0.520366
      4          1           0        4.425471    0.584057    1.445095
      5          1           0        5.003987    1.727188    0.236918
      6          1           0        2.508659   -0.018395   -0.044608
      7          1           0        3.087285    1.124625   -1.251379
      8          1           0        2.777098    3.014330    0.382474
      9          1           0        2.195184    1.864815    1.596102
     10          1           0        1.254070    2.147321    0.121720
     11          6           0        5.252695   -0.340837   -0.317723
     12          6           0        6.676280   -0.495392    0.218471
     13          6           0        7.450065   -1.617871   -0.473692
     14          1           0        4.715185   -1.290694   -0.190244
     15          1           0        5.293701   -0.147562   -1.398421
     16          1           0        6.631887   -0.688131    1.298053
     17          1           0        7.210513    0.454889    0.091281
     18          1           0        7.523988   -1.428321   -1.549428
     19          1           0        6.942075   -2.577835   -0.335800
     20          1           0        8.465102   -1.710827   -0.075046
     21          6           0       -1.292231    0.122738    0.072935
     22          6           0       -1.864464   -1.112765    0.393253
     23          6           0       -3.250856   -1.286683    0.346163
     24          6           0       -4.038660   -0.198855   -0.027045
     25          6           0       -3.498411    1.044482   -0.351908
     26          6           0       -2.109591    1.195527   -0.297969
     27          1           0       -0.214306    0.248958    0.112176
     28          1           0       -1.232148   -1.947661    0.681641
     29          1           0       -3.720226   -2.232249    0.589094
     30          1           0       -4.154611    1.858248   -0.635814
     31          1           0       -1.667951    2.156179   -0.547261
     32          7           0       -5.507657   -0.370868   -0.080523
     33          8           0       -6.179868    0.603129   -0.412338
     34          8           0       -5.959031   -1.476431    0.210389
 ---------------------------------------------------------------------

 SCF Done:  E(RHF) =  -669.535269661     A.U. after   15 cycles
 E2 =    -0.2091350533D+01 EUMP2 =    -0.67162662019383D+03

 The electronic state is 1-A.
 Alpha  occ. eigenvalues --  -20.60713 -20.60708 -15.85767 -11.31119 -11.27697
 Alpha  occ. eigenvalues --  -11.27693 -11.27377 -11.26700 -11.26688 -11.22847
 Alpha  occ. eigenvalues --  -11.22429 -11.22324 -11.22226 -11.22132 -11.21592
 Alpha  occ. eigenvalues --   -1.59789  -1.39343  -1.19292  -1.09335  -1.08684
 Alpha  occ. eigenvalues --   -1.04698  -1.04462  -0.96907  -0.95521  -0.87918
 Alpha  occ. eigenvalues --   -0.86095  -0.82360  -0.80539  -0.79091  -0.77412
 Alpha  occ. eigenvalues --   -0.71985  -0.71113  -0.70431  -0.65958  -0.64946
 Alpha  occ. eigenvalues --   -0.64721  -0.62055  -0.61849  -0.60349  -0.58523
 Alpha  occ. eigenvalues --   -0.56188  -0.55135  -0.53599  -0.53291  -0.53021
 Alpha  occ. eigenvalues --   -0.52787  -0.50823  -0.48850  -0.48743  -0.48740
 Alpha  occ. eigenvalues --   -0.47566  -0.46639  -0.46531  -0.44752  -0.44700
 Alpha  occ. eigenvalues --   -0.37260  -0.36307
 Alpha virt. eigenvalues --    0.05130   0.11345   0.16620   0.19114   0.22374
 Alpha virt. eigenvalues --    0.23910   0.25029   0.25843   0.26357   0.27100
 Alpha virt. eigenvalues --    0.29078   0.29652   0.30602   0.31365   0.31657

 Mulliken charges:
               1
     1  C   -0.298766
     2  C   -0.303393
     3  C   -0.480436
     4  H    0.151362
     5  H    0.152860
     6  H    0.145738
     7  H    0.156211
     8  H    0.163327
     9  H    0.159792
    10  H    0.149892
    11  C   -0.298887
    12  C   -0.300384
    13  C   -0.476161
    14  H    0.148988
    15  H    0.151204
    16  H    0.152758
    17  H    0.153278
    18  H    0.156100
    19  H    0.155484
    20  H    0.162250
    21  C   -0.177876
    22  C   -0.220657
    23  C   -0.170567
    24  C    0.157968
    25  C   -0.170580
    26  C   -0.222270
    27  H    0.238902
    28  H    0.223015
    29  H    0.275276
    30  H    0.275383
    31  H    0.223430
    32  N    0.488042
    33  O   -0.460635
    34  O   -0.460648
 Sum of Mulliken charges =  -0.00000

 Dipole moment (field-independent basis, Debye):
    X=              5.4971    Y=              0.6454    Z=              0.2021  Tot=              5.5386
 Quadrupole moment (field-independent basis, Debye-Ang):
   XX=           -136.3471   YY=            -90.5209   ZZ=            -94.8173
   XY=             -3.1179   XZ=             -0.6747   YZ=             -2.4078

 Normal termination of Gaussian 16 at Thu May  6 18:50:14 2021.
