 Gaussian 16, Revision A.03,
 Gaussian 16:  EM64L-G16RevA.03 25-Dec-2016

 -------------
 #p 6-31g* mp2
 -------------

 ------------------------------------------------------
 Input file generated by CHIRIPA (05-May-2021 14:53:17)
 ------------------------------------------------------
 Symbolic Z-matrix:
 Charge =  0 Multiplicity = 1

                         Standard orientation:
 ---------------------------------------------------------------------
 Center     Atomic      Atomic             Coordinates (Angstroms)
 Number     Number       Type             X           Y           Z
 ---------------------------------------------------------------------
      1          6           0       -3.917349   -0.260346   -0.116408
      2          6           0       -5.180081   -0.910174    0.450351
      3          6           0       -5.309951   -2.384274    0.065698
      4          1           0       -3.922979   -0.356066   -1.210826
      5          1           0       -3.037157   -0.812462    0.241119
      6          1           0       -6.057558   -0.356158    0.092977
      7          1           0       -5.171537   -0.812727    1.543533
      8          1           0       -4.452865   -2.955997    0.436021
      9          1           0       -5.343921   -2.496834   -1.022776
     10          1           0       -6.219538   -2.829000    0.481308
     11          6           0       -3.773418    1.213320    0.259520
     12          6           0       -2.510686    1.863149   -0.307239
     13          6           0       -2.380816    3.337249    0.077413
     14          1           0       -4.653609    1.765436   -0.098008
     15          1           0       -3.767788    1.309040    1.353938
     16          1           0       -2.519230    1.765701   -1.400421
     17          1           0       -1.633209    1.309133    0.050134
     18          1           0       -2.346846    3.449808    1.165888
     19          1           0       -3.237901    3.908971   -0.292910
     20          1           0       -1.471229    3.781975   -0.338196
     21          6           0        5.218732    0.777826    0.317067
     22          6           0        5.123232   -0.612577    0.436144
     23          6           0        3.901336   -1.260436    0.231692
     24          6           0        2.790113   -0.483441   -0.091960
     25          6           0        2.853264    0.903447   -0.217825
     26          6           0        4.085442    1.530074   -0.008963
     27          1           0        6.171924    1.272852    0.477602
     28          1           0        6.001704   -1.199328    0.689233
     29          1           0        3.799167   -2.335432    0.317502
     30          1           0        1.960112    1.461538   -0.471267
     31          1           0        4.156650    2.610028   -0.102109
     32          7           0        1.491105   -1.158061   -0.310738
     33          8           0        0.526845   -0.450893   -0.594907
     34          8           0        1.461799   -2.381225   -0.193906
 ---------------------------------------------------------------------

 SCF Done:  E(RHF) =  -669.536074467     A.U. after   15 cycles
 E2 =    -0.2091033419D+01 EUMP2 =    -0.67162710788554D+03

 The electronic state is 1-A.
 Alpha  occ. eigenvalues --  -20.60946 -20.60937 -15.85979 -11.31295 -11.27859
 Alpha  occ. eigenvalues --  -11.27855 -11.27596 -11.26866 -11.26856 -11.20684
 Alpha  occ. eigenvalues --  -11.20500 -11.20443 -11.20405 -11.20202 -11.20184
 Alpha  occ. eigenvalues --   -1.60008  -1.39564  -1.19465  -1.08870  -1.07419
 Alpha  occ. eigenvalues --   -1.04860  -1.02619  -0.95713  -0.95103  -0.86261
 Alpha  occ. eigenvalues --   -0.86117  -0.82549  -0.78655  -0.77607  -0.77176
 Alpha  occ. eigenvalues --   -0.72201  -0.71323  -0.70573  -0.65122  -0.64863
 Alpha  occ. eigenvalues --   -0.64049  -0.62207  -0.60019  -0.58473  -0.56701
 Alpha  occ. eigenvalues --   -0.55365  -0.54398  -0.53193  -0.52951  -0.51836
 Alpha  occ. eigenvalues --   -0.51517  -0.49062  -0.48960  -0.48937  -0.46973
 Alpha  occ. eigenvalues --   -0.45683  -0.45025  -0.44762  -0.44535  -0.42854
 Alpha  occ. eigenvalues --   -0.37444  -0.36462
 Alpha virt. eigenvalues --    0.04908   0.11193   0.16388   0.21182   0.23772
 Alpha virt. eigenvalues --    0.24878   0.27041   0.27542   0.27885   0.28842
 Alpha virt. eigenvalues --    0.28970   0.30789   0.31835   0.32273   0.32699

 Mulliken charges:
               1
     1  C   -0.300019
     2  C   -0.299115
     3  C   -0.475337
     4  H    0.149479
     5  H    0.163228
     6  H    0.148057
     7  H    0.149142
     8  H    0.158699
     9  H    0.154681
    10  H    0.156157
    11  C   -0.297782
    12  C   -0.307039
    13  C   -0.474576
    14  H    0.144518
    15  H    0.145732
    16  H    0.151193
    17  H    0.173137
    18  H    0.151964
    19  H    0.152690
    20  H    0.152182
    21  C   -0.170594
    22  C   -0.218576
    23  C   -0.170849
    24  C    0.157681
    25  C   -0.170860
    26  C   -0.218573
    27  H    0.226026
    28  H    0.223808
    29  H    0.275795
    30  H    0.276221
    31  H    0.224009
    32  N    0.492957
    33  O   -0.464784
    34  O   -0.459252
 Sum of Mulliken charges =  -0.00000

 Dipole moment (field-independent basis, Debye):
    X=              4.8604    Y=              2.1952    Z=              0.7410  Tot=              5.3844
 Quadrupole moment (field-independent basis, Debye-Ang):
   XX=            -69.6774   YY=            -95.0554   ZZ=            -95.0256
   XY=              2.3565   XZ=              2.8242   YZ=             -1.9881

 Normal termination of Gaussian 16 at Thu May  6 09:07:51 2021.
