 Gaussian 16, Revision A.03,
 Gaussian 16:  EM64L-G16RevA.03 25-Dec-2016

 -------------
 #p 6-31g* mp2
 -------------

 ------------------------------------------------------
 Input file generated by CHIRIPA (05-May-2021 14:57:21)
 ------------------------------------------------------
 Symbolic Z-matrix:
 Charge =  0 Multiplicity = 1

                         Standard orientation:
 ---------------------------------------------------------------------
 Center     Atomic      Atomic             Coordinates (Angstroms)
 Number     Number       Type             X           Y           Z
 ---------------------------------------------------------------------
      1          6           0       -2.137400    2.662235    0.041517
      2          6           0       -1.359936    2.224717   -1.035817
      3          6           0       -1.272674    0.863359   -1.341822
      4          6           0       -1.979149   -0.037052   -0.545931
      5          6           0       -2.762148    0.367794    0.534024
      6          6           0       -2.834795    1.734014    0.821624
      7          1           0       -2.199511    3.721659    0.272080
      8          1           0       -0.817253    2.943329   -1.643383
      9          1           0       -0.678192    0.497236   -2.170051
     10          1           0       -3.291774   -0.372332    1.121499
     11          1           0       -3.439360    2.070923    1.658904
     12          7           0       -1.894505   -1.480834   -0.860142
     13          8           0       -2.526491   -2.254022   -0.143615
     14          8           0       -1.197778   -1.811944   -1.816999
     15          6           0        3.742458    0.824418   -1.007317
     16          6           0        3.355139   -0.506970   -1.191473
     17          6           0        2.386817   -1.085457   -0.365487
     18          6           0        1.823978   -0.300025    0.639302
     19          6           0        2.188833    1.029139    0.847856
     20          6           0        3.159097    1.586878    0.009965
     21          1           0        4.495429    1.265742   -1.653587
     22          1           0        3.806485   -1.101491   -1.980698
     23          1           0        2.068401   -2.113817   -0.485925
     24          1           0        1.720997    1.596668    1.643129
     25          1           0        3.457948    2.621098    0.155301
     26          7           0        0.797831   -0.901461    1.520037
     27          8           0        0.317091   -0.188287    2.398051
     28          8           0        0.493706   -2.074653    1.315667
 ---------------------------------------------------------------------

 SCF Done:  E(RHF) =  -868.337412379     A.U. after   16 cycles
 E2 =    -0.2605144772D+01 EUMP2 =    -0.87094255715162D+03

 The electronic state is 1-A.
 Alpha  occ. eigenvalues --  -20.60695 -20.60633 -20.60055 -20.59941 -15.85675
 Alpha  occ. eigenvalues --  -15.85062 -11.31054 -11.30570 -11.27721 -11.27562
 Alpha  occ. eigenvalues --  -11.27463 -11.27289 -11.27115 -11.27028 -11.26742
 Alpha  occ. eigenvalues --  -11.26623 -11.26328 -11.26171  -1.59750  -1.59050
 Alpha  occ. eigenvalues --   -1.39288  -1.38611  -1.19270  -1.18802  -1.08674
 Alpha  occ. eigenvalues --   -1.08177  -1.04663  -1.04215  -0.95492  -0.94976
 Alpha  occ. eigenvalues --   -0.86060  -0.85621  -0.82314  -0.81807  -0.77349
 Alpha  occ. eigenvalues --   -0.76812  -0.71935  -0.71490  -0.71304  -0.70372
 Alpha  occ. eigenvalues --   -0.69959  -0.69911  -0.64914  -0.64668  -0.64455
 Alpha  occ. eigenvalues --   -0.64238  -0.61988  -0.61565  -0.55194  -0.54760
 Alpha  occ. eigenvalues --   -0.53115  -0.52749  -0.52466  -0.52318  -0.48690
 Alpha  occ. eigenvalues --   -0.48660  -0.48076  -0.48017  -0.44666  -0.43957
 Alpha  occ. eigenvalues --   -0.37415  -0.36814  -0.36306  -0.35598
 Alpha virt. eigenvalues --    0.05021   0.05834   0.11331   0.11889   0.16585
 Alpha virt. eigenvalues --    0.17206   0.21497   0.21875   0.27426   0.27771
 Alpha virt. eigenvalues --    0.28437   0.28776   0.30950   0.31372   0.32781

 Mulliken charges:
               1
     1  C   -0.172594
     2  C   -0.219919
     3  C   -0.173490
     4  C    0.147039
     5  C   -0.155445
     6  C   -0.215125
     7  H    0.221892
     8  H    0.217713
     9  H    0.271875
    10  H    0.280458
    11  H    0.223596
    12  N    0.493200
    13  O   -0.448752
    14  O   -0.471645
    15  C   -0.172269
    16  C   -0.221161
    17  C   -0.166714
    18  C    0.154196
    19  C   -0.169093
    20  C   -0.222277
    21  H    0.224371
    22  H    0.225695
    23  H    0.286177
    24  H    0.272885
    25  H    0.219996
    26  N    0.482612
    27  O   -0.463594
    28  O   -0.449627
 Sum of Mulliken charges =  -0.00000

 Dipole moment (field-independent basis, Debye):
    X=              3.1564    Y=              6.7949    Z=             -1.7653  Tot=              7.6974
 Quadrupole moment (field-independent basis, Debye-Ang):
   XX=            -89.3700   YY=           -103.2809   ZZ=           -107.0767
   XY=             -7.0874   XZ=             -9.0639   YZ=              1.0331

 Normal termination of Gaussian 16 at Wed May  5 16:18:06 2021.
