 Gaussian 16, Revision A.03,
 Gaussian 16:  EM64L-G16RevA.03 25-Dec-2016

 -------------
 #p 6-31g* mp2
 -------------

 ------------------------------------------------------
 Input file generated by CHIRIPA (05-May-2021 14:57:24)
 ------------------------------------------------------
 Symbolic Z-matrix:
 Charge =  0 Multiplicity = 1

                         Standard orientation:
 ---------------------------------------------------------------------
 Center     Atomic      Atomic             Coordinates (Angstroms)
 Number     Number       Type             X           Y           Z
 ---------------------------------------------------------------------
      1          6           0        4.995943    1.143596   -0.798691
      2          6           0        4.966650    0.928199    0.583071
      3          6           0        3.884253    0.271892    1.176558
      4          6           0        2.843498   -0.157634    0.354594
      5          6           0        2.843571    0.042057   -1.025048
      6          6           0        3.936178    0.700619   -1.596933
      7          1           0        5.840741    1.654307   -1.251336
      8          1           0        5.788279    1.271127    1.205462
      9          1           0        3.835887    0.091979    2.243662
     10          1           0        2.009800   -0.311313   -1.619500
     11          1           0        3.956235    0.866520   -2.670302
     12          7           0        1.692208   -0.853631    0.971458
     13          8           0        0.787737   -1.222316    0.225375
     14          8           0        1.716098   -1.017288    2.189359
     15          6           0       -4.216697    2.002608    0.807737
     16          6           0       -4.265069    0.743475    1.414997
     17          6           0       -3.613068   -0.349445    0.836232
     18          6           0       -2.918832   -0.146530   -0.355468
     19          6           0       -2.852187    1.095615   -0.984694
     20          6           0       -3.511654    2.174357   -0.388063
     21          1           0       -4.726087    2.846107    1.264274
     22          1           0       -4.811856    0.607151    2.343698
     23          1           0       -3.634235   -1.335130    1.285002
     24          1           0       -2.299116    1.200520   -1.910182
     25          1           0       -3.472381    3.151072   -0.861908
     26          7           0       -2.224636   -1.296049   -0.977639
     27          8           0       -1.619775   -1.091117   -2.027773
     28          8           0       -2.298533   -2.380209   -0.403381
 ---------------------------------------------------------------------

 SCF Done:  E(RHF) =  -868.337614957     A.U. after   16 cycles
 E2 =    -0.2600796468D+01 EUMP2 =    -0.87093841142486D+03

 The electronic state is 1-A.
 Alpha  occ. eigenvalues --  -20.60295 -20.60270 -20.59590 -20.59499 -15.85339
 Alpha  occ. eigenvalues --  -15.84614 -11.30772 -11.30270 -11.27400 -11.27277
 Alpha  occ. eigenvalues --  -11.27156 -11.26936 -11.26835 -11.26717 -11.26431
 Alpha  occ. eigenvalues --  -11.26373 -11.26031 -11.25960  -1.59368  -1.58565
 Alpha  occ. eigenvalues --   -1.38913  -1.38138  -1.18966  -1.18475  -1.08358
 Alpha  occ. eigenvalues --   -1.07815  -1.04375  -1.03942  -0.95174  -0.94611
 Alpha  occ. eigenvalues --   -0.85770  -0.85326  -0.82004  -0.81466  -0.77028
 Alpha  occ. eigenvalues --   -0.76449  -0.71712  -0.70879  -0.70708  -0.70092
 Alpha  occ. eigenvalues --   -0.69621  -0.69616  -0.64609  -0.64380  -0.64144
 Alpha  occ. eigenvalues --   -0.63970  -0.61702  -0.61298  -0.54893  -0.54456
 Alpha  occ. eigenvalues --   -0.52716  -0.52461  -0.52234  -0.52055  -0.48343
 Alpha  occ. eigenvalues --   -0.48304  -0.47625  -0.47581  -0.44323  -0.43455
 Alpha  occ. eigenvalues --   -0.36976  -0.36464  -0.35988  -0.35557
 Alpha virt. eigenvalues --    0.05466   0.06166   0.11664   0.12098   0.16953
 Alpha virt. eigenvalues --    0.17551   0.21788   0.22121   0.27701   0.27984
 Alpha virt. eigenvalues --    0.28666   0.29090   0.31272   0.31640   0.32966

 Mulliken charges:
               1
     1  C   -0.171208
     2  C   -0.219182
     3  C   -0.171447
     4  C    0.156485
     5  C   -0.174183
     6  C   -0.219674
     7  H    0.223904
     8  H    0.221527
     9  H    0.274044
    10  H    0.286930
    11  H    0.223401
    12  N    0.490541
    13  O   -0.457138
    14  O   -0.463994
    15  C   -0.172186
    16  C   -0.218598
    17  C   -0.167463
    18  C    0.164878
    19  C   -0.172088
    20  C   -0.218968
    21  H    0.221859
    22  H    0.221383
    23  H    0.277507
    24  H    0.270062
    25  H    0.218593
    26  N    0.498098
    27  O   -0.470091
    28  O   -0.452993
 Sum of Mulliken charges =  -0.00000

 Dipole moment (field-independent basis, Debye):
    X=              1.6404    Y=              6.1892    Z=              0.0280  Tot=              6.4029
 Quadrupole moment (field-independent basis, Debye-Ang):
   XX=            -68.5762   YY=           -106.3543   ZZ=           -101.9405
   XY=             -3.3286   XZ=            -10.0608   YZ=             -2.6285

 Normal termination of Gaussian 16 at Wed May  5 17:54:08 2021.
