 Gaussian 16, Revision A.03,
 Gaussian 16:  EM64L-G16RevA.03 25-Dec-2016

 -------------
 #p 6-31g* mp2
 -------------

 ------------------------------------------------------
 Input file generated by CHIRIPA (05-May-2021 14:55:25)
 ------------------------------------------------------
 Symbolic Z-matrix:
 Charge =  0 Multiplicity = 1

                         Standard orientation:
 ---------------------------------------------------------------------
 Center     Atomic      Atomic             Coordinates (Angstroms)
 Number     Number       Type             X           Y           Z
 ---------------------------------------------------------------------
      1          6           0       -3.690785   -2.149981   -0.037017
      2          6           0       -2.718563   -1.708389    0.866478
      3          6           0       -2.370018   -0.355955    0.929616
      4          6           0       -3.016649    0.531477    0.070766
      5          6           0       -3.989263    0.122273   -0.840204
      6          6           0       -4.321919   -1.234854   -0.885977
      7          1           0       -3.955372   -3.202406   -0.079320
      8          1           0       -2.226768   -2.416838    1.526995
      9          1           0       -1.620855    0.013057    1.619546
     10          1           0       -4.462145    0.852203   -1.485960
     11          1           0       -5.077326   -1.574954   -1.588641
     12          7           0       -2.656071    1.965722    0.128416
     13          8           0       -3.240412    2.727530   -0.638937
     14          8           0       -1.795935    2.300918    0.939864
     15          6           0        3.279639   -0.504009    0.288818
     16          6           0        2.284873   -1.338535   -0.518641
     17          6           0        0.973883   -1.582680    0.229352
     18          1           0        3.487832   -1.012467    1.240170
     19          1           0        2.817110    0.459488    0.544036
     20          1           0        2.749640   -2.299620   -0.773443
     21          1           0        2.079171   -0.828126   -1.468264
     22          1           0        0.485196   -0.633075    0.470259
     23          1           0        1.159475   -2.112929    1.169029
     24          1           0        0.277390   -2.181187   -0.366086
     25          6           0        4.595118   -0.251436   -0.445655
     26          6           0        5.589885    0.583091    0.361804
     27          6           0        6.900874    0.827234   -0.386189
     28          1           0        5.057647   -1.214932   -0.700873
     29          1           0        4.386924    0.257022   -1.397007
     30          1           0        5.795587    0.072681    1.311427
     31          1           0        5.125118    1.544175    0.616606
     32          1           0        6.715282    1.357484   -1.325866
     33          1           0        7.389561   -0.122371   -0.627096
     34          1           0        7.597367    1.425742    0.209248
 ---------------------------------------------------------------------

 SCF Done:  E(RHF) =  -669.534787060     A.U. after   15 cycles
 E2 =    -0.2092242790D+01 EUMP2 =    -0.67162702984979D+03

 The electronic state is 1-A.
 Alpha  occ. eigenvalues --  -20.60784 -20.60777 -15.85833 -11.31157 -11.27732
 Alpha  occ. eigenvalues --  -11.27711 -11.27474 -11.26740 -11.26709 -11.21717
 Alpha  occ. eigenvalues --  -11.21490 -11.21374 -11.21368 -11.21298 -11.20962
 Alpha  occ. eigenvalues --   -1.59857  -1.39412  -1.19340  -1.08740  -1.08422
 Alpha  occ. eigenvalues --   -1.04742  -1.03565  -0.96044  -0.95576  -0.87073
 Alpha  occ. eigenvalues --   -0.86138  -0.82411  -0.79651  -0.78222  -0.77453
 Alpha  occ. eigenvalues --   -0.72052  -0.71180  -0.70461  -0.65059  -0.64988
 Alpha  occ. eigenvalues --   -0.64738  -0.62110  -0.60955  -0.59408  -0.57635
 Alpha  occ. eigenvalues --   -0.55386  -0.55215  -0.53254  -0.52870  -0.52559
 Alpha  occ. eigenvalues --   -0.52416  -0.49959  -0.48810  -0.48806  -0.47955
 Alpha  occ. eigenvalues --   -0.46652  -0.45773  -0.45668  -0.44820  -0.43814
 Alpha  occ. eigenvalues --   -0.37322  -0.36252
 Alpha virt. eigenvalues --    0.05058   0.11223   0.16525   0.21101   0.22912
 Alpha virt. eigenvalues --    0.24233   0.26229   0.26579   0.27581   0.28073
 Alpha virt. eigenvalues --    0.29088   0.29878   0.31404   0.31605   0.32116

 Mulliken charges:
               1
     1  C   -0.172295
     2  C   -0.215913
     3  C   -0.167899
     4  C    0.157114
     5  C   -0.171291
     6  C   -0.218556
     7  H    0.225464
     8  H    0.224837
     9  H    0.276021
    10  H    0.275344
    11  H    0.223195
    12  N    0.488478
    13  O   -0.460246
    14  O   -0.461790
    15  C   -0.300141
    16  C   -0.299329
    17  C   -0.480994
    18  H    0.147876
    19  H    0.155409
    20  H    0.150653
    21  H    0.154748
    22  H    0.158997
    23  H    0.149427
    24  H    0.159625
    25  C   -0.298441
    26  C   -0.300123
    27  C   -0.475798
    28  H    0.148187
    29  H    0.151012
    30  H    0.151097
    31  H    0.154681
    32  H    0.155871
    33  H    0.154202
    34  H    0.160577
 Sum of Mulliken charges =  -0.00000

 Dipole moment (field-independent basis, Debye):
    X=             -1.2563    Y=             -5.0035    Z=             -0.2224  Tot=              5.1636
 Quadrupole moment (field-independent basis, Debye-Ang):
   XX=            -86.1934   YY=           -100.0809   ZZ=            -92.6285
   XY=             13.7028   XZ=              3.8305   YZ=             -1.5189

 Normal termination of Gaussian 16 at Thu May  6 20:57:48 2021.
