 Gaussian 16, Revision A.03,
 Gaussian 16:  EM64L-G16RevA.03 25-Dec-2016

 -------------
 #p 6-31g* mp2
 -------------

 ------------------------------------------------------
 Input file generated by CHIRIPA (05-May-2021 14:57:21)
 ------------------------------------------------------
 Symbolic Z-matrix:
 Charge =  0 Multiplicity = 1

                         Standard orientation:
 ---------------------------------------------------------------------
 Center     Atomic      Atomic             Coordinates (Angstroms)
 Number     Number       Type             X           Y           Z
 ---------------------------------------------------------------------
      1          6           0        3.388125    2.228741   -0.995046
      2          6           0        4.570420    1.667406   -0.501484
      3          6           0        4.572843    0.377650    0.038026
      4          6           0        3.369642   -0.325682    0.068379
      5          6           0        2.175378    0.206194   -0.415494
      6          6           0        2.196479    1.497632   -0.950554
      7          1           0        3.395380    3.231308   -1.412422
      8          1           0        5.497342    2.232874   -0.534744
      9          1           0        5.473741   -0.081091    0.427074
     10          1           0        1.266905   -0.381945   -0.368719
     11          1           0        1.276784    1.931039   -1.333133
     12          7           0        3.359755   -1.691980    0.637178
     13          8           0        2.286623   -2.290971    0.652420
     14          8           0        4.425326   -2.138021    1.056991
     15          6           0       -2.750428    2.356234    0.969898
     16          6           0       -4.064479    1.889381    1.078695
     17          6           0       -4.419794    0.641087    0.559019
     18          6           0       -3.431292   -0.117577   -0.065947
     19          6           0       -2.113554    0.319986   -0.190025
     20          6           0       -1.780869    1.571431    0.337000
     21          1           0       -2.483200    3.327163    1.376448
     22          1           0       -4.819534    2.496718    1.569693
     23          1           0       -5.429575    0.255333    0.629412
     24          1           0       -1.382812   -0.308102   -0.684937
     25          1           0       -0.759571    1.931445    0.251057
     26          7           0       -3.795469   -1.440757   -0.619995
     27          8           0       -2.906080   -2.090006   -1.165980
     28          8           0       -4.963405   -1.803562   -0.497782
 ---------------------------------------------------------------------

 SCF Done:  E(RHF) =  -868.335865660     A.U. after   16 cycles
 E2 =    -0.2601069938D+01 EUMP2 =    -0.87093693559838D+03

 The electronic state is 1-A.
 Alpha  occ. eigenvalues --  -20.61084 -20.61066 -20.60898 -20.60881 -15.86141
 Alpha  occ. eigenvalues --  -15.85953 -11.31742 -11.31513 -11.28449 -11.28311
 Alpha  occ. eigenvalues --  -11.28201 -11.28131 -11.28069 -11.27883 -11.27502
 Alpha  occ. eigenvalues --  -11.27341 -11.27239 -11.27108  -1.60151  -1.59963
 Alpha  occ. eigenvalues --   -1.39697  -1.39512  -1.19950  -1.19706  -1.09290
 Alpha  occ. eigenvalues --   -1.09058  -1.05424  -1.05151  -0.96086  -0.95865
 Alpha  occ. eigenvalues --   -0.86794  -0.86532  -0.82960  -0.82690  -0.77997
 Alpha  occ. eigenvalues --   -0.77677  -0.72352  -0.72168  -0.71480  -0.71288
 Alpha  occ. eigenvalues --   -0.71075  -0.70795  -0.65618  -0.65550  -0.65366
 Alpha  occ. eigenvalues --   -0.65065  -0.62999  -0.62276  -0.55880  -0.55618
 Alpha  occ. eigenvalues --   -0.53743  -0.53632  -0.53429  -0.53105  -0.49132
 Alpha  occ. eigenvalues --   -0.49096  -0.48942  -0.48913  -0.45051  -0.44875
 Alpha  occ. eigenvalues --   -0.37915  -0.37672  -0.37020  -0.36750
 Alpha virt. eigenvalues --    0.04593   0.04836   0.10606   0.10883   0.15867
 Alpha virt. eigenvalues --    0.16252   0.18111   0.22196   0.24421   0.26032
 Alpha virt. eigenvalues --    0.27935   0.28892   0.30606   0.31373   0.32527

 Mulliken charges:
               1
     1  C   -0.170439
     2  C   -0.218547
     3  C   -0.168596
     4  C    0.159813
     5  C   -0.175024
     6  C   -0.225468
     7  H    0.226876
     8  H    0.225850
     9  H    0.278340
    10  H    0.277879
    11  H    0.218861
    12  N    0.487241
    13  O   -0.456162
    14  O   -0.458754
    15  C   -0.170750
    16  C   -0.218058
    17  C   -0.169419
    18  C    0.160815
    19  C   -0.175319
    20  C   -0.222884
    21  H    0.226015
    22  H    0.224980
    23  H    0.277599
    24  H    0.274879
    25  H    0.218779
    26  N    0.487922
    27  O   -0.457142
    28  O   -0.459288
 Sum of Mulliken charges =  -0.00000

 Dipole moment (field-independent basis, Debye):
    X=              1.3767    Y=              9.3332    Z=              0.0185  Tot=              9.4342
 Quadrupole moment (field-independent basis, Debye-Ang):
   XX=           -102.2419   YY=           -110.0878   ZZ=           -106.2536
   XY=             -0.1912   XZ=            -14.4190   YZ=              0.8264

 Normal termination of Gaussian 16 at Thu May  6 17:49:17 2021.
