 Gaussian 16, Revision A.03,
 Gaussian 16:  EM64L-G16RevA.03 25-Dec-2016

 -------------
 #p 6-31g* mp2
 -------------

 ------------------------------------------------------
 Input file generated by CHIRIPA (05-May-2021 14:55:21)
 ------------------------------------------------------
 Symbolic Z-matrix:
 Charge =  0 Multiplicity = 1

                         Standard orientation:
 ---------------------------------------------------------------------
 Center     Atomic      Atomic             Coordinates (Angstroms)
 Number     Number       Type             X           Y           Z
 ---------------------------------------------------------------------
      1          6           0       -4.390616   -2.143478    0.514175
      2          6           0       -3.008657   -2.236711    0.319191
      3          6           0       -2.263649   -1.107599   -0.033820
      4          6           0       -2.935940    0.104305   -0.184165
      5          6           0       -4.311648    0.229280    0.003178
      6          6           0       -5.036562   -0.912950    0.355826
      7          1           0       -4.961551   -3.025694    0.788262
      8          1           0       -2.504350   -3.191051    0.441481
      9          1           0       -1.192749   -1.151466   -0.190882
     10          1           0       -4.786378    1.194357   -0.125962
     11          1           0       -6.109701   -0.837576    0.506613
     12          7           0       -2.157870    1.306589   -0.557690
     13          8           0       -2.773789    2.362675   -0.684035
     14          8           0       -0.946832    1.170088   -0.717040
     15          6           0        3.946444   -0.643016    0.178418
     16          6           0        5.220064   -1.226622   -0.434184
     17          6           0        5.253952   -2.754399   -0.383772
     18          1           0        3.861407   -0.978882    1.220967
     19          1           0        3.073719   -1.047775   -0.352539
     20          1           0        6.090181   -0.819815    0.096871
     21          1           0        5.302178   -0.889172   -1.475338
     22          1           0        4.404383   -3.176810   -0.930036
     23          1           0        5.196864   -3.107058    0.651106
     24          1           0        6.172994   -3.150419   -0.826933
     25          6           0        3.897844    0.883260    0.135446
     26          6           0        2.624225    1.466867    0.748049
     27          6           0        2.590336    2.994644    0.697637
     28          1           0        4.770569    1.288019    0.666404
     29          1           0        3.982881    1.219126   -0.907102
     30          1           0        2.542111    1.129417    1.789202
     31          1           0        1.754108    1.060059    0.216994
     32          1           0        2.647425    3.347303   -0.337241
     33          1           0        3.439905    3.417054    1.243901
     34          1           0        1.671295    3.390663    1.140797
 ---------------------------------------------------------------------

 SCF Done:  E(RHF) =  -669.536100434     A.U. after   15 cycles
 E2 =    -0.2090958580D+01 EUMP2 =    -0.67162705901342D+03

 The electronic state is 1-A.
 Alpha  occ. eigenvalues --  -20.60932 -20.60923 -15.85972 -11.31285 -11.27850
 Alpha  occ. eigenvalues --  -11.27846 -11.27586 -11.26856 -11.26846 -11.21238
 Alpha  occ. eigenvalues --  -11.20901 -11.20863 -11.20604 -11.20425 -11.19896
 Alpha  occ. eigenvalues --   -1.59993  -1.39550  -1.19454  -1.08859  -1.07769
 Alpha  occ. eigenvalues --   -1.04850  -1.02801  -0.95703  -0.95285  -0.86309
 Alpha  occ. eigenvalues --   -0.86251  -0.82540  -0.78921  -0.77633  -0.77489
 Alpha  occ. eigenvalues --   -0.72199  -0.71308  -0.70564  -0.65114  -0.64853
 Alpha  occ. eigenvalues --   -0.64395  -0.62198  -0.60183  -0.58697  -0.56867
 Alpha  occ. eigenvalues --   -0.55355  -0.54584  -0.53182  -0.52942  -0.51969
 Alpha  occ. eigenvalues --   -0.51715  -0.49253  -0.48952  -0.48944  -0.47224
 Alpha  occ. eigenvalues --   -0.45966  -0.45148  -0.45055  -0.44762  -0.43073
 Alpha  occ. eigenvalues --   -0.37433  -0.36451
 Alpha virt. eigenvalues --    0.04927   0.11203   0.16411   0.21187   0.23405
 Alpha virt. eigenvalues --    0.25015   0.26437   0.27422   0.27726   0.28606
 Alpha virt. eigenvalues --    0.28895   0.30851   0.31851   0.32175   0.32930

 Mulliken charges:
               1
     1  C   -0.170620
     2  C   -0.218574
     3  C   -0.170375
     4  C    0.157777
     5  C   -0.170833
     6  C   -0.218562
     7  H    0.225996
     8  H    0.224007
     9  H    0.275537
    10  H    0.275815
    11  H    0.223784
    12  N    0.493955
    13  O   -0.459021
    14  O   -0.465980
    15  C   -0.296974
    16  C   -0.299036
    17  C   -0.475102
    18  H    0.146570
    19  H    0.146772
    20  H    0.151615
    21  H    0.152505
    22  H    0.152756
    23  H    0.153541
    24  H    0.159378
    25  C   -0.297610
    26  C   -0.309183
    27  C   -0.472409
    28  H    0.146169
    29  H    0.150482
    30  H    0.143850
    31  H    0.174590
    32  H    0.157329
    33  H    0.147449
    34  H    0.164406
 Sum of Mulliken charges =  -0.00000

 Dipole moment (field-independent basis, Debye):
    X=             -3.0115    Y=             -4.1689    Z=              1.2391  Tot=              5.2900
 Quadrupole moment (field-independent basis, Debye-Ang):
   XX=            -75.9238   YY=            -95.9142   ZZ=            -95.4847
   XY=             10.0227   XZ=             -3.4054   YZ=              0.7308

 Normal termination of Gaussian 16 at Thu May  6 09:19:59 2021.
