 Gaussian 16, Revision A.03,
 Gaussian 16:  EM64L-G16RevA.03 25-Dec-2016

 -------------
 #p 6-31g* mp2
 -------------

 ------------------------------------------------------
 Input file generated by CHIRIPA (05-May-2021 14:51:12)
 ------------------------------------------------------
 Symbolic Z-matrix:
 Charge =  0 Multiplicity = 1

                         Standard orientation:
 ---------------------------------------------------------------------
 Center     Atomic      Atomic             Coordinates (Angstroms)
 Number     Number       Type             X           Y           Z
 ---------------------------------------------------------------------
      1          6           0       -2.784302   -0.191131   -0.710921
      2          6           0       -3.843330   -1.210221   -0.289141
      3          6           0       -3.772381   -2.505730   -1.098102
      4          1           0       -2.906796    0.034721   -1.779065
      5          1           0       -1.787854   -0.640461   -0.598718
      6          1           0       -4.837418   -0.758626   -0.400795
      7          1           0       -3.718421   -1.433529    0.778167
      8          1           0       -2.793736   -2.981640   -0.978245
      9          1           0       -3.919091   -2.302903   -2.163906
     10          1           0       -4.538219   -3.220043   -0.780128
     11          6           0       -2.842479    1.109235    0.088698
     12          6           0       -1.783450    2.128326   -0.333083
     13          6           0       -1.854400    3.423834    0.475878
     14          1           0       -3.838926    1.558566   -0.023506
     15          1           0       -2.719984    0.883384    1.156841
     16          1           0       -1.908359    2.351633   -1.400391
     17          1           0       -0.789362    1.676730   -0.221429
     18          1           0       -1.707689    3.221007    1.541682
     19          1           0       -2.833044    3.899744    0.356021
     20          1           0       -1.088561    4.138147    0.157904
     21          6           0        2.412186   -0.939131    0.749279
     22          6           0        0.984275   -0.463790    1.019666
     23          6           0        0.194260   -1.434799    1.897624
     24          1           0        2.378340   -1.926211    0.268164
     25          1           0        2.933204   -1.075913    1.706998
     26          1           0        0.466538   -0.326617    0.061675
     27          1           0        1.021519    0.522359    1.500020
     28          1           0        0.685557   -1.564284    2.867398
     29          1           0        0.127422   -2.418084    1.420881
     30          1           0       -0.823631   -1.075460    2.078277
     31          6           0        3.214595    0.021027   -0.127055
     32          6           0        4.642505   -0.454315   -0.397442
     33          6           0        5.432521    0.516694   -1.275400
     34          1           0        2.693575    0.157810   -1.084774
     35          1           0        3.248440    1.008108    0.354059
     36          1           0        4.605261   -1.440463   -0.877797
     37          1           0        5.160242   -0.591488    0.560548
     38          1           0        5.499358    1.499979   -0.798658
     39          1           0        4.941224    0.646180   -2.245174
     40          1           0        6.450412    0.157356   -1.456053
 ---------------------------------------------------------------------

 SCF Done:  E(RHF) =  -470.732216003     A.U. after   11 cycles
 E2 =    -0.1584902518D+01 EUMP2 =    -0.47231711852172D+03

 The electronic state is 1-A.
 Alpha  occ. eigenvalues --  -11.21688 -11.21640 -11.21576 -11.21469 -11.21467
 Alpha  occ. eigenvalues --  -11.21407 -11.21355 -11.21294 -11.21195 -11.21098
 Alpha  occ. eigenvalues --  -11.21058 -11.21017  -1.08529  -1.08366  -1.03616
 Alpha  occ. eigenvalues --   -1.03476  -0.96068  -0.95929  -0.87076  -0.86951
 Alpha  occ. eigenvalues --   -0.79748  -0.79516  -0.78427  -0.78093  -0.65296
 Alpha  occ. eigenvalues --   -0.64938  -0.61032  -0.60869  -0.59428  -0.59281
 Alpha  occ. eigenvalues --   -0.57669  -0.57544  -0.55388  -0.55175  -0.52748
 Alpha  occ. eigenvalues --   -0.52637  -0.52490  -0.52348  -0.49999  -0.49890
 Alpha  occ. eigenvalues --   -0.48188  -0.47809  -0.46844  -0.46597  -0.46124
 Alpha  occ. eigenvalues --   -0.45785  -0.45726  -0.45055  -0.43836  -0.43733
 Alpha virt. eigenvalues --    0.19911   0.23042   0.23657   0.24655   0.25680
 Alpha virt. eigenvalues --    0.26062   0.26937   0.27636   0.27964   0.29807
 Alpha virt. eigenvalues --    0.30847   0.31372   0.31726   0.31960   0.32133

 Mulliken charges:
               1
     1  C   -0.306095
     2  C   -0.299529
     3  C   -0.475679
     4  H    0.149318
     5  H    0.157443
     6  H    0.151870
     7  H    0.152130
     8  H    0.154915
     9  H    0.154981
    10  H    0.160262
    11  C   -0.298903
    12  C   -0.307463
    13  C   -0.475371
    14  H    0.149528
    15  H    0.149607
    16  H    0.150842
    17  H    0.161558
    18  H    0.154513
    19  H    0.154841
    20  H    0.159877
    21  C   -0.296815
    22  C   -0.309024
    23  C   -0.479028
    24  H    0.149685
    25  H    0.149711
    26  H    0.159101
    27  H    0.153013
    28  H    0.156232
    29  H    0.155221
    30  H    0.162848
    31  C   -0.298866
    32  C   -0.299645
    33  C   -0.475781
    34  H    0.149795
    35  H    0.149783
    36  H    0.152065
    37  H    0.152044
    38  H    0.155268
    39  H    0.155351
    40  H    0.160398
 Sum of Mulliken charges =  -0.00000

 Dipole moment (field-independent basis, Debye):
    X=              0.0619    Y=             -0.0247    Z=              0.0070  Tot=              0.0670
 Quadrupole moment (field-independent basis, Debye-Ang):
   XX=            -84.8532   YY=            -85.8433   ZZ=            -84.2452
   XY=             -0.5251   XZ=              1.1019   YZ=              0.0201

 Normal termination of Gaussian 16 at Thu May  6 07:03:59 2021.
