 Gaussian 16, Revision A.03,
 Gaussian 16:  EM64L-G16RevA.03 25-Dec-2016

 -------------
 #p 6-31g* mp2
 -------------

 ------------------------------------------------------
 Input file generated by CHIRIPA (05-May-2021 14:53:14)
 ------------------------------------------------------
 Symbolic Z-matrix:
 Charge =  0 Multiplicity = 1

                         Standard orientation:
 ---------------------------------------------------------------------
 Center     Atomic      Atomic             Coordinates (Angstroms)
 Number     Number       Type             X           Y           Z
 ---------------------------------------------------------------------
      1          6           0        5.152681   -0.311182    0.257078
      2          6           0        6.341474   -0.402385   -0.700231
      3          6           0        7.575365   -1.031239   -0.052274
      4          1           0        5.444476    0.275201    1.139096
      5          1           0        4.904548   -1.318407    0.619465
      6          1           0        6.586411    0.604544   -1.061778
      7          1           0        6.046756   -0.988457   -1.580161
      8          1           0        7.354111   -2.046381    0.292884
      9          1           0        7.896832   -0.444329    0.814212
     10          1           0        8.413233   -1.086649   -0.754247
     11          6           0        3.911611    0.315311   -0.376152
     12          6           0        2.722819    0.406514    0.581157
     13          6           0        1.488928    1.035368   -0.066800
     14          1           0        4.159744    1.322536   -0.738539
     15          1           0        3.619817   -0.271072   -1.258170
     16          1           0        3.017536    0.992586    1.461087
     17          1           0        2.477881   -0.600415    0.942704
     18          1           0        1.167461    0.448459   -0.933286
     19          1           0        1.710182    2.050511   -0.411958
     20          1           0        0.651060    1.090779    0.635174
     21          6           0       -2.376044    2.222050    0.300930
     22          6           0       -3.314439    2.036057   -0.719532
     23          6           0       -3.965877    0.808228   -0.869912
     24          6           0       -3.653338   -0.216588    0.021917
     25          6           0       -2.723155   -0.062186    1.048665
     26          6           0       -2.083912    1.174183    1.180221
     27          1           0       -1.874727    3.179174    0.410437
     28          1           0       -3.543299    2.848069   -1.403859
     29          1           0       -4.696555    0.636966   -1.651062
     30          1           0       -2.515950   -0.890352    1.715467
     31          1           0       -1.355581    1.315769    1.973652
     32          7           0       -4.336531   -1.520956   -0.127320
     33          8           0       -4.043510   -2.408024    0.671359
     34          8           0       -5.152102   -1.631554   -1.040144
 ---------------------------------------------------------------------

 SCF Done:  E(RHF) =  -669.534577243     A.U. after   15 cycles
 E2 =    -0.2091914480D+01 EUMP2 =    -0.67162649172323D+03

 The electronic state is 1-A.
 Alpha  occ. eigenvalues --  -20.60768 -20.60763 -15.85822 -11.31192 -11.27761
 Alpha  occ. eigenvalues --  -11.27757 -11.27500 -11.26779 -11.26768 -11.22066
 Alpha  occ. eigenvalues --  -11.21828 -11.21742 -11.21644 -11.21585 -11.21255
 Alpha  occ. eigenvalues --   -1.59844  -1.39397  -1.19370  -1.08783  -1.08747
 Alpha  occ. eigenvalues --   -1.04784  -1.03882  -0.96339  -0.95592  -0.87367
 Alpha  occ. eigenvalues --   -0.86174  -0.82430  -0.79952  -0.78567  -0.77480
 Alpha  occ. eigenvalues --   -0.72041  -0.71167  -0.70467  -0.65392  -0.65024
 Alpha  occ. eigenvalues --   -0.64828  -0.62163  -0.61275  -0.59727  -0.57955
 Alpha  occ. eigenvalues --   -0.55613  -0.55269  -0.53485  -0.52940  -0.52806
 Alpha  occ. eigenvalues --   -0.52534  -0.50266  -0.48802  -0.48795  -0.48262
 Alpha  occ. eigenvalues --   -0.46977  -0.46111  -0.46026  -0.44802  -0.44149
 Alpha  occ. eigenvalues --   -0.37302  -0.36332
 Alpha virt. eigenvalues --    0.05058   0.11172   0.16506   0.20832   0.22649
 Alpha virt. eigenvalues --    0.24067   0.26323   0.26500   0.27156   0.28018
 Alpha virt. eigenvalues --    0.28648   0.30274   0.31119   0.31714   0.32011

 Mulliken charges:
               1
     1  C   -0.298570
     2  C   -0.299914
     3  C   -0.475906
     4  H    0.149176
     5  H    0.150711
     6  H    0.151655
     7  H    0.152897
     8  H    0.155977
     9  H    0.155010
    10  H    0.160984
    11  C   -0.298693
    12  C   -0.299936
    13  C   -0.477849
    14  H    0.148998
    15  H    0.151523
    16  H    0.149681
    17  H    0.153406
    18  H    0.160066
    19  H    0.151684
    20  H    0.155414
    21  C   -0.167850
    22  C   -0.218715
    23  C   -0.170738
    24  C    0.158380
    25  C   -0.171914
    26  C   -0.217105
    27  H    0.226350
    28  H    0.223558
    29  H    0.275627
    30  H    0.275648
    31  H    0.223255
    32  N    0.488082
    33  O   -0.460459
    34  O   -0.460432
 Sum of Mulliken charges =  -0.00000

 Dipole moment (field-independent basis, Debye):
    X=              2.4291    Y=              4.5770    Z=              0.4806  Tot=              5.2039
 Quadrupole moment (field-independent basis, Debye-Ang):
   XX=           -112.2997   YY=            -96.0502   ZZ=            -92.0303
   XY=            -17.9849   XZ=              0.1648   YZ=             -1.2380

 Normal termination of Gaussian 16 at Thu May  6 18:46:56 2021.
