 Gaussian 16, Revision A.03,
 Gaussian 16:  EM64L-G16RevA.03 25-Dec-2016

 -------------
 #p 6-31g* mp2
 -------------

 ------------------------------------------------------
 Input file generated by CHIRIPA (05-May-2021 14:51:13)
 ------------------------------------------------------
 Symbolic Z-matrix:
 Charge =  0 Multiplicity = 1

                         Standard orientation:
 ---------------------------------------------------------------------
 Center     Atomic      Atomic             Coordinates (Angstroms)
 Number     Number       Type             X           Y           Z
 ---------------------------------------------------------------------
      1          6           0       -2.228744    0.391507   -0.702538
      2          6           0       -3.473818   -0.424588   -0.353592
      3          6           0       -3.746963   -1.544807   -1.357731
      4          1           0       -2.348101    0.819022   -1.707491
      5          1           0       -1.360132   -0.279830   -0.749596
      6          1           0       -4.339584    0.248306   -0.305846
      7          1           0       -3.351565   -0.850052    0.650724
      8          1           0       -2.901456   -2.239029   -1.399842
      9          1           0       -3.895088   -1.134429   -2.361847
     10          1           0       -4.641422   -2.115459   -1.089104
     11          6           0       -1.942526    1.515165    0.292047
     12          6           0       -0.697451    2.331259   -0.056900
     13          6           0       -0.424306    3.451478    0.947239
     14          1           0       -2.811138    2.186502    0.339104
     15          1           0       -1.823169    1.087649    1.296999
     16          1           0       -0.819704    2.756724   -1.061216
     17          1           0        0.168314    1.658365   -0.104645
     18          1           0       -0.276182    3.041101    1.951356
     19          1           0       -1.269814    4.145700    0.989350
     20          1           0        0.470152    4.022131    0.678612
     21          6           0        2.654361   -0.444565    0.238950
     22          6           0        3.526812   -0.426305   -1.016629
     23          6           0        4.660238    0.596597   -0.934086
     24          1           0        2.234582    0.557724    0.400649
     25          1           0        3.284701   -0.663994    1.111829
     26          1           0        2.894784   -0.208343   -1.887059
     27          1           0        3.944409   -1.428802   -1.175465
     28          1           0        5.314503    0.378851   -0.083718
     29          1           0        4.258914    1.606244   -0.799355
     30          1           0        5.271364    0.592797   -1.842035
     31          6           0        1.516909   -1.462106    0.171542
     32          6           0        0.644457   -1.480367    1.427121
     33          6           0       -0.488968   -2.503268    1.344577
     34          1           0        0.886569   -1.242677   -0.701337
     35          1           0        1.936688   -2.464396    0.009842
     36          1           0        0.226860   -0.477869    1.585957
     37          1           0        1.276486   -1.698328    2.297550
     38          1           0       -0.087644   -3.512916    1.209847
     39          1           0       -1.143234   -2.285523    0.494210
     40          1           0       -1.100094   -2.499469    2.252526
 ---------------------------------------------------------------------

 SCF Done:  E(RHF) =  -470.731161914     A.U. after   11 cycles
 E2 =    -0.1587425155D+01 EUMP2 =    -0.47231858706918D+03

 The electronic state is 1-A.
 Alpha  occ. eigenvalues --  -11.21664 -11.21644 -11.21630 -11.21595 -11.21463
 Alpha  occ. eigenvalues --  -11.21433 -11.21398 -11.21364 -11.21127 -11.21107
 Alpha  occ. eigenvalues --  -11.21095 -11.21088  -1.08609  -1.08376  -1.03627
 Alpha  occ. eigenvalues --   -1.03539  -0.96045  -0.96016  -0.87073  -0.87022
 Alpha  occ. eigenvalues --   -0.79680  -0.79620  -0.78364  -0.78254  -0.65943
 Alpha  occ. eigenvalues --   -0.64481  -0.61235  -0.60726  -0.59441  -0.59353
 Alpha  occ. eigenvalues --   -0.57689  -0.57597  -0.55360  -0.55261  -0.52729
 Alpha  occ. eigenvalues --   -0.52709  -0.52484  -0.52416  -0.50051  -0.49927
 Alpha  occ. eigenvalues --   -0.48082  -0.47903  -0.46856  -0.46679  -0.46189
 Alpha  occ. eigenvalues --   -0.45808  -0.45559  -0.45240  -0.43834  -0.43816
 Alpha virt. eigenvalues --    0.19224   0.21904   0.23365   0.24896   0.25372
 Alpha virt. eigenvalues --    0.26163   0.27458   0.28022   0.28729   0.29801
 Alpha virt. eigenvalues --    0.31145   0.31441   0.31722   0.32018   0.32277

 Mulliken charges:
               1
     1  C   -0.307074
     2  C   -0.302855
     3  C   -0.478042
     4  H    0.149905
     5  H    0.157099
     6  H    0.152926
     7  H    0.155004
     8  H    0.156154
     9  H    0.155390
    10  H    0.160920
    11  C   -0.299689
    12  C   -0.309362
    13  C   -0.475612
    14  H    0.150510
    15  H    0.150940
    16  H    0.152420
    17  H    0.159480
    18  H    0.155209
    19  H    0.155815
    20  H    0.160122
    21  C   -0.303798
    22  C   -0.299764
    23  C   -0.475783
    24  H    0.154271
    25  H    0.150210
    26  H    0.152435
    27  H    0.152121
    28  H    0.155216
    29  H    0.155344
    30  H    0.160417
    31  C   -0.303387
    32  C   -0.305985
    33  C   -0.483238
    34  H    0.152712
    35  H    0.150737
    36  H    0.156919
    37  H    0.153212
    38  H    0.155612
    39  H    0.163527
    40  H    0.159962
 Sum of Mulliken charges =  -0.00000

 Dipole moment (field-independent basis, Debye):
    X=              0.0021    Y=             -0.0052    Z=              0.0010  Tot=              0.0057
 Quadrupole moment (field-independent basis, Debye-Ang):
   XX=            -84.8694   YY=            -85.0778   ZZ=            -84.7325
   XY=             -1.6590   XZ=              0.4070   YZ=             -1.1041

 Normal termination of Gaussian 16 at Thu May  6 05:33:32 2021.
