 Gaussian 16, Revision A.03,
 Gaussian 16:  EM64L-G16RevA.03 25-Dec-2016

 -------------
 #p 6-31g* mp2
 -------------

 ------------------------------------------------------
 Input file generated by CHIRIPA (05-May-2021 14:51:12)
 ------------------------------------------------------
 Symbolic Z-matrix:
 Charge =  0 Multiplicity = 1

                         Standard orientation:
 ---------------------------------------------------------------------
 Center     Atomic      Atomic             Coordinates (Angstroms)
 Number     Number       Type             X           Y           Z
 ---------------------------------------------------------------------
      1          6           0       -1.948443    1.155357   -0.242264
      2          6           0       -2.173283    1.886778    1.081539
      3          6           0       -1.468880    3.242793    1.134764
      4          1           0       -0.869920    1.016273   -0.398432
      5          1           0       -2.304821    1.787353   -1.067474
      6          1           0       -1.817854    1.253010    1.904111
      7          1           0       -3.251405    2.023967    1.234666
      8          1           0       -1.830072    3.896225    0.334035
      9          1           0       -0.388376    3.120887    1.007284
     10          1           0       -1.642919    3.748392    2.089720
     11          6           0       -2.646378   -0.201822   -0.310682
     12          6           0       -2.421538   -0.933242   -1.634485
     13          6           0       -3.125942   -2.289257   -1.687711
     14          1           0       -2.290000   -0.833817    0.514528
     15          1           0       -3.724901   -0.062737   -0.154514
     16          1           0       -1.343416   -1.070432   -1.787612
     17          1           0       -2.776967   -0.299474   -2.457057
     18          1           0       -4.206446   -2.167352   -1.560230
     19          1           0       -2.764750   -2.942690   -0.886981
     20          1           0       -2.951902   -2.794857   -2.642666
     21          6           0        2.708818   -0.453355   -0.366666
     22          6           0        3.055891    0.967291   -0.813083
     23          6           0        3.879132    0.997668   -2.101163
     24          1           0        3.637221   -1.023059   -0.223669
     25          1           0        2.153456   -0.957231   -1.169834
     26          1           0        3.609231    1.468801   -0.008771
     27          1           0        2.126558    1.533737   -0.954850
     28          1           0        3.330462    0.521736   -2.920339
     29          1           0        4.821558    0.456432   -1.968885
     30          1           0        4.116064    2.022926   -2.402105
     31          6           0        1.886004   -0.500180    0.919613
     32          6           0        1.538931   -1.920826    1.366030
     33          6           0        0.715690   -1.951203    2.654108
     34          1           0        2.441366    0.003695    1.722780
     35          1           0        0.957600    0.069524    0.776615
     36          1           0        2.468264   -2.487271    1.507796
     37          1           0        0.985591   -2.422336    0.561717
     38          1           0       -0.226737   -1.409968    2.521830
     39          1           0        1.264360   -1.475272    3.473285
     40          1           0        0.478758   -2.976462    2.955051
 ---------------------------------------------------------------------

 SCF Done:  E(RHF) =  -470.733365029     A.U. after   11 cycles
 E2 =    -0.1584523026D+01 EUMP2 =    -0.47231788805443D+03

 The electronic state is 1-A.
 Alpha  occ. eigenvalues --  -11.21675 -11.21672 -11.21657 -11.21648 -11.21469
 Alpha  occ. eigenvalues --  -11.21464 -11.21407 -11.21404 -11.21154 -11.21118
 Alpha  occ. eigenvalues --  -11.21101 -11.21089  -1.08541  -1.08453  -1.03590
 Alpha  occ. eigenvalues --   -1.03579  -0.96044  -0.96022  -0.87063  -0.87034
 Alpha  occ. eigenvalues --   -0.79652  -0.79643  -0.78385  -0.78245  -0.65501
 Alpha  occ. eigenvalues --   -0.64789  -0.60986  -0.60976  -0.59412  -0.59386
 Alpha  occ. eigenvalues --   -0.57674  -0.57614  -0.55382  -0.55273  -0.52731
 Alpha  occ. eigenvalues --   -0.52716  -0.52475  -0.52441  -0.50069  -0.49899
 Alpha  occ. eigenvalues --   -0.47977  -0.47967  -0.46720  -0.46694  -0.46242
 Alpha  occ. eigenvalues --   -0.45806  -0.45760  -0.45307  -0.43845  -0.43834
 Alpha virt. eigenvalues --    0.18139   0.22090   0.22771   0.24519   0.25501
 Alpha virt. eigenvalues --    0.25959   0.27033   0.27766   0.28857   0.30464
 Alpha virt. eigenvalues --    0.30900   0.31559   0.31696   0.32027   0.32189

 Mulliken charges:
               1
     1  C   -0.304747
     2  C   -0.301418
     3  C   -0.476642
     4  H    0.154476
     5  H    0.150378
     6  H    0.153132
     7  H    0.152477
     8  H    0.155207
     9  H    0.156165
    10  H    0.160622
    11  C   -0.301210
    12  C   -0.300004
    13  C   -0.475893
    14  H    0.151693
    15  H    0.150403
    16  H    0.151370
    17  H    0.152336
    18  H    0.155495
    19  H    0.155448
    20  H    0.160422
    21  C   -0.298318
    22  C   -0.301823
    23  C   -0.475698
    24  H    0.150221
    25  H    0.149412
    26  H    0.152244
    27  H    0.152991
    28  H    0.155452
    29  H    0.155330
    30  H    0.160590
    31  C   -0.306693
    32  C   -0.299494
    33  C   -0.479148
    34  H    0.149943
    35  H    0.157292
    36  H    0.152560
    37  H    0.151843
    38  H    0.157039
    39  H    0.155776
    40  H    0.160768
 Sum of Mulliken charges =  -0.00000

 Dipole moment (field-independent basis, Debye):
    X=              0.0017    Y=              0.0055    Z=              0.0025  Tot=              0.0063
 Quadrupole moment (field-independent basis, Debye-Ang):
   XX=            -83.7492   YY=            -85.5847   ZZ=            -85.1846
   XY=             -0.9776   XZ=              1.2834   YZ=             -0.2172

 Normal termination of Gaussian 16 at Thu May  6 00:44:44 2021.
