 Gaussian 16, Revision A.03,
 Gaussian 16:  EM64L-G16RevA.03 25-Dec-2016

 -------------
 #p 6-31g* mp2
 -------------

 ------------------------------------------------------
 Input file generated by CHIRIPA (05-May-2021 14:53:17)
 ------------------------------------------------------
 Symbolic Z-matrix:
 Charge =  0 Multiplicity = 1

                         Standard orientation:
 ---------------------------------------------------------------------
 Center     Atomic      Atomic             Coordinates (Angstroms)
 Number     Number       Type             X           Y           Z
 ---------------------------------------------------------------------
      1          6           0       -3.527398    0.950736    0.020810
      2          6           0       -2.270882    1.274498   -0.788098
      3          6           0       -1.833594    2.732389   -0.642754
      4          1           0       -4.342961    1.613355   -0.299718
      5          1           0       -3.340797    1.174660    1.080260
      6          1           0       -2.459338    1.048724   -1.845513
      7          1           0       -1.458268    0.610901   -0.465741
      8          1           0       -1.618487    2.967469    0.404656
      9          1           0       -2.625245    3.407780   -0.982956
     10          1           0       -0.933600    2.941951   -1.229231
     11          6           0       -3.976998   -0.502996   -0.114282
     12          6           0       -5.233514   -0.826758    0.694626
     13          6           0       -5.670803   -2.284649    0.549282
     14          1           0       -4.163599   -0.726920   -1.173731
     15          1           0       -3.161435   -1.165615    0.206246
     16          1           0       -6.046128   -0.163161    0.372269
     17          1           0       -5.045059   -0.600984    1.752041
     18          1           0       -4.879152   -2.960040    0.889484
     19          1           0       -5.885909   -2.519729   -0.498128
     20          1           0       -6.570796   -2.494211    1.135759
     21          6           0        2.466306    2.236879    0.613518
     22          6           0        3.222349    1.442620    1.481892
     23          6           0        3.486266    0.105050    1.172373
     24          6           0        2.976369   -0.408060   -0.019271
     25          6           0        2.219828    0.357807   -0.904924
     26          6           0        1.968337    1.692897   -0.575023
     27          1           0        2.266116    3.274973    0.861877
     28          1           0        3.610351    1.862413    2.405620
     29          1           0        4.068677   -0.532316    1.826574
     30          1           0        1.846455   -0.088803   -1.818462
     31          1           0        1.380881    2.307373   -1.251307
     32          7           0        3.249189   -1.822773   -0.357733
     33          8           0        2.788649   -2.251066   -1.413718
     34          8           0        3.918398   -2.476543    0.439373
 ---------------------------------------------------------------------

 SCF Done:  E(RHF) =  -669.535476973     A.U. after   15 cycles
 E2 =    -0.2091497388D+01 EUMP2 =    -0.67162697436162D+03

 The electronic state is 1-A.
 Alpha  occ. eigenvalues --  -20.60773 -20.60768 -15.85827 -11.31197 -11.27768
 Alpha  occ. eigenvalues --  -11.27761 -11.27500 -11.26783 -11.26760 -11.22115
 Alpha  occ. eigenvalues --  -11.21889 -11.21747 -11.21737 -11.21560 -11.21119
 Alpha  occ. eigenvalues --   -1.59849  -1.39402  -1.19371  -1.08771  -1.08737
 Alpha  occ. eigenvalues --   -1.04776  -1.03889  -0.96356  -0.95595  -0.87380
 Alpha  occ. eigenvalues --   -0.86165  -0.82428  -0.79959  -0.78521  -0.77478
 Alpha  occ. eigenvalues --   -0.72044  -0.71173  -0.70469  -0.65372  -0.65020
 Alpha  occ. eigenvalues --   -0.64808  -0.62171  -0.61269  -0.59748  -0.57954
 Alpha  occ. eigenvalues --   -0.55628  -0.55266  -0.53252  -0.53073  -0.52886
 Alpha  occ. eigenvalues --   -0.52579  -0.50274  -0.48805  -0.48799  -0.48270
 Alpha  occ. eigenvalues --   -0.46970  -0.46072  -0.45969  -0.44806  -0.44138
 Alpha  occ. eigenvalues --   -0.37342  -0.36361
 Alpha virt. eigenvalues --    0.05041   0.11233   0.16475   0.20216   0.22754
 Alpha virt. eigenvalues --    0.23985   0.26010   0.26348   0.27047   0.28270
 Alpha virt. eigenvalues --    0.28707   0.29741   0.31077   0.31638   0.32213

 Mulliken charges:
               1
     1  C   -0.298469
     2  C   -0.302590
     3  C   -0.475252
     4  H    0.150001
     5  H    0.149762
     6  H    0.152912
     7  H    0.155070
     8  H    0.155331
     9  H    0.158520
    10  H    0.148325
    11  C   -0.299228
    12  C   -0.299960
    13  C   -0.476105
    14  H    0.150550
    15  H    0.152491
    16  H    0.151566
    17  H    0.151800
    18  H    0.157061
    19  H    0.155852
    20  H    0.160542
    21  C   -0.172445
    22  C   -0.218685
    23  C   -0.171072
    24  C    0.158382
    25  C   -0.173054
    26  C   -0.217907
    27  H    0.226258
    28  H    0.223435
    29  H    0.275588
    30  H    0.276203
    31  H    0.227865
    32  N    0.488050
    33  O   -0.460277
    34  O   -0.460523
 Sum of Mulliken charges =  -0.00000

 Dipole moment (field-independent basis, Debye):
    X=             -1.0487    Y=              4.9270    Z=              1.2326  Tot=              5.1860
 Quadrupole moment (field-independent basis, Debye-Ang):
   XX=            -99.2807   YY=           -100.5381   ZZ=            -90.8145
   XY=             14.6002   XZ=              6.6484   YZ=             -1.1636

 Normal termination of Gaussian 16 at Thu May  6 20:32:03 2021.
