 Gaussian 16, Revision A.03,
 Gaussian 16:  EM64L-G16RevA.03 25-Dec-2016

 -------------
 #p 6-31g* mp2
 -------------

 ------------------------------------------------------
 Input file generated by CHIRIPA (05-May-2021 14:55:18)
 ------------------------------------------------------
 Symbolic Z-matrix:
 Charge =  0 Multiplicity = 1

                         Standard orientation:
 ---------------------------------------------------------------------
 Center     Atomic      Atomic             Coordinates (Angstroms)
 Number     Number       Type             X           Y           Z
 ---------------------------------------------------------------------
      1          6           0        0.486457   -2.075176    0.914938
      2          6           0        1.264821   -2.462100   -0.180946
      3          6           0        2.305918   -1.647186   -0.635456
      4          6           0        2.541989   -0.446583    0.032461
      5          6           0        1.784094   -0.033497    1.127105
      6          6           0        0.748117   -0.864244    1.564321
      7          1           0       -0.320303   -2.714371    1.261295
      8          1           0        1.063890   -3.401982   -0.687201
      9          1           0        2.924038   -1.922390   -1.481393
     10          1           0        2.008393    0.909154    1.611376
     11          1           0        0.145259   -0.561203    2.415657
     12          7           0        3.641441    0.424511   -0.439554
     13          8           0        3.829157    1.477407    0.166095
     14          8           0        4.294659    0.037885   -1.406231
     15          6           0       -2.361809    0.973502    0.175519
     16          6           0       -1.883378    2.344540   -0.303382
     17          6           0       -0.561778    2.767029    0.339011
     18          1           0       -2.473115    0.992201    1.268317
     19          1           0       -1.588955    0.224841   -0.047183
     20          1           0       -2.657492    3.090160   -0.081090
     21          1           0       -1.773382    2.322632   -1.395187
     22          1           0        0.227704    2.045025    0.106568
     23          1           0       -0.661429    2.816914    1.428131
     24          1           0       -0.238276    3.749957   -0.017442
     25          6           0       -3.681802    0.537281   -0.457771
     26          6           0       -4.160232   -0.833756    0.021130
     27          6           0       -5.481833   -1.256245   -0.621263
     28          1           0       -4.454655    1.285943   -0.235069
     29          1           0       -3.570495    0.518583   -1.550569
     30          1           0       -4.270229   -0.811849    1.112935
     31          1           0       -3.386119   -1.579377   -0.201162
     32          1           0       -5.382181   -1.306130   -1.710383
     33          1           0       -6.271314   -0.534241   -0.388819
     34          1           0       -5.805335   -2.239173   -0.264810
 ---------------------------------------------------------------------

 SCF Done:  E(RHF) =  -669.534389892     A.U. after   15 cycles
 E2 =    -0.2094228318D+01 EUMP2 =    -0.67162861820988D+03

 The electronic state is 1-A.
 Alpha  occ. eigenvalues --  -20.60810 -20.60801 -15.85861 -11.31250 -11.27811
 Alpha  occ. eigenvalues --  -11.27769 -11.27549 -11.26839 -11.26796 -11.22193
 Alpha  occ. eigenvalues --  -11.21831 -11.21796 -11.21695 -11.21560 -11.21200
 Alpha  occ. eigenvalues --   -1.59883  -1.39435  -1.19434  -1.08853  -1.08790
 Alpha  occ. eigenvalues --   -1.04838  -1.03900  -0.96346  -0.95641  -0.87371
 Alpha  occ. eigenvalues --   -0.86213  -0.82470  -0.79994  -0.78671  -0.77502
 Alpha  occ. eigenvalues --   -0.72076  -0.71210  -0.70522  -0.65464  -0.65070
 Alpha  occ. eigenvalues --   -0.64819  -0.62178  -0.61308  -0.59716  -0.57965
 Alpha  occ. eigenvalues --   -0.55644  -0.55310  -0.53267  -0.53040  -0.52967
 Alpha  occ. eigenvalues --   -0.52661  -0.50296  -0.48838  -0.48831  -0.48292
 Alpha  occ. eigenvalues --   -0.47028  -0.46195  -0.46080  -0.44823  -0.44144
 Alpha  occ. eigenvalues --   -0.37376  -0.36316
 Alpha virt. eigenvalues --    0.04983   0.11115   0.16403   0.20785   0.22690
 Alpha virt. eigenvalues --    0.23786   0.25656   0.26402   0.26900   0.28478
 Alpha virt. eigenvalues --    0.28822   0.30303   0.31238   0.31516   0.31718

 Mulliken charges:
               1
     1  C   -0.172555
     2  C   -0.218758
     3  C   -0.171393
     4  C    0.159091
     5  C   -0.175031
     6  C   -0.213934
     7  H    0.227082
     8  H    0.223757
     9  H    0.275778
    10  H    0.278686
    11  H    0.225580
    12  N    0.488454
    13  O   -0.460084
    14  O   -0.460297
    15  C   -0.304660
    16  C   -0.298978
    17  C   -0.481099
    18  H    0.142052
    19  H    0.156488
    20  H    0.152098
    21  H    0.154370
    22  H    0.160872
    23  H    0.147470
    24  H    0.166223
    25  C   -0.297734
    26  C   -0.299178
    27  C   -0.475651
    28  H    0.150891
    29  H    0.151527
    30  H    0.149476
    31  H    0.146142
    32  H    0.156673
    33  H    0.157254
    34  H    0.159387
 Sum of Mulliken charges =  -0.00000

 Dipole moment (field-independent basis, Debye):
    X=             -3.8183    Y=             -3.0510    Z=              1.6127  Tot=              5.1467
 Quadrupole moment (field-independent basis, Debye-Ang):
   XX=           -115.6630   YY=            -90.1445   ZZ=            -91.9689
   XY=             -7.5554   XZ=              2.7376   YZ=              1.8957

 Normal termination of Gaussian 16 at Thu May  6 15:41:57 2021.
