 Gaussian 16, Revision A.03,
 Gaussian 16:  EM64L-G16RevA.03 25-Dec-2016

 -------------
 #p 6-31g* mp2
 -------------

 ------------------------------------------------------
 Input file generated by CHIRIPA (05-May-2021 14:57:22)
 ------------------------------------------------------
 Symbolic Z-matrix:
 Charge =  0 Multiplicity = 1

                         Standard orientation:
 ---------------------------------------------------------------------
 Center     Atomic      Atomic             Coordinates (Angstroms)
 Number     Number       Type             X           Y           Z
 ---------------------------------------------------------------------
      1          6           0       -1.961974    1.246369    0.057163
      2          6           0       -2.093407   -0.133873   -0.127712
      3          6           0       -3.359093   -0.723643   -0.196695
      4          6           0       -4.476991    0.100448   -0.076408
      5          6           0       -4.378737    1.478655    0.108468
      6          6           0       -3.103046    2.046817    0.174457
      7          1           0       -0.974873    1.696123    0.109588
      8          1           0       -1.208991   -0.757970   -0.219120
      9          1           0       -3.489695   -1.789499   -0.339220
     10          1           0       -5.278865    2.074878    0.196250
     11          1           0       -3.003997    3.119011    0.318096
     12          7           0       -5.822212   -0.512477   -0.147853
     13          8           0       -6.791464    0.235421   -0.039062
     14          8           0       -5.881872   -1.729181   -0.311289
     15          6           0        6.381724    1.060828   -0.436153
     16          6           0        6.368067   -0.336814   -0.490308
     17          6           0        5.195548   -1.046611   -0.214743
     18          6           0        4.049706   -0.323499    0.113048
     19          6           0        4.031526    1.069013    0.175269
     20          6           0        5.215466    1.758051   -0.104123
     21          1           0        7.297001    1.604151   -0.651705
     22          1           0        7.272305   -0.880919   -0.747887
     23          1           0        5.156925   -2.128612   -0.249375
     24          1           0        3.114416    1.583675    0.434980
     25          1           0        5.223133    2.843478   -0.061301
     26          7           0        2.802367   -1.063941    0.406801
     27          8           0        1.806151   -0.403469    0.693101
     28          8           0        2.844538   -2.290750    0.345184
 ---------------------------------------------------------------------

 SCF Done:  E(RHF) =  -868.340216186     A.U. after   16 cycles
 E2 =    -0.2598457518D+01 EUMP2 =    -0.87093867370429D+03

 The electronic state is 1-A.
 Alpha  occ. eigenvalues --  -20.61929 -20.61877 -20.60045 -20.60033 -15.86927
 Alpha  occ. eigenvalues --  -15.85085 -11.32029 -11.30283 -11.28601 -11.28532
 Alpha  occ. eigenvalues --  -11.28236 -11.27525 -11.27486 -11.26869 -11.26731
 Alpha  occ. eigenvalues --  -11.26451 -11.25876 -11.25555  -1.60958  -1.59121
 Alpha  occ. eigenvalues --   -1.40522  -1.38679  -1.20170  -1.18413  -1.09610
 Alpha  occ. eigenvalues --   -1.07826  -1.05535  -1.03774  -0.96492  -0.94700
 Alpha  occ. eigenvalues --   -0.86945  -0.85164  -0.83338  -0.81532  -0.78419
 Alpha  occ. eigenvalues --   -0.76611  -0.73162  -0.72255  -0.71308  -0.71273
 Alpha  occ. eigenvalues --   -0.70441  -0.69499  -0.65828  -0.65533  -0.64048
 Alpha  occ. eigenvalues --   -0.63724  -0.62891  -0.61106  -0.56034  -0.54250
 Alpha  occ. eigenvalues --   -0.53873  -0.53624  -0.52137  -0.51834  -0.49922
 Alpha  occ. eigenvalues --   -0.49874  -0.48074  -0.48045  -0.45980  -0.44122
 Alpha  occ. eigenvalues --   -0.38124  -0.37125  -0.36379  -0.35382
 Alpha virt. eigenvalues --    0.04089   0.05888   0.10535   0.12276   0.15631
 Alpha virt. eigenvalues --    0.17443   0.20576   0.22448   0.26460   0.27243
 Alpha virt. eigenvalues --    0.28521   0.29045   0.30536   0.31505   0.32861

 Mulliken charges:
               1
     1  C   -0.171913
     2  C   -0.222806
     3  C   -0.173222
     4  C    0.158186
     5  C   -0.173146
     6  C   -0.219114
     7  H    0.226874
     8  H    0.244202
     9  H    0.274844
    10  H    0.271878
    11  H    0.218096
    12  N    0.488111
    13  O   -0.463637
    14  O   -0.461484
    15  C   -0.169697
    16  C   -0.218305
    17  C   -0.170058
    18  C    0.158286
    19  C   -0.170169
    20  C   -0.218131
    21  H    0.228445
    22  H    0.226363
    23  H    0.277391
    24  H    0.270742
    25  H    0.224915
    26  N    0.490476
    27  O   -0.472378
    28  O   -0.454748
 Sum of Mulliken charges =  -0.00000

 Dipole moment (field-independent basis, Debye):
    X=              9.7982    Y=              4.6052    Z=             -0.8097  Tot=             10.8567
 Quadrupole moment (field-independent basis, Debye-Ang):
   XX=           -110.5044   YY=            -98.5183   ZZ=           -106.6638
   XY=             -4.1832   XZ=             -6.2077   YZ=              1.9156

 Normal termination of Gaussian 16 at Thu May  6 17:52:13 2021.
