 Gaussian 16, Revision A.03,
 Gaussian 16:  EM64L-G16RevA.03 25-Dec-2016

 -------------
 #p 6-31g* mp2
 -------------

 ------------------------------------------------------
 Input file generated by CHIRIPA (05-May-2021 14:53:12)
 ------------------------------------------------------
 Symbolic Z-matrix:
 Charge =  0 Multiplicity = 1

                         Standard orientation:
 ---------------------------------------------------------------------
 Center     Atomic      Atomic             Coordinates (Angstroms)
 Number     Number       Type             X           Y           Z
 ---------------------------------------------------------------------
      1          6           0        2.929702    0.513557    0.031625
      2          6           0        3.196623    2.017572    0.100019
      3          6           0        1.916776    2.838353    0.261585
      4          1           0        2.250894    0.305829   -0.806835
      5          1           0        2.404402    0.199573    0.944241
      6          1           0        3.722491    2.328378   -0.811835
      7          1           0        3.875026    2.221722    0.938295
      8          1           0        1.391892    2.556716    1.180159
      9          1           0        1.238490    2.663978   -0.579915
     10          1           0        2.130754    3.910683    0.308286
     11          6           0        4.199452   -0.320341   -0.129861
     12          6           0        3.932531   -1.824356   -0.198255
     13          6           0        5.212378   -2.645137   -0.359822
     14          1           0        4.724752   -0.006357   -1.042478
     15          1           0        4.878259   -0.112612    0.708598
     16          1           0        3.254128   -2.028506   -1.036532
     17          1           0        3.406662   -2.135162    0.713599
     18          1           0        5.890663   -2.470762    0.481679
     19          1           0        5.737262   -2.363500   -1.278396
     20          1           0        4.998399   -3.717467   -0.406522
     21          6           0       -1.830759    2.256054   -0.101811
     22          6           0       -1.486377    1.421878    0.966866
     23          6           0       -2.008975    0.128156    1.054744
     24          6           0       -2.877061   -0.300878    0.051926
     25          6           0       -3.239202    0.506508   -1.025233
     26          6           0       -2.704532    1.796517   -1.092703
     27          1           0       -1.420104    3.259607   -0.162151
     28          1           0       -0.808022    1.776097    1.737845
     29          1           0       -1.759151   -0.538569    1.871129
     30          1           0       -3.917832    0.125324   -1.778612
     31          1           0       -2.973744    2.442155   -1.923800
     32          7           0       -3.436703   -1.668520    0.134156
     33          8           0       -4.199450   -2.022792   -0.762137
     34          8           0       -3.102003   -2.360306    1.093346
 ---------------------------------------------------------------------

 SCF Done:  E(RHF) =  -669.534719534     A.U. after   15 cycles
 E2 =    -0.2092240467D+01 EUMP2 =    -0.67162696000111D+03

 The electronic state is 1-A.
 Alpha  occ. eigenvalues --  -20.60728 -20.60722 -15.85781 -11.31134 -11.27705
 Alpha  occ. eigenvalues --  -11.27688 -11.27409 -11.26719 -11.26677 -11.22285
 Alpha  occ. eigenvalues --  -11.22064 -11.21878 -11.21796 -11.21700 -11.21200
 Alpha  occ. eigenvalues --   -1.59804  -1.39357  -1.19305  -1.08885  -1.08696
 Alpha  occ. eigenvalues --   -1.04711  -1.04012  -0.96498  -0.95533  -0.87533
 Alpha  occ. eigenvalues --   -0.86100  -0.82371  -0.80103  -0.78647  -0.77421
 Alpha  occ. eigenvalues --   -0.72000  -0.71127  -0.70405  -0.65521  -0.64956
 Alpha  occ. eigenvalues --   -0.64737  -0.62100  -0.61395  -0.59869  -0.58068
 Alpha  occ. eigenvalues --   -0.55850  -0.55157  -0.53247  -0.53167  -0.52894
 Alpha  occ. eigenvalues --   -0.52646  -0.50430  -0.48761  -0.48756  -0.48381
 Alpha  occ. eigenvalues --   -0.47104  -0.46198  -0.46094  -0.44766  -0.44248
 Alpha  occ. eigenvalues --   -0.37243  -0.36297
 Alpha virt. eigenvalues --    0.05085   0.11298   0.16491   0.20419   0.22568
 Alpha virt. eigenvalues --    0.23975   0.25321   0.26370   0.27140   0.27825
 Alpha virt. eigenvalues --    0.29118   0.29516   0.31115   0.31782   0.31979

 Mulliken charges:
               1
     1  C   -0.298058
     2  C   -0.299643
     3  C   -0.479739
     4  H    0.152615
     5  H    0.146744
     6  H    0.154463
     7  H    0.153712
     8  H    0.146914
     9  H    0.156765
    10  H    0.160662
    11  C   -0.298857
    12  C   -0.300185
    13  C   -0.476120
    14  H    0.150134
    15  H    0.149826
    16  H    0.153825
    17  H    0.153017
    18  H    0.155022
    19  H    0.155137
    20  H    0.162580
    21  C   -0.171549
    22  C   -0.215932
    23  C   -0.172115
    24  C    0.158522
    25  C   -0.171175
    26  C   -0.219959
    27  H    0.228036
    28  H    0.225071
    29  H    0.275145
    30  H    0.275277
    31  H    0.223095
    32  N    0.488073
    33  O   -0.460702
    34  O   -0.460598
 Sum of Mulliken charges =  -0.00000

 Dipole moment (field-independent basis, Debye):
    X=              2.0983    Y=              4.7715    Z=             -0.3447  Tot=              5.2239
 Quadrupole moment (field-independent basis, Debye-Ang):
   XX=           -105.9204   YY=            -98.7747   ZZ=            -90.4272
   XY=            -14.5778   XZ=              3.5117   YZ=             -0.6754

 Normal termination of Gaussian 16 at Wed May  5 17:00:53 2021.
