 Gaussian 16, Revision A.03,
 Gaussian 16:  EM64L-G16RevA.03 25-Dec-2016

 -------------
 #p 6-31g* mp2
 -------------

 ------------------------------------------------------
 Input file generated by CHIRIPA (05-May-2021 14:55:18)
 ------------------------------------------------------
 Symbolic Z-matrix:
 Charge =  0 Multiplicity = 1

                         Standard orientation:
 ---------------------------------------------------------------------
 Center     Atomic      Atomic             Coordinates (Angstroms)
 Number     Number       Type             X           Y           Z
 ---------------------------------------------------------------------
      1          6           0       -3.636200    1.977721    0.169759
      2          6           0       -4.451432    0.843737    0.247207
      3          6           0       -3.899951   -0.436119    0.135921
      4          6           0       -2.523166   -0.545723   -0.053129
      5          6           0       -1.684595    0.564901   -0.134399
      6          6           0       -2.257813    1.834935   -0.020461
      7          1           0       -4.073046    2.968129    0.257239
      8          1           0       -5.522226    0.951605    0.394890
      9          1           0       -4.507840   -1.330947    0.192253
     10          1           0       -0.620551    0.425545   -0.282078
     11          1           0       -1.622257    2.713827   -0.080988
     12          7           0       -1.927831   -1.895450   -0.172346
     13          8           0       -0.712031   -1.965140   -0.338510
     14          8           0       -2.688281   -2.858119   -0.097366
     15          6           0        3.479392    1.150259   -0.117237
     16          6           0        2.258816    2.038106    0.127519
     17          6           0        2.522828    3.508680   -0.197297
     18          1           0        4.318773    1.516333    0.489701
     19          1           0        3.788357    1.245013   -1.167454
     20          1           0        1.951405    1.940642    1.176621
     21          1           0        1.422188    1.669760   -0.479928
     22          1           0        2.807870    3.626009   -1.247813
     23          1           0        3.340094    3.898430    0.418147
     24          1           0        1.637139    4.125323   -0.015181
     25          6           0        3.231094   -0.322685    0.202946
     26          6           0        4.451671   -1.210531   -0.041809
     27          6           0        4.187659   -2.681105    0.283006
     28          1           0        2.922130   -0.417438    1.253163
     29          1           0        2.391713   -0.688758   -0.403992
     30          1           0        5.288299   -0.842186    0.565637
     31          1           0        4.759082   -1.113068   -1.090912
     32          1           0        3.370393   -3.070857   -0.332438
     33          1           0        3.902616   -2.798436    1.333523
     34          1           0        5.073347   -3.297749    0.100890
 ---------------------------------------------------------------------

 SCF Done:  E(RHF) =  -669.535795496     A.U. after   15 cycles
 E2 =    -0.2091942816D+01 EUMP2 =    -0.67162773831232D+03

 The electronic state is 1-A.
 Alpha  occ. eigenvalues --  -20.60789 -20.60783 -15.85835 -11.31151 -11.27731
 Alpha  occ. eigenvalues --  -11.27683 -11.27472 -11.26743 -11.26717 -11.22139
 Alpha  occ. eigenvalues --  -11.21606 -11.21453 -11.21199 -11.21019 -11.20414
 Alpha  occ. eigenvalues --   -1.59857  -1.39412  -1.19328  -1.08735  -1.08403
 Alpha  occ. eigenvalues --   -1.04726  -1.03504  -0.95914  -0.95575  -0.86937
 Alpha  occ. eigenvalues --   -0.86127  -0.82408  -0.79672  -0.78121  -0.77433
 Alpha  occ. eigenvalues --   -0.72055  -0.71177  -0.70448  -0.65061  -0.64982
 Alpha  occ. eigenvalues --   -0.64715  -0.62102  -0.60882  -0.59376  -0.57512
 Alpha  occ. eigenvalues --   -0.55242  -0.55170  -0.53060  -0.52853  -0.52660
 Alpha  occ. eigenvalues --   -0.52307  -0.49854  -0.48809  -0.48807  -0.47924
 Alpha  occ. eigenvalues --   -0.46702  -0.45640  -0.45500  -0.44825  -0.43731
 Alpha  occ. eigenvalues --   -0.37316  -0.36326
 Alpha virt. eigenvalues --    0.05071   0.11323   0.16566   0.19634   0.23137
 Alpha virt. eigenvalues --    0.23919   0.24681   0.26622   0.26983   0.28418
 Alpha virt. eigenvalues --    0.29694   0.30968   0.31446   0.31849   0.32912

 Mulliken charges:
               1
     1  C   -0.170592
     2  C   -0.219066
     3  C   -0.170280
     4  C    0.159634
     5  C   -0.179736
     6  C   -0.222316
     7  H    0.225487
     8  H    0.223305
     9  H    0.275376
    10  H    0.286377
    11  H    0.224581
    12  N    0.488796
    13  O   -0.462467
    14  O   -0.460165
    15  C   -0.297687
    16  C   -0.305226
    17  C   -0.474525
    18  H    0.150318
    19  H    0.150251
    20  H    0.153484
    21  H    0.144291
    22  H    0.157777
    23  H    0.159134
    24  H    0.152927
    25  C   -0.304614
    26  C   -0.299823
    27  C   -0.476859
    28  H    0.149827
    29  H    0.163641
    30  H    0.149029
    31  H    0.150701
    32  H    0.165519
    33  H    0.155431
    34  H    0.157469
 Sum of Mulliken charges =  -0.00000

 Dipole moment (field-independent basis, Debye):
    X=             -2.0272    Y=              4.6304    Z=              0.4175  Tot=              5.0719
 Quadrupole moment (field-independent basis, Debye-Ang):
   XX=            -80.0011   YY=           -100.8192   ZZ=            -94.7576
   XY=             -8.9481   XZ=             -1.3235   YZ=             -0.3145

 Normal termination of Gaussian 16 at Thu May  6 07:39:09 2021.
