 Gaussian 16, Revision A.03,
 Gaussian 16:  EM64L-G16RevA.03 25-Dec-2016

 -------------
 #p 6-31g* mp2
 -------------

 ------------------------------------------------------
 Input file generated by CHIRIPA (05-May-2021 14:55:22)
 ------------------------------------------------------
 Symbolic Z-matrix:
 Charge =  0 Multiplicity = 1

                         Standard orientation:
 ---------------------------------------------------------------------
 Center     Atomic      Atomic             Coordinates (Angstroms)
 Number     Number       Type             X           Y           Z
 ---------------------------------------------------------------------
      1          6           0       -5.190084   -0.130854   -1.435350
      2          6           0       -5.288659   -0.762184   -0.191072
      3          6           0       -4.185411   -0.818770    0.665777
      4          6           0       -2.993645   -0.230967    0.244507
      5          6           0       -2.863980    0.405247   -0.989069
      6          6           0       -3.980193    0.449823   -1.829682
      7          1           0       -6.052149   -0.091562   -2.094665
      8          1           0       -6.227011   -1.214002    0.117796
      9          1           0       -4.233971   -1.301168    1.634463
     10          1           0       -1.915253    0.846616   -1.269299
     11          1           0       -3.900730    0.940788   -2.795437
     12          7           0       -1.818823   -0.284515    1.143020
     13          8           0       -0.780129    0.240961    0.748523
     14          8           0       -1.958937   -0.850946    2.224760
     15          6           0        3.777888    0.953760   -0.333697
     16          6           0        2.823165    1.541749    0.705899
     17          6           0        2.227452    2.881009    0.270813
     18          1           0        4.587131    1.671360   -0.526365
     19          1           0        3.240769    0.825876   -1.283719
     20          1           0        3.361553    1.667196    1.654063
     21          1           0        2.016205    0.822586    0.896256
     22          1           0        1.666288    2.768029   -0.662424
     23          1           0        3.019280    3.617438    0.099689
     24          1           0        1.547994    3.283324    1.028666
     25          6           0        4.381521   -0.385078    0.086860
     26          6           0        5.336244   -0.973067   -0.952736
     27          6           0        5.931958   -2.312328   -0.517650
     28          1           0        4.918641   -0.257194    1.036883
     29          1           0        3.572278   -1.102678    0.279528
     30          1           0        6.143204   -0.253904   -1.143092
     31          1           0        4.797857   -1.098514   -1.900901
     32          1           0        5.140130   -3.048756   -0.346526
     33          1           0        6.493122   -2.199346    0.415588
     34          1           0        6.611415   -2.714642   -1.275503
 ---------------------------------------------------------------------

 SCF Done:  E(RHF) =  -669.536197094     A.U. after   15 cycles
 E2 =    -0.2090954686D+01 EUMP2 =    -0.67162715177940D+03

 The electronic state is 1-A.
 Alpha  occ. eigenvalues --  -20.60976 -20.60970 -15.86014 -11.31317 -11.27878
 Alpha  occ. eigenvalues --  -11.27875 -11.27613 -11.26882 -11.26873 -11.20929
 Alpha  occ. eigenvalues --  -11.20496 -11.20491 -11.20379 -11.20154 -11.19984
 Alpha  occ. eigenvalues --   -1.60038  -1.39595  -1.19484  -1.08891  -1.07473
 Alpha  occ. eigenvalues --   -1.04878  -1.02570  -0.95737  -0.95073  -0.86279
 Alpha  occ. eigenvalues --   -0.86100  -0.82572  -0.78655  -0.77627  -0.77242
 Alpha  occ. eigenvalues --   -0.72241  -0.71352  -0.70593  -0.65143  -0.64881
 Alpha  occ. eigenvalues --   -0.64097  -0.62225  -0.59953  -0.58452  -0.56656
 Alpha  occ. eigenvalues --   -0.55383  -0.54376  -0.53211  -0.52970  -0.51782
 Alpha  occ. eigenvalues --   -0.51500  -0.49114  -0.48984  -0.48941  -0.46968
 Alpha  occ. eigenvalues --   -0.45665  -0.45015  -0.44815  -0.44628  -0.42838
 Alpha  occ. eigenvalues --   -0.37463  -0.36479
 Alpha virt. eigenvalues --    0.04906   0.11177   0.16408   0.21248   0.23743
 Alpha virt. eigenvalues --    0.25066   0.27146   0.27502   0.28195   0.28541
 Alpha virt. eigenvalues --    0.28923   0.30841   0.31926   0.32635   0.32742

 Mulliken charges:
               1
     1  C   -0.170545
     2  C   -0.218616
     3  C   -0.170415
     4  C    0.157449
     5  C   -0.170765
     6  C   -0.218535
     7  H    0.226096
     8  H    0.223888
     9  H    0.275910
    10  H    0.275719
    11  H    0.223973
    12  N    0.493585
    13  O   -0.465339
    14  O   -0.458845
    15  C   -0.296729
    16  C   -0.310667
    17  C   -0.471135
    18  H    0.144388
    19  H    0.145444
    20  H    0.147062
    21  H    0.182628
    22  H    0.148904
    23  H    0.147818
    24  H    0.161698
    25  C   -0.298515
    26  C   -0.298705
    27  C   -0.475194
    28  H    0.148456
    29  H    0.154120
    30  H    0.149821
    31  H    0.149553
    32  H    0.155375
    33  H    0.154754
    34  H    0.157365
 Sum of Mulliken charges =  -0.00000

 Dipole moment (field-independent basis, Debye):
    X=             -4.4739    Y=              0.0852    Z=             -3.0549  Tot=              5.4181
 Quadrupole moment (field-independent basis, Debye-Ang):
   XX=            -69.7012   YY=            -95.5628   ZZ=            -94.2646
   XY=              2.6090   XZ=              7.1844   YZ=             -0.8346

 Normal termination of Gaussian 16 at Thu May  6 03:01:22 2021.
