 Gaussian 16, Revision A.03,
 Gaussian 16:  EM64L-G16RevA.03 25-Dec-2016

 -------------
 #p 6-31g* mp2
 -------------

 ------------------------------------------------------
 Input file generated by CHIRIPA (05-May-2021 14:55:25)
 ------------------------------------------------------
 Symbolic Z-matrix:
 Charge =  0 Multiplicity = 1

                         Standard orientation:
 ---------------------------------------------------------------------
 Center     Atomic      Atomic             Coordinates (Angstroms)
 Number     Number       Type             X           Y           Z
 ---------------------------------------------------------------------
      1          6           0        1.355302   -1.186515    1.873560
      2          6           0        0.867489   -0.961007    0.582163
      3          6           0        1.691058   -0.403999   -0.400702
      4          6           0        3.003098   -0.083000   -0.056029
      5          6           0        3.518337   -0.295614    1.221710
      6          6           0        2.676839   -0.853686    2.188656
      7          1           0        0.708571   -1.619626    2.630891
      8          1           0       -0.158405   -1.218506    0.334613
      9          1           0        1.339191   -0.218771   -1.408322
     10          1           0        4.545520   -0.028588    1.438526
     11          1           0        3.058384   -1.027702    3.190747
     12          7           0        3.884463    0.507242   -1.088118
     13          8           0        5.036555    0.781314   -0.759171
     14          8           0        3.406497    0.684627   -2.206474
     15          6           0       -4.081516   -0.402034   -0.206585
     16          6           0       -3.304217   -1.602332   -0.747949
     17          6           0       -4.164965   -2.860736   -0.863392
     18          1           0       -4.496298   -0.655930    0.778523
     19          1           0       -4.938580   -0.202076   -0.864501
     20          1           0       -2.448083   -1.799107   -0.089975
     21          1           0       -2.891076   -1.345483   -1.731798
     22          1           0       -5.011345   -2.688175   -1.536048
     23          1           0       -4.565834   -3.144377    0.115104
     24          1           0       -3.589433   -3.706505   -1.252361
     25          6           0       -3.234550    0.863550   -0.085439
     26          6           0       -4.011849    2.063848    0.455924
     27          6           0       -3.151102    3.322251    0.571367
     28          1           0       -2.377486    0.663591    0.572475
     29          1           0       -2.819768    1.117445   -1.070548
     30          1           0       -4.424991    1.806999    1.439773
     31          1           0       -4.867984    2.260623   -0.202050
     32          1           0       -2.750233    3.605892   -0.407128
     33          1           0       -2.304722    3.149690    1.244023
     34          1           0       -3.726634    4.168021    0.960337
 ---------------------------------------------------------------------

 SCF Done:  E(RHF) =  -669.535588073     A.U. after   15 cycles
 E2 =    -0.2091483224D+01 EUMP2 =    -0.67162707129687D+03

 The electronic state is 1-A.
 Alpha  occ. eigenvalues --  -20.60726 -20.60721 -15.85779 -11.31138 -11.27712
 Alpha  occ. eigenvalues --  -11.27694 -11.27453 -11.26729 -11.26674 -11.22611
 Alpha  occ. eigenvalues --  -11.22163 -11.22130 -11.22068 -11.21831 -11.21446
 Alpha  occ. eigenvalues --   -1.59801  -1.39355  -1.19309  -1.09172  -1.08708
 Alpha  occ. eigenvalues --   -1.04708  -1.04211  -0.96624  -0.95544  -0.87642
 Alpha  occ. eigenvalues --   -0.86113  -0.82376  -0.80311  -0.78993  -0.77415
 Alpha  occ. eigenvalues --   -0.71998  -0.71124  -0.70425  -0.65841  -0.64961
 Alpha  occ. eigenvalues --   -0.64697  -0.62081  -0.61588  -0.60007  -0.58245
 Alpha  occ. eigenvalues --   -0.55899  -0.55223  -0.53331  -0.53072  -0.53013
 Alpha  occ. eigenvalues --   -0.52809  -0.50568  -0.48776  -0.48753  -0.48583
 Alpha  occ. eigenvalues --   -0.47348  -0.46492  -0.46423  -0.44762  -0.44470
 Alpha  occ. eigenvalues --   -0.37296  -0.36306
 Alpha virt. eigenvalues --    0.05110   0.11286   0.16573   0.19579   0.22655
 Alpha virt. eigenvalues --    0.23702   0.24702   0.26127   0.27385   0.28350
 Alpha virt. eigenvalues --    0.29248   0.30167   0.31081   0.31347   0.32137

 Mulliken charges:
               1
     1  C   -0.173923
     2  C   -0.227693
     3  C   -0.173753
     4  C    0.158891
     5  C   -0.171238
     6  C   -0.218506
     7  H    0.225198
     8  H    0.238079
     9  H    0.276290
    10  H    0.275409
    11  H    0.223123
    12  N    0.488081
    13  O   -0.460697
    14  O   -0.460463
    15  C   -0.298201
    16  C   -0.305576
    17  C   -0.475309
    18  H    0.150236
    19  H    0.153864
    20  H    0.143535
    21  H    0.154572
    22  H    0.159369
    23  H    0.156032
    24  H    0.161938
    25  C   -0.300746
    26  C   -0.300057
    27  C   -0.476420
    28  H    0.144987
    29  H    0.151657
    30  H    0.151889
    31  H    0.154178
    32  H    0.157736
    33  H    0.155402
    34  H    0.162117
 Sum of Mulliken charges =  -0.00000

 Dipole moment (field-independent basis, Debye):
    X=             -3.3103    Y=             -2.0271    Z=              3.5786  Tot=              5.2796
 Quadrupole moment (field-independent basis, Debye-Ang):
   XX=           -110.3098   YY=            -95.8447   ZZ=            -92.3750
   XY=             -6.3863   XZ=             14.4532   YZ=             -0.3819

 Normal termination of Gaussian 16 at Thu May  6 16:03:22 2021.
