 Gaussian 16, Revision A.03,
 Gaussian 16:  EM64L-G16RevA.03 25-Dec-2016

 -------------
 #p 6-31g* mp2
 -------------

 ------------------------------------------------------
 Input file generated by CHIRIPA (05-May-2021 14:57:26)
 ------------------------------------------------------
 Symbolic Z-matrix:
 Charge =  0 Multiplicity = 1

                         Standard orientation:
 ---------------------------------------------------------------------
 Center     Atomic      Atomic             Coordinates (Angstroms)
 Number     Number       Type             X           Y           Z
 ---------------------------------------------------------------------
      1          6           0       -1.747645    0.171586    1.707485
      2          6           0       -1.642414   -0.666150    0.592297
      3          6           0       -2.722158   -0.823845   -0.281679
      4          6           0       -3.897465   -0.125576   -0.008981
      5          6           0       -4.033214    0.716387    1.093725
      6          6           0       -2.940606    0.858969    1.954205
      7          1           0       -0.903878    0.288218    2.381169
      8          1           0       -0.717173   -1.201221    0.398204
      9          1           0       -2.667961   -1.465945   -1.152419
     10          1           0       -4.968472    1.236702    1.261004
     11          1           0       -3.025188    1.510242    2.819500
     12          7           0       -5.047351   -0.284521   -0.927077
     13          8           0       -6.071880    0.341689   -0.664709
     14          8           0       -4.902329   -1.032303   -1.891664
     15          6           0        3.015842    2.488725   -0.564162
     16          6           0        4.329521    2.084303   -0.823411
     17          6           0        4.724123    0.762963   -0.593410
     18          6           0        3.774861   -0.131613   -0.101551
     19          6           0        2.458571    0.240891    0.166610
     20          6           0        2.086198    1.567353   -0.070848
     21          1           0        2.717940    3.517162   -0.745729
     22          1           0        5.053624    2.797687   -1.206559
     23          1           0        5.734565    0.423021   -0.785409
     24          1           0        1.759197   -0.493059    0.548201
     25          1           0        1.065290    1.878619    0.131400
     26          7           0        4.180842   -1.533167    0.145888
     27          8           0        3.325588   -2.302028    0.579512
     28          8           0        5.346616   -1.836305   -0.098478
 ---------------------------------------------------------------------

 SCF Done:  E(RHF) =  -868.337493339     A.U. after   16 cycles
 E2 =    -0.2600053610D+01 EUMP2 =    -0.87093754694910D+03

 The electronic state is 1-A.
 Alpha  occ. eigenvalues --  -20.61449 -20.61421 -20.61124 -20.61118 -15.86491
 Alpha  occ. eigenvalues --  -15.86181 -11.31895 -11.31674 -11.28558 -11.28389
 Alpha  occ. eigenvalues --  -11.28246 -11.28240 -11.28129 -11.28076 -11.27473
 Alpha  occ. eigenvalues --  -11.27403 -11.27342 -11.27302  -1.60509  -1.60196
 Alpha  occ. eigenvalues --   -1.40065  -1.39745  -1.20047  -1.19867  -1.09419
 Alpha  occ. eigenvalues --   -1.09256  -1.05467  -1.05275  -0.96263  -0.96059
 Alpha  occ. eigenvalues --   -0.86856  -0.86680  -0.83099  -0.82876  -0.78173
 Alpha  occ. eigenvalues --   -0.77884  -0.72708  -0.72396  -0.71831  -0.71522
 Alpha  occ. eigenvalues --   -0.71173  -0.70972  -0.65706  -0.65526  -0.65503
 Alpha  occ. eigenvalues --   -0.65248  -0.62901  -0.62516  -0.55923  -0.55812
 Alpha  occ. eigenvalues --   -0.53773  -0.53663  -0.53559  -0.53296  -0.49477
 Alpha  occ. eigenvalues --   -0.49454  -0.49166  -0.49142  -0.45463  -0.45121
 Alpha  occ. eigenvalues --   -0.37993  -0.37891  -0.37076  -0.36866
 Alpha virt. eigenvalues --    0.04377   0.04619   0.10583   0.10674   0.15856
 Alpha virt. eigenvalues --    0.16069   0.18417   0.21895   0.24705   0.26762
 Alpha virt. eigenvalues --    0.27733   0.29393   0.29631   0.31014   0.31499

 Mulliken charges:
               1
     1  C   -0.177550
     2  C   -0.226254
     3  C   -0.170065
     4  C    0.159124
     5  C   -0.170738
     6  C   -0.218749
     7  H    0.225373
     8  H    0.229231
     9  H    0.279490
    10  H    0.277196
    11  H    0.224863
    12  N    0.487813
    13  O   -0.459375
    14  O   -0.458194
    15  C   -0.170377
    16  C   -0.217771
    17  C   -0.169939
    18  C    0.160753
    19  C   -0.177184
    20  C   -0.220822
    21  H    0.228351
    22  H    0.226273
    23  H    0.277768
    24  H    0.268585
    25  H    0.224754
    26  N    0.487885
    27  O   -0.463794
    28  O   -0.456648
 Sum of Mulliken charges =  -0.00000

 Dipole moment (field-independent basis, Debye):
    X=              2.6291    Y=              5.5639    Z=              2.2549  Tot=              6.5539
 Quadrupole moment (field-independent basis, Debye-Ang):
   XX=           -140.3900   YY=           -104.8471   ZZ=           -103.8218
   XY=             15.8348   XZ=            -19.5077   YZ=              0.8321

 Normal termination of Gaussian 16 at Thu May  6 21:20:21 2021.
