 Gaussian 16, Revision A.03,
 Gaussian 16:  EM64L-G16RevA.03 25-Dec-2016

 -------------
 #p 6-31g* mp2
 -------------

 ------------------------------------------------------
 Input file generated by CHIRIPA (05-May-2021 14:51:13)
 ------------------------------------------------------
 Symbolic Z-matrix:
 Charge =  0 Multiplicity = 1

                         Standard orientation:
 ---------------------------------------------------------------------
 Center     Atomic      Atomic             Coordinates (Angstroms)
 Number     Number       Type             X           Y           Z
 ---------------------------------------------------------------------
      1          6           0        4.711525    0.065152   -0.020918
      2          6           0        5.496481   -1.231763   -0.220525
      3          6           0        6.980743   -0.988116   -0.495108
      4          1           0        4.822072    0.694434   -0.914634
      5          1           0        5.152297    0.627562    0.813834
      6          1           0        5.053504   -1.792213   -1.053761
      7          1           0        5.383896   -1.858114    0.673693
      8          1           0        7.443506   -0.450144    0.338581
      9          1           0        7.111238   -0.383869   -1.398689
     10          1           0        7.522867   -1.928585   -0.634673
     11          6           0        3.226172   -0.161999    0.254503
     12          6           0        2.441217    1.134915    0.454110
     13          6           0        0.956955    0.891268    0.728693
     14          1           0        2.785401   -0.724409   -0.580249
     15          1           0        3.115626   -0.791282    1.148219
     16          1           0        2.553802    1.761266   -0.440108
     17          1           0        2.884194    1.695365    1.287346
     18          1           0        0.826460    0.287021    1.632274
     19          1           0        0.494191    0.353297   -0.104996
     20          1           0        0.414831    1.831738    0.868258
     21          6           0       -4.005742   -0.657206    0.173306
     22          6           0       -5.179717   -1.474366   -0.367078
     23          6           0       -5.240102   -2.883750    0.222654
     24          1           0       -3.068016   -1.187177   -0.042903
     25          1           0       -4.084355   -0.594765    1.267526
     26          1           0       -5.099669   -1.534077   -1.460076
     27          1           0       -6.114743   -0.942294   -0.149726
     28          1           0       -5.344135   -2.841532    1.311688
     29          1           0       -4.323292   -3.436678   -0.006107
     30          1           0       -6.086757   -3.450370   -0.177318
     31          6           0       -3.931956    0.754053   -0.406891
     32          6           0       -2.757980    1.571213    0.133493
     33          6           0       -2.697596    2.980597   -0.456239
     34          1           0       -3.853342    0.691613   -1.501111
     35          1           0       -4.869682    1.284025   -0.190682
     36          1           0       -1.822953    1.039142   -0.083859
     37          1           0       -2.838029    1.630925    1.226491
     38          1           0       -3.614406    3.533525   -0.227478
     39          1           0       -2.593563    2.938380   -1.545273
     40          1           0       -1.850941    3.547217   -0.056267
 ---------------------------------------------------------------------

 SCF Done:  E(RHF) =  -470.732584849     A.U. after   11 cycles
 E2 =    -0.1582999534D+01 EUMP2 =    -0.47231558438318D+03

 The electronic state is 1-A.
 Alpha  occ. eigenvalues --  -11.21614 -11.21610 -11.21557 -11.21422 -11.21407
 Alpha  occ. eigenvalues --  -11.21362 -11.21330 -11.21264 -11.21084 -11.21081
 Alpha  occ. eigenvalues --  -11.21038 -11.21012  -1.08450  -1.08350  -1.03567
 Alpha  occ. eigenvalues --   -1.03440  -0.96023  -0.95900  -0.87041  -0.86922
 Alpha  occ. eigenvalues --   -0.79719  -0.79431  -0.78279  -0.78133  -0.65098
 Alpha  occ. eigenvalues --   -0.64974  -0.61032  -0.60796  -0.59521  -0.59156
 Alpha  occ. eigenvalues --   -0.57667  -0.57463  -0.55331  -0.55173  -0.52747
 Alpha  occ. eigenvalues --   -0.52561  -0.52477  -0.52297  -0.50024  -0.49804
 Alpha  occ. eigenvalues --   -0.47992  -0.47779  -0.46766  -0.46434  -0.45863
 Alpha  occ. eigenvalues --   -0.45746  -0.45674  -0.45503  -0.43775  -0.43681
 Alpha virt. eigenvalues --    0.21968   0.23033   0.23487   0.24989   0.25743
 Alpha virt. eigenvalues --    0.26736   0.26776   0.27115   0.27808   0.29132
 Alpha virt. eigenvalues --    0.30201   0.30979   0.31617   0.31734   0.32374

 Mulliken charges:
               1
     1  C   -0.298256
     2  C   -0.299635
     3  C   -0.475714
     4  H    0.149663
     5  H    0.149603
     6  H    0.151863
     7  H    0.151972
     8  H    0.155219
     9  H    0.155190
    10  H    0.160287
    11  C   -0.298606
    12  C   -0.300042
    13  C   -0.478328
    14  H    0.149362
    15  H    0.149712
    16  H    0.151998
    17  H    0.151911
    18  H    0.155826
    19  H    0.154502
    20  H    0.164481
    21  C   -0.298040
    22  C   -0.299545
    23  C   -0.475641
    24  H    0.149260
    25  H    0.149468
    26  H    0.151679
    27  H    0.151878
    28  H    0.155118
    29  H    0.155064
    30  H    0.160062
    31  C   -0.297788
    32  C   -0.307466
    33  C   -0.476479
    34  H    0.148642
    35  H    0.148921
    36  H    0.163875
    37  H    0.150830
    38  H    0.154970
    39  H    0.154652
    40  H    0.159534
 Sum of Mulliken charges =  -0.00000

 Dipole moment (field-independent basis, Debye):
    X=              0.0484    Y=             -0.0068    Z=              0.0165  Tot=              0.0515
 Quadrupole moment (field-independent basis, Debye-Ang):
   XX=            -85.9058   YY=            -85.8799   ZZ=            -83.3287
   XY=             -0.3637   XZ=              0.0072   YZ=              0.5988

 Normal termination of Gaussian 16 at Wed May  5 23:11:30 2021.
