 Gaussian 16, Revision A.03,
 Gaussian 16:  EM64L-G16RevA.03 25-Dec-2016

 -------------
 #p 6-31g* mp2
 -------------

 ------------------------------------------------------
 Input file generated by CHIRIPA (05-May-2021 14:55:24)
 ------------------------------------------------------
 Symbolic Z-matrix:
 Charge =  0 Multiplicity = 1

                         Standard orientation:
 ---------------------------------------------------------------------
 Center     Atomic      Atomic             Coordinates (Angstroms)
 Number     Number       Type             X           Y           Z
 ---------------------------------------------------------------------
      1          6           0       -0.377679   -2.769199   -0.292025
      2          6           0       -0.314752   -2.062264    0.913298
      3          6           0       -1.133815   -0.949695    1.127480
      4          6           0       -2.008138   -0.570094    0.110253
      5          6           0       -2.094043   -1.253884   -1.101499
      6          6           0       -1.265559   -2.363469   -1.293810
      7          1           0        0.262248   -3.632310   -0.449912
      8          1           0        0.373835   -2.375081    1.693066
      9          1           0       -1.105578   -0.384279    2.051020
     10          1           0       -2.790492   -0.918041   -1.860173
     11          1           0       -1.316575   -2.910584   -2.230884
     12          7           0       -2.880231    0.606153    0.325421
     13          8           0       -3.642042    0.920309   -0.586493
     14          8           0       -2.785452    1.191667    1.401910
     15          6           0        1.918687    1.511724    0.186452
     16          6           0        1.547256    2.591408   -0.830558
     17          6           0        0.610989    3.652289   -0.251138
     18          1           0        1.001238    1.031884    0.553856
     19          1           0        2.393718    1.985439    1.056703
     20          1           0        1.074318    2.115655   -1.699238
     21          1           0        2.465707    3.068603   -1.195725
     22          1           0        1.078194    4.153455    0.602768
     23          1           0       -0.321102    3.195092    0.096394
     24          1           0        0.358347    4.414249   -0.995080
     25          6           0        2.854195    0.443997   -0.377915
     26          6           0        3.225626   -0.635686    0.639095
     27          6           0        4.161893   -1.696567    0.059675
     28          1           0        2.379165   -0.029717   -1.248166
     29          1           0        3.771644    0.923838   -0.745319
     30          1           0        2.307175   -1.112881    1.004262
     31          1           0        3.698564   -0.159933    1.507775
     32          1           0        5.093983   -1.239371   -0.287857
     33          1           0        3.694689   -2.197733   -0.794231
     34          1           0        4.414534   -2.458527    0.803617
 ---------------------------------------------------------------------

 SCF Done:  E(RHF) =  -669.534653517     A.U. after   15 cycles
 E2 =    -0.2095145535D+01 EUMP2 =    -0.67162979905194D+03

 The electronic state is 1-A.
 Alpha  occ. eigenvalues --  -20.60944 -20.60930 -15.85983 -11.31365 -11.27918
 Alpha  occ. eigenvalues --  -11.27915 -11.27661 -11.26937 -11.26925 -11.21982
 Alpha  occ. eigenvalues --  -11.21634 -11.21568 -11.21431 -11.21322 -11.20616
 Alpha  occ. eigenvalues --   -1.60007  -1.39559  -1.19544  -1.08932  -1.08538
 Alpha  occ. eigenvalues --   -1.04949  -1.03625  -0.96056  -0.95756  -0.87076
 Alpha  occ. eigenvalues --   -0.86338  -0.82593  -0.79729  -0.78341  -0.77622
 Alpha  occ. eigenvalues --   -0.72195  -0.71331  -0.70627  -0.65289  -0.65186
 Alpha  occ. eigenvalues --   -0.64895  -0.62296  -0.61017  -0.59483  -0.57658
 Alpha  occ. eigenvalues --   -0.55431  -0.55352  -0.53291  -0.53054  -0.52744
 Alpha  occ. eigenvalues --   -0.52458  -0.50001  -0.48964  -0.48953  -0.48015
 Alpha  occ. eigenvalues --   -0.46764  -0.45870  -0.45786  -0.44915  -0.43859
 Alpha  occ. eigenvalues --   -0.37484  -0.36432
 Alpha virt. eigenvalues --    0.04874   0.10946   0.16290   0.20604   0.22961
 Alpha virt. eigenvalues --    0.24065   0.25854   0.26733   0.27545   0.28416
 Alpha virt. eigenvalues --    0.28904   0.29778   0.31390   0.31746   0.32012

 Mulliken charges:
               1
     1  C   -0.171452
     2  C   -0.215844
     3  C   -0.173648
     4  C    0.159602
     5  C   -0.170799
     6  C   -0.218427
     7  H    0.227303
     8  H    0.225812
     9  H    0.277255
    10  H    0.276283
    11  H    0.224356
    12  N    0.487981
    13  O   -0.459064
    14  O   -0.460021
    15  C   -0.302952
    16  C   -0.300273
    17  C   -0.478210
    18  H    0.152111
    19  H    0.148997
    20  H    0.150616
    21  H    0.150484
    22  H    0.154207
    23  H    0.164187
    24  H    0.161016
    25  C   -0.296212
    26  C   -0.303761
    27  C   -0.475865
    28  H    0.148749
    29  H    0.150237
    30  H    0.147550
    31  H    0.152742
    32  H    0.158973
    33  H    0.150955
    34  H    0.157113
 Sum of Mulliken charges =  -0.00000

 Dipole moment (field-independent basis, Debye):
    X=              2.8935    Y=             -4.1226    Z=             -0.7696  Tot=              5.0951
 Quadrupole moment (field-independent basis, Debye-Ang):
   XX=           -107.0571   YY=            -90.8569   ZZ=            -90.9055
   XY=              7.9722   XZ=              4.3229   YZ=              0.6568

 Normal termination of Gaussian 16 at Thu May  6 09:30:04 2021.
