 Gaussian 16, Revision A.03,
 Gaussian 16:  EM64L-G16RevA.03 25-Dec-2016

 -------------
 #p 6-31g* mp2
 -------------

 ------------------------------------------------------
 Input file generated by CHIRIPA (05-May-2021 14:55:22)
 ------------------------------------------------------
 Symbolic Z-matrix:
 Charge =  0 Multiplicity = 1

                         Standard orientation:
 ---------------------------------------------------------------------
 Center     Atomic      Atomic             Coordinates (Angstroms)
 Number     Number       Type             X           Y           Z
 ---------------------------------------------------------------------
      1          6           0        4.304262    0.983821    1.564879
      2          6           0        3.222085    1.604954    0.932735
      3          6           0        2.421104    0.893882    0.034207
      4          6           0        2.732341   -0.442835   -0.209947
      5          6           0        3.803691   -1.089683    0.404127
      6          6           0        4.591106   -0.359148    1.299026
      7          1           0        4.921215    1.543758    2.261467
      8          1           0        2.996965    2.647799    1.137283
      9          1           0        1.577273    1.350038   -0.469072
     10          1           0        4.003301   -2.130526    0.180029
     11          1           0        5.430906   -0.844118    1.788501
     12          7           0        1.891559   -1.205917   -1.159257
     13          8           0        2.186698   -2.382483   -1.357307
     14          8           0        0.953335   -0.613007   -1.687302
     15          6           0       -2.952350    0.620531   -0.055860
     16          6           0       -2.834749    1.944395   -0.811862
     17          6           0       -1.383380    2.360545   -1.052987
     18          1           0       -2.429625    0.707484    0.906503
     19          1           0       -2.434134   -0.164955   -0.623188
     20          1           0       -3.354219    2.726864   -0.243961
     21          1           0       -3.357979    1.854341   -1.772454
     22          1           0       -0.857065    1.600534   -1.639482
     23          1           0       -0.853282    2.478014   -0.102305
     24          1           0       -1.322567    3.309518   -1.594847
     25          6           0       -4.397184    0.191166    0.192792
     26          6           0       -4.514786   -1.132697    0.948794
     27          6           0       -5.966154   -1.548847    1.189919
     28          1           0       -4.915400    0.976651    0.760119
     29          1           0       -4.919910    0.104212   -0.769570
     30          1           0       -3.991556   -1.042644    1.909386
     31          1           0       -3.995318   -1.915166    0.380893
     32          1           0       -6.496253   -1.666317    0.239237
     33          1           0       -6.492471   -0.788836    1.776415
     34          1           0       -6.026968   -2.497820    1.731780
 ---------------------------------------------------------------------

 SCF Done:  E(RHF) =  -669.536203284     A.U. after   15 cycles
 E2 =    -0.2091756024D+01 EUMP2 =    -0.67162795930791D+03

 The electronic state is 1-A.
 Alpha  occ. eigenvalues --  -20.60875 -20.60864 -15.85913 -11.31189 -11.27769
 Alpha  occ. eigenvalues --  -11.27707 -11.27506 -11.26771 -11.26748 -11.21215
 Alpha  occ. eigenvalues --  -11.21160 -11.20929 -11.20800 -11.20738 -11.20706
 Alpha  occ. eigenvalues --   -1.59936  -1.39493  -1.19364  -1.08779  -1.07969
 Alpha  occ. eigenvalues --   -1.04755  -1.03129  -0.95656  -0.95561  -0.86626
 Alpha  occ. eigenvalues --   -0.86154  -0.82464  -0.79215  -0.77792  -0.77483
 Alpha  occ. eigenvalues --   -0.72145  -0.71247  -0.70478  -0.65027  -0.64765
 Alpha  occ. eigenvalues --   -0.64586  -0.62112  -0.60518  -0.58949  -0.57195
 Alpha  occ. eigenvalues --   -0.55273  -0.54863  -0.53093  -0.52891  -0.52308
 Alpha  occ. eigenvalues --   -0.51973  -0.49562  -0.48884  -0.48860  -0.47495
 Alpha  occ. eigenvalues --   -0.46202  -0.45344  -0.45226  -0.44860  -0.43370
 Alpha  occ. eigenvalues --   -0.37351  -0.36355
 Alpha virt. eigenvalues --    0.05002   0.11287   0.16495   0.21064   0.23365
 Alpha virt. eigenvalues --    0.24525   0.26126   0.27081   0.27753   0.28143
 Alpha virt. eigenvalues --    0.29521   0.30787   0.31750   0.31794   0.32306

 Mulliken charges:
               1
     1  C   -0.170223
     2  C   -0.221673
     3  C   -0.175074
     4  C    0.156030
     5  C   -0.170252
     6  C   -0.219117
     7  H    0.225592
     8  H    0.223977
     9  H    0.287291
    10  H    0.275389
    11  H    0.223374
    12  N    0.492402
    13  O   -0.459612
    14  O   -0.466757
    15  C   -0.301786
    16  C   -0.297515
    17  C   -0.491812
    18  H    0.144568
    19  H    0.164280
    20  H    0.148110
    21  H    0.153894
    22  H    0.183104
    23  H    0.141808
    24  H    0.156677
    25  C   -0.298108
    26  C   -0.299895
    27  C   -0.475479
    28  H    0.146527
    29  H    0.150154
    30  H    0.149853
    31  H    0.155978
    32  H    0.155412
    33  H    0.153414
    34  H    0.159470
 Sum of Mulliken charges =  -0.00000

 Dipole moment (field-independent basis, Debye):
    X=              3.0349    Y=              2.5404    Z=              3.2100  Tot=              5.0960
 Quadrupole moment (field-independent basis, Debye-Ang):
   XX=            -78.7796   YY=            -94.5096   ZZ=            -96.0172
   XY=              3.3151   XZ=              9.8633   YZ=             -2.1487

 Normal termination of Gaussian 16 at Thu May  6 15:53:03 2021.
