 Gaussian 16, Revision A.03,
 Gaussian 16:  EM64L-G16RevA.03 25-Dec-2016

 -------------
 #p 6-31g* mp2
 -------------

 ------------------------------------------------------
 Input file generated by CHIRIPA (05-May-2021 14:55:22)
 ------------------------------------------------------
 Symbolic Z-matrix:
 Charge =  0 Multiplicity = 1

                         Standard orientation:
 ---------------------------------------------------------------------
 Center     Atomic      Atomic             Coordinates (Angstroms)
 Number     Number       Type             X           Y           Z
 ---------------------------------------------------------------------
      1          6           0        1.141440   -1.006304    2.303339
      2          6           0        1.814492    0.219872    2.307021
      3          6           0        2.404076    0.709701    1.137830
      4          6           0        2.300930   -0.056143   -0.022401
      5          6           0        1.637105   -1.281442   -0.058005
      6          6           0        1.055047   -1.751734    1.122919
      7          1           0        0.686360   -1.379226    3.216152
      8          1           0        1.883165    0.800924    3.222284
      9          1           0        2.931090    1.655762    1.112500
     10          1           0        1.585286   -1.838100   -0.985834
     11          1           0        0.532971   -2.704334    1.117106
     12          7           0        2.921113    0.452075   -1.266382
     13          8           0        2.816195   -0.241684   -2.275504
     14          8           0        3.500386    1.534552   -1.208737
     15          6           0       -2.508866    0.813882    0.061418
     16          6           0       -3.304596    2.078137   -0.264863
     17          6           0       -2.680907    3.339840    0.332558
     18          1           0       -2.434252    0.706564    1.152225
     19          1           0       -1.481966    0.928697   -0.312333
     20          1           0       -4.330073    1.960414    0.108169
     21          1           0       -3.377488    2.182355   -1.355020
     22          1           0       -1.664844    3.484845   -0.048480
     23          1           0       -2.622842    3.261643    1.423024
     24          1           0       -3.265813    4.231733    0.087050
     25          6           0       -3.119849   -0.455730   -0.528931
     26          6           0       -2.324118   -1.719985   -0.202650
     27          6           0       -2.947806   -2.981688   -0.800071
     28          1           0       -4.146748   -0.570544   -0.155181
     29          1           0       -3.194461   -0.348412   -1.619739
     30          1           0       -2.251227   -1.824202    0.887507
     31          1           0       -1.298641   -1.602262   -0.575683
     32          1           0       -3.005872   -2.903491   -1.890536
     33          1           0       -3.963870   -3.126692   -0.419034
     34          1           0       -2.362902   -3.873580   -0.554563
 ---------------------------------------------------------------------

 SCF Done:  E(RHF) =  -669.534597616     A.U. after   15 cycles
 E2 =    -0.2093564018D+01 EUMP2 =    -0.67162816163340D+03

 The electronic state is 1-A.
 Alpha  occ. eigenvalues --  -20.60810 -20.60804 -15.85862 -11.31234 -11.27758
 Alpha  occ. eigenvalues --  -11.27754 -11.27486 -11.26798 -11.26768 -11.22039
 Alpha  occ. eigenvalues --  -11.21738 -11.21678 -11.21570 -11.21564 -11.21191
 Alpha  occ. eigenvalues --   -1.59886  -1.39439  -1.19386  -1.08792  -1.08697
 Alpha  occ. eigenvalues --   -1.04795  -1.03832  -0.96274  -0.95618  -0.87290
 Alpha  occ. eigenvalues --   -0.86181  -0.82461  -0.79925  -0.78524  -0.77484
 Alpha  occ. eigenvalues --   -0.72078  -0.71211  -0.70484  -0.65355  -0.65025
 Alpha  occ. eigenvalues --   -0.64786  -0.62152  -0.61225  -0.59667  -0.57891
 Alpha  occ. eigenvalues --   -0.55546  -0.55276  -0.53239  -0.52917  -0.52866
 Alpha  occ. eigenvalues --   -0.52694  -0.50207  -0.48839  -0.48835  -0.48225
 Alpha  occ. eigenvalues --   -0.46952  -0.46043  -0.45954  -0.44842  -0.44075
 Alpha  occ. eigenvalues --   -0.37345  -0.36273
 Alpha virt. eigenvalues --    0.04993   0.11210   0.16437   0.20577   0.22754
 Alpha virt. eigenvalues --    0.23912   0.26088   0.26317   0.27179   0.28180
 Alpha virt. eigenvalues --    0.28671   0.30243   0.31028   0.31802   0.32110

 Mulliken charges:
               1
     1  C   -0.172501
     2  C   -0.217359
     3  C   -0.171918
     4  C    0.158152
     5  C   -0.174258
     6  C   -0.210889
     7  H    0.225361
     8  H    0.223590
     9  H    0.275564
    10  H    0.275354
    11  H    0.225970
    12  N    0.487878
    13  O   -0.460532
    14  O   -0.460189
    15  C   -0.298108
    16  C   -0.300101
    17  C   -0.475916
    18  H    0.145781
    19  H    0.152935
    20  H    0.151103
    21  H    0.154442
    22  H    0.157716
    23  H    0.152200
    24  H    0.161387
    25  C   -0.298557
    26  C   -0.302503
    27  C   -0.475993
    28  H    0.149231
    29  H    0.152827
    30  H    0.144398
    31  H    0.154641
    32  H    0.159344
    33  H    0.156900
    34  H    0.154049
 Sum of Mulliken charges =  -0.00000

 Dipole moment (field-independent basis, Debye):
    X=             -2.1821    Y=             -1.7304    Z=              4.3506  Tot=              5.1656
 Quadrupole moment (field-independent basis, Debye-Ang):
   XX=           -104.9642   YY=            -92.6248   ZZ=            -93.5887
   XY=             -2.9197   XZ=             10.7475   YZ=              1.5385

 Normal termination of Gaussian 16 at Wed May  5 23:53:03 2021.
