 Gaussian 16, Revision A.03,
 Gaussian 16:  EM64L-G16RevA.03 25-Dec-2016

 -------------
 #p 6-31g* mp2
 -------------

 ------------------------------------------------------
 Input file generated by CHIRIPA (05-May-2021 14:55:21)
 ------------------------------------------------------
 Symbolic Z-matrix:
 Charge =  0 Multiplicity = 1

                         Standard orientation:
 ---------------------------------------------------------------------
 Center     Atomic      Atomic             Coordinates (Angstroms)
 Number     Number       Type             X           Y           Z
 ---------------------------------------------------------------------
      1          6           0        4.613248    2.412887    0.223837
      2          6           0        5.417092    1.292383    0.457985
      3          6           0        4.904011    0.002815    0.289728
      4          6           0        3.576820   -0.130139   -0.115461
      5          6           0        2.750801    0.966603   -0.356580
      6          6           0        3.285009    2.246714   -0.181982
      7          1           0        5.020028    3.410982    0.357006
      8          1           0        6.448975    1.418419    0.773229
      9          1           0        5.504147   -0.881975    0.464086
     10          1           0        1.725906    0.809185   -0.669993
     11          1           0        2.658409    3.115096   -0.364549
     12          7           0        3.022461   -1.490341   -0.296943
     13          8           0        1.850050   -1.580644   -0.654624
     14          8           0        3.770862   -2.440409   -0.078072
     15          6           0       -5.158342    0.380111   -0.234765
     16          6           0       -6.574083    0.392883    0.342729
     17          6           0       -7.488641    1.399179   -0.356376
     18          1           0       -4.727163    1.387341   -0.154047
     19          1           0       -5.209453    0.147021   -1.307357
     20          1           0       -6.520209    0.624516    1.414204
     21          1           0       -7.001872   -0.614540    0.260800
     22          1           0       -7.572092    1.167555   -1.423140
     23          1           0       -7.087693    2.413653   -0.263184
     24          1           0       -8.495677    1.391691    0.072207
     25          6           0       -4.232213   -0.620850    0.453775
     26          6           0       -2.816472   -0.633622   -0.123720
     27          6           0       -1.901914   -1.639918    0.575385
     28          1           0       -4.181101   -0.387760    1.526366
     29          1           0       -4.663392   -1.628080    0.373057
     30          1           0       -2.388683    0.373801   -0.041791
     31          1           0       -2.870346   -0.865256   -1.195195
     32          1           0       -2.302862   -2.654391    0.482194
     33          1           0       -1.818463   -1.408294    1.642151
     34          1           0       -0.894879   -1.632431    0.146803
 ---------------------------------------------------------------------

 SCF Done:  E(RHF) =  -669.536166351     A.U. after   15 cycles
 E2 =    -0.2090723203D+01 EUMP2 =    -0.67162688955383D+03

 The electronic state is 1-A.
 Alpha  occ. eigenvalues --  -20.60926 -20.60912 -15.85961 -11.31274 -11.27838
 Alpha  occ. eigenvalues --  -11.27835 -11.27577 -11.26846 -11.26837 -11.21366
 Alpha  occ. eigenvalues --  -11.21084 -11.21018 -11.20917 -11.20902 -11.20018
 Alpha  occ. eigenvalues --   -1.59982  -1.39539  -1.19443  -1.08848  -1.08029
 Alpha  occ. eigenvalues --   -1.04840  -1.03056  -0.95695  -0.95473  -0.86487
 Alpha  occ. eigenvalues --   -0.86240  -0.82527  -0.79139  -0.77842  -0.77579
 Alpha  occ. eigenvalues --   -0.72189  -0.71295  -0.70554  -0.65101  -0.64843
 Alpha  occ. eigenvalues --   -0.64671  -0.62187  -0.60468  -0.58856  -0.57071
 Alpha  occ. eigenvalues --   -0.55345  -0.54782  -0.53172  -0.52932  -0.52108
 Alpha  occ. eigenvalues --   -0.51897  -0.49442  -0.48942  -0.48928  -0.47437
 Alpha  occ. eigenvalues --   -0.46205  -0.45378  -0.45312  -0.44951  -0.43264
 Alpha  occ. eigenvalues --   -0.37422  -0.36441
 Alpha virt. eigenvalues --    0.04928   0.11214   0.16404   0.21216   0.23206
 Alpha virt. eigenvalues --    0.24631   0.26899   0.27182   0.27666   0.28029
 Alpha virt. eigenvalues --    0.28885   0.30709   0.31781   0.31922   0.32232

 Mulliken charges:
               1
     1  C   -0.170612
     2  C   -0.218580
     3  C   -0.170790
     4  C    0.157950
     5  C   -0.170577
     6  C   -0.218601
     7  H    0.225928
     8  H    0.223750
     9  H    0.275822
    10  H    0.275972
    11  H    0.223848
    12  N    0.493056
    13  O   -0.465011
    14  O   -0.458693
    15  C   -0.297513
    16  C   -0.299270
    17  C   -0.475384
    18  H    0.146775
    19  H    0.149283
    20  H    0.151192
    21  H    0.152345
    22  H    0.155044
    23  H    0.153807
    24  H    0.159583
    25  C   -0.297375
    26  C   -0.298311
    27  C   -0.487578
    28  H    0.147862
    29  H    0.150189
    30  H    0.143715
    31  H    0.152235
    32  H    0.154219
    33  H    0.148968
    34  H    0.186749
 Sum of Mulliken charges =  -0.00000

 Dipole moment (field-independent basis, Debye):
    X=              2.2032    Y=              4.7194    Z=              0.6042  Tot=              5.2433
 Quadrupole moment (field-independent basis, Debye-Ang):
   XX=            -78.1082   YY=            -95.5529   ZZ=            -95.2436
   XY=             16.0324   XZ=              3.4793   YZ=             -0.3936

 Normal termination of Gaussian 16 at Wed May  5 20:36:27 2021.
