 Gaussian 16, Revision A.03,
 Gaussian 16:  EM64L-G16RevA.03 25-Dec-2016

 -------------
 #p 6-31g* mp2
 -------------

 ------------------------------------------------------
 Input file generated by CHIRIPA (05-May-2021 14:53:18)
 ------------------------------------------------------
 Symbolic Z-matrix:
 Charge =  0 Multiplicity = 1

                         Standard orientation:
 ---------------------------------------------------------------------
 Center     Atomic      Atomic             Coordinates (Angstroms)
 Number     Number       Type             X           Y           Z
 ---------------------------------------------------------------------
      1          6           0        3.208651    0.841047   -0.058180
      2          6           0        4.190094    2.007482   -0.177275
      3          6           0        3.488351    3.360642   -0.296902
      4          1           0        2.546686    0.836162   -0.934949
      5          1           0        2.565342    1.000269    0.818289
      6          1           0        4.832277    1.845417   -1.052461
      7          1           0        4.849924    2.009477    0.699787
      8          1           0        2.861389    3.548383    0.580750
      9          1           0        2.843642    3.383391   -1.181454
     10          1           0        4.208644    4.180387   -0.380907
     11          6           0        3.895091   -0.518379    0.062188
     12          6           0        2.913648   -1.684814    0.181283
     13          6           0        3.615390   -3.037973    0.300910
     14          1           0        4.538400   -0.677600   -0.814281
     15          1           0        4.557055   -0.513494    0.938957
     16          1           0        2.253818   -1.686808   -0.695779
     17          1           0        2.271464   -1.522749    1.056469
     18          1           0        4.260100   -3.060723    1.185462
     19          1           0        4.242353   -3.225715   -0.576742
     20          1           0        2.895097   -3.857718    0.384915
     21          6           0       -4.936041    1.167918    0.143536
     22          6           0       -3.724236    1.791637    0.458217
     23          6           0       -2.520713    1.084411    0.381336
     24          6           0       -2.565968   -0.251138   -0.015594
     25          6           0       -3.757286   -0.900493   -0.335574
     26          6           0       -4.948676   -0.173791   -0.251657
     27          1           0       -5.866254    1.724873    0.205992
     28          1           0       -3.711402    2.833512    0.765425
     29          1           0       -1.568427    1.542630    0.619253
     30          1           0       -3.738245   -1.940284   -0.638708
     31          1           0       -5.888297   -0.660763   -0.496640
     32          7           0       -1.298274   -1.010155   -0.100709
     33          8           0       -1.365021   -2.185764   -0.453025
     34          8           0       -0.261913   -0.415093    0.186507
 ---------------------------------------------------------------------

 SCF Done:  E(RHF) =  -669.535502664     A.U. after   15 cycles
 E2 =    -0.2092152192D+01 EUMP2 =    -0.67162765485509D+03

 The electronic state is 1-A.
 Alpha  occ. eigenvalues --  -20.60977 -20.60968 -15.86001 -11.31318 -11.27881
 Alpha  occ. eigenvalues --  -11.27876 -11.27616 -11.26885 -11.26875 -11.20694
 Alpha  occ. eigenvalues --  -11.20469 -11.20041 -11.19938 -11.19564 -11.19504
 Alpha  occ. eigenvalues --   -1.60038  -1.39594  -1.19486  -1.08893  -1.07076
 Alpha  occ. eigenvalues --   -1.04881  -1.02225  -0.95735  -0.94755  -0.86282
 Alpha  occ. eigenvalues --   -0.85789  -0.82574  -0.78301  -0.77631  -0.76749
 Alpha  occ. eigenvalues --   -0.72195  -0.71353  -0.70594  -0.65140  -0.64882
 Alpha  occ. eigenvalues --   -0.63735  -0.62227  -0.59643  -0.58161  -0.56304
 Alpha  occ. eigenvalues --   -0.55384  -0.54083  -0.53214  -0.52972  -0.51498
 Alpha  occ. eigenvalues --   -0.51178  -0.49068  -0.48982  -0.48757  -0.46542
 Alpha  occ. eigenvalues --   -0.45343  -0.45054  -0.44203  -0.44137  -0.42463
 Alpha  occ. eigenvalues --   -0.37465  -0.36482
 Alpha virt. eigenvalues --    0.04884   0.11173   0.16373   0.21278   0.24008
 Alpha virt. eigenvalues --    0.25501   0.27194   0.27748   0.28129   0.28900
 Alpha virt. eigenvalues --    0.29255   0.30987   0.32432   0.32567   0.32880

 Mulliken charges:
               1
     1  C   -0.293936
     2  C   -0.298979
     3  C   -0.473928
     4  H    0.153147
     5  H    0.152049
     6  H    0.149282
     7  H    0.148835
     8  H    0.151209
     9  H    0.153008
    10  H    0.156688
    11  C   -0.300199
    12  C   -0.292707
    13  C   -0.476820
    14  H    0.143038
    15  H    0.142554
    16  H    0.163542
    17  H    0.160383
    18  H    0.147411
    19  H    0.148381
    20  H    0.161392
    21  C   -0.170563
    22  C   -0.218558
    23  C   -0.170950
    24  C    0.157520
    25  C   -0.170636
    26  C   -0.218600
    27  H    0.226097
    28  H    0.224046
    29  H    0.276068
    30  H    0.275840
    31  H    0.223876
    32  N    0.490687
    33  O   -0.459373
    34  O   -0.459804
 Sum of Mulliken charges =  -0.00000

 Dipole moment (field-independent basis, Debye):
    X=             -4.9140    Y=              2.5995    Z=              0.2898  Tot=              5.5668
 Quadrupole moment (field-independent basis, Debye-Ang):
   XX=            -72.9822   YY=            -94.9738   ZZ=            -94.2225
   XY=             -3.1494   XZ=              0.0649   YZ=              1.6041

 Normal termination of Gaussian 16 at Thu May  6 15:39:01 2021.
