 Gaussian 16, Revision A.03,
 Gaussian 16:  EM64L-G16RevA.03 25-Dec-2016

 -------------
 #p 6-31g* mp2
 -------------

 ------------------------------------------------------
 Input file generated by CHIRIPA (05-May-2021 14:51:07)
 ------------------------------------------------------
 Symbolic Z-matrix:
 Charge =  0 Multiplicity = 1

                         Standard orientation:
 ---------------------------------------------------------------------
 Center     Atomic      Atomic             Coordinates (Angstroms)
 Number     Number       Type             X           Y           Z
 ---------------------------------------------------------------------
      1          6           0        2.614638   -0.845935    0.851623
      2          6           0        1.150835   -0.926632    1.286083
      3          6           0        0.919335   -1.952334    2.396100
      4          1           0        2.944757   -1.837082    0.511632
      5          1           0        3.234797   -0.591594    1.722317
      6          1           0        0.533463   -1.179386    0.414543
      7          1           0        0.824106    0.064866    1.624899
      8          1           0        1.510711   -1.700848    3.282458
      9          1           0        1.218416   -2.952170    2.065225
     10          1           0       -0.133745   -1.993569    2.691366
     11          6           0        2.861995    0.175121   -0.257425
     12          6           0        4.325798    0.255817   -0.691885
     13          6           0        4.557298    1.281519   -1.801902
     14          1           0        2.241836   -0.079221   -1.128119
     15          1           0        2.531876    1.166267    0.082566
     16          1           0        4.652527   -0.735680   -1.030701
     17          1           0        4.943170    0.508572    0.179655
     18          1           0        4.258217    2.281356   -1.471027
     19          1           0        3.965922    1.030034   -2.688260
     20          1           0        5.610378    1.322755   -2.097169
     21          6           0       -2.426279    0.812379    0.211391
     22          6           0       -2.895352    2.259062    0.053078
     23          6           0       -2.262341    3.201222    1.077493
     24          1           0       -2.663743    0.465618    1.226434
     25          1           0       -1.332124    0.776599    0.116837
     26          1           0       -3.988425    2.291910    0.146523
     27          1           0       -2.656916    2.602357   -0.961768
     28          1           0       -1.171760    3.198106    0.981443
     29          1           0       -2.510834    2.885896    2.096031
     30          1           0       -2.611542    4.230141    0.946175
     31          6           0       -3.050354   -0.141565   -0.805589
     32          6           0       -2.581281   -1.588248   -0.647276
     33          6           0       -3.214292   -2.530407   -1.671690
     34          1           0       -4.144509   -0.105785   -0.711035
     35          1           0       -2.812891    0.205196   -1.820632
     36          1           0       -2.819716   -1.931543    0.367570
     37          1           0       -1.488210   -1.621096   -0.740721
     38          1           0       -2.965799   -2.215081   -2.690229
     39          1           0       -4.304873   -2.527292   -1.575640
     40          1           0       -2.865092   -3.559327   -1.540372
 ---------------------------------------------------------------------

 SCF Done:  E(RHF) =  -470.732849306     A.U. after   11 cycles
 E2 =    -0.1583925382D+01 EUMP2 =    -0.47231677468759D+03

 The electronic state is 1-A.
 Alpha  occ. eigenvalues --  -11.21632 -11.21598 -11.21569 -11.21552 -11.21435
 Alpha  occ. eigenvalues --  -11.21368 -11.21361 -11.21279 -11.21099 -11.21079
 Alpha  occ. eigenvalues --  -11.21066 -11.21047  -1.08467  -1.08388  -1.03544
 Alpha  occ. eigenvalues --   -1.03512  -0.95988  -0.95963  -0.87005  -0.86982
 Alpha  occ. eigenvalues --   -0.79649  -0.79574  -0.78427  -0.78040  -0.65138
 Alpha  occ. eigenvalues --   -0.64992  -0.61041  -0.60827  -0.59388  -0.59302
 Alpha  occ. eigenvalues --   -0.57626  -0.57547  -0.55282  -0.55249  -0.52698
 Alpha  occ. eigenvalues --   -0.52647  -0.52425  -0.52381  -0.49976  -0.49877
 Alpha  occ. eigenvalues --   -0.48037  -0.47934  -0.46846  -0.46450  -0.46190
 Alpha  occ. eigenvalues --   -0.45736  -0.45683  -0.45111  -0.43789  -0.43755
 Alpha virt. eigenvalues --    0.21190   0.23290   0.23498   0.24195   0.25128
 Alpha virt. eigenvalues --    0.26392   0.26525   0.27949   0.28357   0.29727
 Alpha virt. eigenvalues --    0.30120   0.31403   0.31793   0.31982   0.32025

 Mulliken charges:
               1
     1  C   -0.297551
     2  C   -0.308454
     3  C   -0.475403
     4  H    0.149422
     5  H    0.149521
     6  H    0.159324
     7  H    0.153831
     8  H    0.154915
     9  H    0.154737
    10  H    0.160887
    11  C   -0.298475
    12  C   -0.299521
    13  C   -0.475753
    14  H    0.148481
    15  H    0.149181
    16  H    0.152098
    17  H    0.152204
    18  H    0.155178
    19  H    0.155048
    20  H    0.160432
    21  C   -0.303437
    22  C   -0.299420
    23  C   -0.475710
    24  H    0.148720
    25  H    0.157120
    26  H    0.151645
    27  H    0.151773
    28  H    0.154648
    29  H    0.155033
    30  H    0.160250
    31  C   -0.298064
    32  C   -0.305294
    33  C   -0.475195
    34  H    0.149338
    35  H    0.149162
    36  H    0.151895
    37  H    0.157068
    38  H    0.154938
    39  H    0.155328
    40  H    0.160100
 Sum of Mulliken charges =  -0.00000

 Dipole moment (field-independent basis, Debye):
    X=              0.0135    Y=             -0.0098    Z=              0.0058  Tot=              0.0176
 Quadrupole moment (field-independent basis, Debye-Ang):
   XX=            -84.4933   YY=            -85.4201   ZZ=            -84.9822
   XY=             -0.2391   XZ=             -0.3923   YZ=              0.4075

 Normal termination of Gaussian 16 at Wed May  5 19:39:54 2021.
