 Gaussian 16, Revision A.03,
 Gaussian 16:  EM64L-G16RevA.03 25-Dec-2016

 -------------
 #p 6-31g* mp2
 -------------

 ------------------------------------------------------
 Input file generated by CHIRIPA (05-May-2021 14:55:21)
 ------------------------------------------------------
 Symbolic Z-matrix:
 Charge =  0 Multiplicity = 1

                         Standard orientation:
 ---------------------------------------------------------------------
 Center     Atomic      Atomic             Coordinates (Angstroms)
 Number     Number       Type             X           Y           Z
 ---------------------------------------------------------------------
      1          6           0       -0.477493   -1.035474   -0.061250
      2          6           0       -1.494542   -1.959621    0.199683
      3          6           0       -2.832893   -1.555902    0.219074
      4          6           0       -3.119594   -0.214211   -0.027821
      5          6           0       -2.128692    0.730353   -0.290881
      6          6           0       -0.797250    0.304201   -0.305268
      7          1           0        0.559486   -1.357806   -0.074370
      8          1           0       -1.249163   -3.000673    0.389540
      9          1           0       -3.640030   -2.250333    0.418356
     10          1           0       -2.404367    1.761363   -0.476463
     11          1           0       -0.009470    1.024108   -0.508198
     12          7           0       -4.532789    0.225063   -0.009941
     13          8           0       -4.759143    1.412804   -0.230560
     14          8           0       -5.387338   -0.626693    0.224355
     15          6           0        4.277227   -0.119470   -0.049365
     16          6           0        3.856201   -1.587933    0.016497
     17          6           0        5.032078   -2.548650   -0.162746
     18          1           0        4.765507    0.072438   -1.014611
     19          1           0        5.031247    0.073695    0.726222
     20          1           0        3.102185   -1.777936   -0.758083
     21          1           0        3.368695   -1.776320    0.981621
     22          1           0        5.783216   -2.387941    0.617361
     23          1           0        5.515191   -2.389566   -1.132228
     24          1           0        4.708556   -3.592987   -0.112214
     25          6           0        3.112681    0.853186    0.128131
     26          6           0        3.533707    2.321650    0.062268
     27          6           0        2.357830    3.282368    0.241511
     28          1           0        2.358662    0.660023   -0.647457
     29          1           0        2.624402    0.661280    1.093377
     30          1           0        4.021213    2.510038   -0.902856
     31          1           0        4.287724    2.511654    0.836849
     32          1           0        1.874717    3.123284    1.210994
     33          1           0        1.606693    3.121658   -0.538595
     34          1           0        2.681352    4.326704    0.190980
 ---------------------------------------------------------------------

 SCF Done:  E(RHF) =  -669.535161269     A.U. after   15 cycles
 E2 =    -0.2092974697D+01 EUMP2 =    -0.67162813596599D+03

 The electronic state is 1-A.
 Alpha  occ. eigenvalues --  -20.60653 -20.60648 -15.85704 -11.31034 -11.27606
 Alpha  occ. eigenvalues --  -11.27586 -11.27264 -11.26604 -11.26524 -11.22880
 Alpha  occ. eigenvalues --  -11.22744 -11.22661 -11.22522 -11.22155 -11.22052
 Alpha  occ. eigenvalues --   -1.59730  -1.39284  -1.19196  -1.09650  -1.08588
 Alpha  occ. eigenvalues --   -1.04679  -1.04584  -0.97099  -0.95435  -0.88113
 Alpha  occ. eigenvalues --   -0.86001  -0.82275  -0.80746  -0.79540  -0.77323
 Alpha  occ. eigenvalues --   -0.71923  -0.71053  -0.70288  -0.66286  -0.64842
 Alpha  occ. eigenvalues --   -0.64599  -0.62126  -0.61888  -0.60460  -0.58730
 Alpha  occ. eigenvalues --   -0.56378  -0.55087  -0.53747  -0.53534  -0.52929
 Alpha  occ. eigenvalues --   -0.52710  -0.51035  -0.49052  -0.48681  -0.48662
 Alpha  occ. eigenvalues --   -0.47761  -0.46960  -0.46927  -0.44931  -0.44698
 Alpha  occ. eigenvalues --   -0.37165  -0.36204
 Alpha virt. eigenvalues --    0.05195   0.11411   0.16679   0.19485   0.21839
 Alpha virt. eigenvalues --    0.22576   0.25122   0.25285   0.26127   0.28248
 Alpha virt. eigenvalues --    0.29639   0.30070   0.30828   0.31467   0.31760

 Mulliken charges:
               1
     1  C   -0.180048
     2  C   -0.220375
     3  C   -0.171159
     4  C    0.158426
     5  C   -0.172649
     6  C   -0.227915
     7  H    0.236157
     8  H    0.222904
     9  H    0.274853
    10  H    0.275182
    11  H    0.234056
    12  N    0.487996
    13  O   -0.460804
    14  O   -0.460987
    15  C   -0.297267
    16  C   -0.306355
    17  C   -0.475565
    18  H    0.153665
    19  H    0.154673
    20  H    0.147798
    21  H    0.151702
    22  H    0.158927
    23  H    0.158492
    24  H    0.161907
    25  C   -0.306914
    26  C   -0.300202
    27  C   -0.480076
    28  H    0.142740
    29  H    0.152508
    30  H    0.155545
    31  H    0.156962
    32  H    0.158745
    33  H    0.149636
    34  H    0.167442
 Sum of Mulliken charges =  -0.00000

 Dipole moment (field-independent basis, Debye):
    X=              5.3934    Y=             -1.4573    Z=             -0.0045  Tot=              5.5868
 Quadrupole moment (field-independent basis, Debye-Ang):
   XX=           -125.1232   YY=            -89.9032   ZZ=            -94.3547
   XY=              6.1027   XZ=              0.0685   YZ=             -1.0705

 Normal termination of Gaussian 16 at Wed May  5 15:54:35 2021.
