 Gaussian 16, Revision A.03,
 Gaussian 16:  EM64L-G16RevA.03 25-Dec-2016

 -------------
 #p 6-31g* mp2
 -------------

 ------------------------------------------------------
 Input file generated by CHIRIPA (05-May-2021 14:57:21)
 ------------------------------------------------------
 Symbolic Z-matrix:
 Charge =  0 Multiplicity = 1

                         Standard orientation:
 ---------------------------------------------------------------------
 Center     Atomic      Atomic             Coordinates (Angstroms)
 Number     Number       Type             X           Y           Z
 ---------------------------------------------------------------------
      1          6           0       -2.378212    2.456632    0.770604
      2          6           0       -3.674591    2.090143    0.394293
      3          6           0       -3.939148    0.801207   -0.078150
      4          6           0       -2.878897   -0.099999   -0.161728
      5          6           0       -1.576537    0.235070    0.205528
      6          6           0       -1.335162    1.529560    0.675188
      7          1           0       -2.181702    3.460066    1.136528
      8          1           0       -4.486583    2.808042    0.467332
      9          1           0       -4.933279    0.490947   -0.376245
     10          1           0       -0.787601   -0.502455    0.121526
     11          1           0       -0.327383    1.811399    0.966726
     12          7           0       -3.146700   -1.467478   -0.660410
     13          8           0       -2.195311   -2.242963   -0.724591
     14          8           0       -4.302923   -1.737929   -0.977652
     15          6           0        2.158968   -2.034024    1.584963
     16          6           0        2.743450   -2.296357    0.341546
     17          6           0        3.121830   -1.246652   -0.500768
     18          6           0        2.900092    0.059143   -0.065999
     19          6           0        2.319980    0.352773    1.167103
     20          6           0        1.949468   -0.712626    1.993053
     21          1           0        1.868090   -2.855557    2.232936
     22          1           0        2.907354   -3.321578    0.022012
     23          1           0        3.576276   -1.421274   -1.468448
     24          1           0        2.169269    1.385238    1.458169
     25          1           0        1.495757   -0.505912    2.958175
     26          7           0        3.296501    1.178727   -0.949058
     27          8           0        3.090448    2.320289   -0.542840
     28          8           0        3.805754    0.893493   -2.030696
 ---------------------------------------------------------------------

 SCF Done:  E(RHF) =  -868.338292706     A.U. after   16 cycles
 E2 =    -0.2601372579D+01 EUMP2 =    -0.87093966528529D+03

 The electronic state is 1-A.
 Alpha  occ. eigenvalues --  -20.61342 -20.61305 -20.60900 -20.60882 -15.86380
 Alpha  occ. eigenvalues --  -15.85944 -11.31809 -11.31210 -11.28458 -11.28254
 Alpha  occ. eigenvalues --  -11.27994 -11.27786 -11.27732 -11.27501 -11.27420
 Alpha  occ. eigenvalues --  -11.27245 -11.26772 -11.26752  -1.60398  -1.59970
 Alpha  occ. eigenvalues --   -1.39952  -1.39526  -1.19968  -1.19381  -1.09312
 Alpha  occ. eigenvalues --   -1.08794  -1.05379  -1.04763  -0.96150  -0.95641
 Alpha  occ. eigenvalues --   -0.86741  -0.86172  -0.82981  -0.82479  -0.78058
 Alpha  occ. eigenvalues --   -0.77536  -0.72590  -0.72168  -0.71725  -0.71291
 Alpha  occ. eigenvalues --   -0.71012  -0.70481  -0.65591  -0.65349  -0.65034
 Alpha  occ. eigenvalues --   -0.64770  -0.62737  -0.62098  -0.55775  -0.55289
 Alpha  occ. eigenvalues --   -0.53648  -0.53445  -0.53109  -0.52823  -0.49362
 Alpha  occ. eigenvalues --   -0.49339  -0.48923  -0.48914  -0.45343  -0.44954
 Alpha  occ. eigenvalues --   -0.37895  -0.37359  -0.36987  -0.36349
 Alpha virt. eigenvalues --    0.04448   0.04985   0.10599   0.11279   0.15939
 Alpha virt. eigenvalues --    0.16539   0.20042   0.21922   0.25418   0.27434
 Alpha virt. eigenvalues --    0.28049   0.28698   0.30160   0.31220   0.31974

 Mulliken charges:
               1
     1  C   -0.170618
     2  C   -0.218853
     3  C   -0.170635
     4  C    0.158470
     5  C   -0.176598
     6  C   -0.220436
     7  H    0.227471
     8  H    0.223814
     9  H    0.275341
    10  H    0.278286
    11  H    0.222176
    12  N    0.488258
    13  O   -0.463333
    14  O   -0.460133
    15  C   -0.169367
    16  C   -0.214340
    17  C   -0.169866
    18  C    0.159800
    19  C   -0.183940
    20  C   -0.221931
    21  H    0.231891
    22  H    0.230250
    23  H    0.279363
    24  H    0.270325
    25  H    0.225695
    26  N    0.488794
    27  O   -0.464468
    28  O   -0.455415
 Sum of Mulliken charges =  -0.00000

 Dipole moment (field-independent basis, Debye):
    X=             -0.2404    Y=              0.6291    Z=              4.7942  Tot=              4.8413
 Quadrupole moment (field-independent basis, Debye-Ang):
   XX=           -113.3178   YY=           -104.1950   ZZ=           -104.4386
   XY=            -29.1152   XZ=              3.1067   YZ=              1.6513

 Normal termination of Gaussian 16 at Thu May  6 01:42:27 2021.
