 Gaussian 16, Revision A.03,
 Gaussian 16:  EM64L-G16RevA.03 25-Dec-2016

 -------------
 #p 6-31g* mp2
 -------------

 ------------------------------------------------------
 Input file generated by CHIRIPA (05-May-2021 14:51:08)
 ------------------------------------------------------
 Symbolic Z-matrix:
 Charge =  0 Multiplicity = 1

                         Standard orientation:
 ---------------------------------------------------------------------
 Center     Atomic      Atomic             Coordinates (Angstroms)
 Number     Number       Type             X           Y           Z
 ---------------------------------------------------------------------
      1          6           0       -2.279517    0.234308    1.080270
      2          6           0       -1.301217   -0.684574    1.812779
      3          6           0       -0.679136   -0.024655    3.043760
      4          1           0       -1.755947    1.152485    0.780653
      5          1           0       -3.074374    0.540131    1.774583
      6          1           0       -0.509201   -0.989683    1.116909
      7          1           0       -1.827129   -1.600753    2.110518
      8          1           0       -1.455436    0.264524    3.759536
      9          1           0       -0.130020    0.879066    2.760281
     10          1           0        0.016907   -0.699082    3.552221
     11          6           0       -2.909650   -0.411268   -0.152569
     12          6           0       -3.887950    0.507614   -0.885078
     13          6           0       -4.510031   -0.152305   -2.116060
     14          1           0       -2.114794   -0.717091   -0.846883
     15          1           0       -3.433220   -1.329445    0.147047
     16          1           0       -3.362038    1.423793   -1.182818
     17          1           0       -4.679966    0.812724   -0.189208
     18          1           0       -5.059148   -1.056026   -1.832580
     19          1           0       -3.733732   -0.441484   -2.831835
     20          1           0       -5.206074    0.522122   -2.624521
     21          6           0        2.184700    0.729354   -0.395237
     22          6           0        3.032914    2.000391   -0.449863
     23          6           0        2.198681    3.274217   -0.311242
     24          1           0        1.431044    0.764505   -1.193806
     25          1           0        1.632777    0.705754    0.554615
     26          1           0        3.584135    2.020903   -1.398731
     27          1           0        3.784762    1.962122    0.348807
     28          1           0        1.660392    3.280350    0.642073
     29          1           0        1.458626    3.339464   -1.115396
     30          1           0        2.824976    4.170805   -0.352986
     31          6           0        3.004467   -0.552394   -0.532464
     32          6           0        2.156253   -1.823431   -0.477837
     33          6           0        2.990487   -3.097257   -0.616458
     34          1           0        3.556390   -0.528794   -1.482315
     35          1           0        3.758123   -0.587545    0.266105
     36          1           0        1.404405   -1.785163   -1.276509
     37          1           0        1.605032   -1.843943    0.471031
     38          1           0        3.730542   -3.162506    0.187695
     39          1           0        3.528775   -3.103390   -1.569774
     40          1           0        2.364191   -3.993845   -0.574713
 ---------------------------------------------------------------------

 SCF Done:  E(RHF) =  -470.733120027     A.U. after   11 cycles
 E2 =    -0.1584086531D+01 EUMP2 =    -0.47231720655803D+03

 The electronic state is 1-A.
 Alpha  occ. eigenvalues --  -11.21660 -11.21652 -11.21576 -11.21513 -11.21468
 Alpha  occ. eigenvalues --  -11.21408 -11.21361 -11.21299 -11.21137 -11.21109
 Alpha  occ. eigenvalues --  -11.21098 -11.21058  -1.08507  -1.08382  -1.03591
 Alpha  occ. eigenvalues --   -1.03507  -0.96036  -0.95964  -0.87054  -0.86977
 Alpha  occ. eigenvalues --   -0.79711  -0.79529  -0.78368  -0.78152  -0.65233
 Alpha  occ. eigenvalues --   -0.64933  -0.61008  -0.60898  -0.59441  -0.59296
 Alpha  occ. eigenvalues --   -0.57649  -0.57569  -0.55360  -0.55220  -0.52733
 Alpha  occ. eigenvalues --   -0.52658  -0.52462  -0.52389  -0.50020  -0.49876
 Alpha  occ. eigenvalues --   -0.48100  -0.47860  -0.46858  -0.46482  -0.46065
 Alpha  occ. eigenvalues --   -0.45788  -0.45690  -0.45271  -0.43840  -0.43752
 Alpha virt. eigenvalues --    0.20062   0.23176   0.23435   0.23825   0.25508
 Alpha virt. eigenvalues --    0.26285   0.27134   0.28023   0.28600   0.29523
 Alpha virt. eigenvalues --    0.29955   0.31480   0.31675   0.31933   0.32429

 Mulliken charges:
               1
     1  C   -0.297941
     2  C   -0.309411
     3  C   -0.477384
     4  H    0.150402
     5  H    0.149066
     6  H    0.162301
     7  H    0.151513
     8  H    0.155716
     9  H    0.155200
    10  H    0.159512
    11  C   -0.298564
    12  C   -0.299680
    13  C   -0.475632
    14  H    0.149810
    15  H    0.149448
    16  H    0.151950
    17  H    0.151903
    18  H    0.155161
    19  H    0.154882
    20  H    0.160170
    21  C   -0.304268
    22  C   -0.299549
    23  C   -0.475939
    24  H    0.148989
    25  H    0.155510
    26  H    0.152264
    27  H    0.152345
    28  H    0.154779
    29  H    0.155038
    30  H    0.160801
    31  C   -0.297852
    32  C   -0.305757
    33  C   -0.475202
    34  H    0.149761
    35  H    0.149872
    36  H    0.151374
    37  H    0.158199
    38  H    0.155301
    39  H    0.155265
    40  H    0.160650
 Sum of Mulliken charges =  -0.00000

 Dipole moment (field-independent basis, Debye):
    X=              0.0407    Y=             -0.0103    Z=             -0.0088  Tot=              0.0429
 Quadrupole moment (field-independent basis, Debye-Ang):
   XX=            -84.6596   YY=            -85.7590   ZZ=            -84.3364
   XY=              0.5513   XZ=             -0.7608   YZ=             -0.6535

 Normal termination of Gaussian 16 at Thu May  6 05:15:54 2021.
