 Gaussian 16, Revision A.03,
 Gaussian 16:  EM64L-G16RevA.03 25-Dec-2016

 -------------
 #p 6-31g* mp2
 -------------

 ------------------------------------------------------
 Input file generated by CHIRIPA (05-May-2021 14:51:14)
 ------------------------------------------------------
 Symbolic Z-matrix:
 Charge =  0 Multiplicity = 1

                         Standard orientation:
 ---------------------------------------------------------------------
 Center     Atomic      Atomic             Coordinates (Angstroms)
 Number     Number       Type             X           Y           Z
 ---------------------------------------------------------------------
      1          6           0       -3.276438   -0.628385   -0.685238
      2          6           0       -2.085775   -1.570644   -0.505084
      3          6           0       -2.274381   -2.906006   -1.225521
      4          1           0       -4.185482   -1.121471   -0.314496
      5          1           0       -3.433708   -0.448435   -1.757749
      6          1           0       -1.929938   -1.747664    0.566828
      7          1           0       -1.179428   -1.075183   -0.876122
      8          1           0       -2.407506   -2.748236   -2.300690
      9          1           0       -3.162281   -3.424537   -0.849541
     10          1           0       -1.411544   -3.564181   -1.083480
     11          6           0       -3.102785    0.710718    0.029166
     12          6           0       -4.293448    1.652977   -0.150989
     13          6           0       -4.104841    2.988339    0.569449
     14          1           0       -2.945515    0.530768    1.101676
     15          1           0       -2.193740    1.203804   -0.341576
     16          1           0       -5.199795    1.157516    0.220049
     17          1           0       -4.449285    1.829997   -1.222901
     18          1           0       -3.216942    3.506870    0.193469
     19          1           0       -3.971716    2.830569    1.644617
     20          1           0       -4.967679    3.646514    0.427407
     21          6           0        2.594121   -0.059753    0.806030
     22          6           0        1.989683   -1.454921    0.967725
     23          6           0        0.799283   -1.475892    1.927049
     24          1           0        2.908155    0.313201    1.790526
     25          1           0        1.818060    0.628743    0.443957
     26          1           0        2.767002   -2.140884    1.328065
     27          1           0        1.677225   -1.824676   -0.017298
     28          1           0        0.004198   -0.813940    1.568914
     29          1           0        1.100167   -1.131945    2.921921
     30          1           0        0.382620   -2.482911    2.027871
     31          6           0        3.785102   -0.022580   -0.149957
     32          6           0        4.389540    1.372589   -0.311651
     33          6           0        5.579940    1.393559   -1.270976
     34          1           0        4.561163   -0.711077    0.212116
     35          1           0        3.471068   -0.395534   -1.134453
     36          1           0        4.701997    1.742343    0.673370
     37          1           0        3.612221    2.058552   -0.671993
     38          1           0        5.279056    1.049612   -2.265848
     39          1           0        6.375024    0.731607   -0.912842
     40          1           0        5.996603    2.400578   -1.371798
 ---------------------------------------------------------------------

 SCF Done:  E(RHF) =  -470.732512156     A.U. after   11 cycles
 E2 =    -0.1583488808D+01 EUMP2 =    -0.47231600096354D+03

 The electronic state is 1-A.
 Alpha  occ. eigenvalues --  -11.21628 -11.21599 -11.21561 -11.21549 -11.21434
 Alpha  occ. eigenvalues --  -11.21391 -11.21363 -11.21331 -11.21088 -11.21073
 Alpha  occ. eigenvalues --  -11.21070 -11.20936  -1.08463  -1.08398  -1.03579
 Alpha  occ. eigenvalues --   -1.03462  -0.96008  -0.95935  -0.87041  -0.86942
 Alpha  occ. eigenvalues --   -0.79695  -0.79497  -0.78297  -0.78196  -0.65082
 Alpha  occ. eigenvalues --   -0.65045  -0.60967  -0.60915  -0.59400  -0.59269
 Alpha  occ. eigenvalues --   -0.57640  -0.57521  -0.55292  -0.55234  -0.52705
 Alpha  occ. eigenvalues --   -0.52635  -0.52448  -0.52339  -0.50025  -0.49867
 Alpha  occ. eigenvalues --   -0.47995  -0.47780  -0.46790  -0.46497  -0.45882
 Alpha  occ. eigenvalues --   -0.45757  -0.45700  -0.45462  -0.43799  -0.43745
 Alpha virt. eigenvalues --    0.21003   0.23148   0.23577   0.24749   0.25738
 Alpha virt. eigenvalues --    0.25971   0.26789   0.27846   0.28151   0.29220
 Alpha virt. eigenvalues --    0.30673   0.31172   0.31615   0.31923   0.32374

 Mulliken charges:
               1
     1  C   -0.297943
     2  C   -0.304270
     3  C   -0.475980
     4  H    0.149655
     5  H    0.149147
     6  H    0.158925
     7  H    0.151662
     8  H    0.154838
     9  H    0.155166
    10  H    0.160279
    11  C   -0.299561
    12  C   -0.299517
    13  C   -0.475766
    14  H    0.150163
    15  H    0.148833
    16  H    0.152181
    17  H    0.152059
    18  H    0.155099
    19  H    0.155399
    20  H    0.160363
    21  C   -0.298685
    22  C   -0.300643
    23  C   -0.478876
    24  H    0.149776
    25  H    0.149388
    26  H    0.151668
    27  H    0.152427
    28  H    0.161965
    29  H    0.153712
    30  H    0.158869
    31  C   -0.298270
    32  C   -0.299592
    33  C   -0.475688
    34  H    0.149578
    35  H    0.149376
    36  H    0.152015
    37  H    0.151709
    38  H    0.155091
    39  H    0.155221
    40  H    0.160226
 Sum of Mulliken charges =  -0.00000

 Dipole moment (field-independent basis, Debye):
    X=             -0.0333    Y=             -0.0010    Z=              0.0113  Tot=              0.0351
 Quadrupole moment (field-independent basis, Debye-Ang):
   XX=            -84.9600   YY=            -85.6918   ZZ=            -84.1973
   XY=             -0.0576   XZ=              0.6386   YZ=             -0.8355

 Normal termination of Gaussian 16 at Wed May  5 23:14:44 2021.
