 Gaussian 16, Revision A.03,
 Gaussian 16:  EM64L-G16RevA.03 25-Dec-2016

 -------------
 #p 6-31g* mp2
 -------------

 ------------------------------------------------------
 Input file generated by CHIRIPA (05-May-2021 14:53:14)
 ------------------------------------------------------
 Symbolic Z-matrix:
 Charge =  0 Multiplicity = 1

                         Standard orientation:
 ---------------------------------------------------------------------
 Center     Atomic      Atomic             Coordinates (Angstroms)
 Number     Number       Type             X           Y           Z
 ---------------------------------------------------------------------
      1          6           0       -3.994020    0.596609    0.307084
      2          6           0       -2.765414    0.961052   -0.526999
      3          6           0       -1.902298    2.037905    0.131188
      4          1           0       -4.596606    1.499798    0.474670
      5          1           0       -3.666819    0.250947    1.297464
      6          1           0       -3.094773    1.304613   -1.515991
      7          1           0       -2.165782    0.056854   -0.692781
      8          1           0       -1.545592    1.700824    1.109829
      9          1           0       -2.479861    2.955672    0.281941
     10          1           0       -1.029527    2.283168   -0.481982
     11          6           0       -4.866801   -0.478638   -0.337761
     12          6           0       -6.095407   -0.843081    0.496322
     13          6           0       -6.958523   -1.919935   -0.161865
     14          1           0       -5.194002   -0.132976   -1.328141
     15          1           0       -4.264215   -1.381827   -0.505347
     16          1           0       -6.695038    0.061117    0.662104
     17          1           0       -5.766048   -1.186642    1.485314
     18          1           0       -6.380960   -2.837701   -0.312619
     19          1           0       -7.315229   -1.582853   -1.140506
     20          1           0       -7.831294   -2.165197    0.451305
     21          6           0        5.561651   -1.444031    0.008405
     22          6           0        4.963034   -1.083152    1.219993
     23          6           0        3.799081   -0.308837    1.233972
     24          6           0        3.258200    0.089066    0.012330
     25          6           0        3.831167   -0.254369   -1.211211
     26          6           0        4.994807   -1.029218   -1.201197
     27          1           0        6.465717   -2.045744    0.006864
     28          1           0        5.401045   -1.403878    2.160911
     29          1           0        3.314960   -0.015237    2.157468
     30          1           0        3.371263    0.080340   -2.133099
     31          1           0        5.457531   -1.307989   -2.143650
     32          7           0        2.026141    0.909082    0.014428
     33          8           0        1.569273    1.246977   -1.075404
     34          8           0        1.540649    1.198387    1.105867
 ---------------------------------------------------------------------

 SCF Done:  E(RHF) =  -669.536365001     A.U. after   15 cycles
 E2 =    -0.2091684231D+01 EUMP2 =    -0.67162804923228D+03

 The electronic state is 1-A.
 Alpha  occ. eigenvalues --  -20.61046 -20.61032 -15.86049 -11.31351 -11.27906
 Alpha  occ. eigenvalues --  -11.27903 -11.27638 -11.26906 -11.26896 -11.20920
 Alpha  occ. eigenvalues --  -11.20532 -11.20514 -11.20228 -11.20057 -11.18821
 Alpha  occ. eigenvalues --   -1.60080  -1.39638  -1.19512  -1.08921  -1.07382
 Alpha  occ. eigenvalues --   -1.04904  -1.02334  -0.95770  -0.94744  -0.86305
 Alpha  occ. eigenvalues --   -0.85763  -0.82600  -0.78470  -0.77658  -0.77120
 Alpha  occ. eigenvalues --   -0.72261  -0.71389  -0.70620  -0.65167  -0.64907
 Alpha  occ. eigenvalues --   -0.64032  -0.62250  -0.59751  -0.58238  -0.56336
 Alpha  occ. eigenvalues --   -0.55406  -0.54068  -0.53236  -0.52994  -0.51450
 Alpha  occ. eigenvalues --   -0.51195  -0.49121  -0.48983  -0.48549  -0.46724
 Alpha  occ. eigenvalues --   -0.45547  -0.45053  -0.44656  -0.44544  -0.42529
 Alpha  occ. eigenvalues --   -0.37490  -0.36503
 Alpha virt. eigenvalues --    0.04867   0.11153   0.16372   0.21291   0.23800
 Alpha virt. eigenvalues --    0.25619   0.27213   0.27613   0.28175   0.28453
 Alpha virt. eigenvalues --    0.29399   0.30876   0.32361   0.32527   0.32671

 Mulliken charges:
               1
     1  C   -0.297016
     2  C   -0.298158
     3  C   -0.482047
     4  H    0.146953
     5  H    0.147698
     6  H    0.146231
     7  H    0.149448
     8  H    0.160617
     9  H    0.141594
    10  H    0.185072
    11  C   -0.296942
    12  C   -0.298690
    13  C   -0.474998
    14  H    0.147770
    15  H    0.147291
    16  H    0.151011
    17  H    0.150629
    18  H    0.153697
    19  H    0.154276
    20  H    0.157980
    21  C   -0.170480
    22  C   -0.218590
    23  C   -0.170803
    24  C    0.158832
    25  C   -0.170676
    26  C   -0.218568
    27  H    0.226197
    28  H    0.224016
    29  H    0.275903
    30  H    0.275976
    31  H    0.224038
    32  N    0.488857
    33  O   -0.459376
    34  O   -0.457742
 Sum of Mulliken charges =  -0.00000

 Dipole moment (field-independent basis, Debye):
    X=              4.8322    Y=             -2.8497    Z=              0.0007  Tot=              5.6100
 Quadrupole moment (field-independent basis, Debye-Ang):
   XX=            -68.8440   YY=            -96.3470   ZZ=            -89.6462
   XY=            -10.2936   XZ=             -0.0385   YZ=             -0.8329

 Normal termination of Gaussian 16 at Thu May  6 10:31:10 2021.
