 Gaussian 16, Revision A.03,
 Gaussian 16:  EM64L-G16RevA.03 25-Dec-2016

 -------------
 #p 6-31g* mp2
 -------------

 ------------------------------------------------------
 Input file generated by CHIRIPA (05-May-2021 14:55:20)
 ------------------------------------------------------
 Symbolic Z-matrix:
 Charge =  0 Multiplicity = 1

                         Standard orientation:
 ---------------------------------------------------------------------
 Center     Atomic      Atomic             Coordinates (Angstroms)
 Number     Number       Type             X           Y           Z
 ---------------------------------------------------------------------
      1          6           0        4.727144    0.987554    0.230141
      2          6           0        4.702682   -0.388078    0.482248
      3          6           0        3.524359   -1.120575    0.310342
      4          6           0        2.383794   -0.442358   -0.116770
      5          6           0        2.376371    0.927301   -0.376131
      6          6           0        3.565958    1.639704   -0.197489
      7          1           0        5.646869    1.548771    0.366298
      8          1           0        5.602962   -0.897179    0.814449
      9          1           0        3.477365   -2.186353    0.498296
     10          1           0        1.462989    1.407058   -0.706259
     11          1           0        3.582015    2.707953   -0.394035
     12          7           0        1.130394   -1.207184   -0.302324
     13          8           0        0.139011   -0.586255   -0.679477
     14          8           0        1.163095   -2.413100   -0.067096
     15          6           0       -3.496830   -0.237018   -0.261958
     16          6           0       -3.705139   -1.436400    0.663286
     17          6           0       -4.066988   -2.713111   -0.096233
     18          1           0       -4.411439   -0.070377   -0.847335
     19          1           0       -2.702522   -0.473067   -0.983589
     20          1           0       -4.497865   -1.197641    1.383839
     21          1           0       -2.789994   -1.600085    1.246666
     22          1           0       -3.274306   -2.978556   -0.803196
     23          1           0       -4.991881   -2.573826   -0.665243
     24          1           0       -4.211387   -3.557913    0.584441
     25          6           0       -3.134517    1.046761    0.482601
     26          6           0       -2.926207    2.246143   -0.442643
     27          6           0       -2.564359    3.522854    0.316876
     28          1           0       -3.928825    1.282811    1.204231
     29          1           0       -2.219908    0.880121    1.067977
     30          1           0       -3.841352    2.409830   -1.026024
     31          1           0       -2.133481    2.007385   -1.163197
     32          1           0       -1.639465    3.383570    0.885887
     33          1           0       -3.357040    3.788301    1.023838
     34          1           0       -2.419959    4.367656   -0.363799
 ---------------------------------------------------------------------

 SCF Done:  E(RHF) =  -669.536563182     A.U. after   15 cycles
 E2 =    -0.2091800252D+01 EUMP2 =    -0.67162836343404D+03

 The electronic state is 1-A.
 Alpha  occ. eigenvalues --  -20.61095 -20.61090 -15.86118 -11.31378 -11.27933
 Alpha  occ. eigenvalues --  -11.27929 -11.27659 -11.26927 -11.26917 -11.20777
 Alpha  occ. eigenvalues --  -11.20608 -11.20234 -11.20190 -11.19817 -11.19728
 Alpha  occ. eigenvalues --   -1.60148  -1.39706  -1.19540  -1.08956  -1.07210
 Alpha  occ. eigenvalues --   -1.04927  -1.02448  -0.95809  -0.94906  -0.86330
 Alpha  occ. eigenvalues --   -0.85936  -0.82645  -0.78544  -0.77706  -0.76974
 Alpha  occ. eigenvalues --   -0.72354  -0.71456  -0.70648  -0.65205  -0.64929
 Alpha  occ. eigenvalues --   -0.63781  -0.62275  -0.59833  -0.58334  -0.56517
 Alpha  occ. eigenvalues --   -0.55433  -0.54179  -0.53261  -0.53016  -0.51679
 Alpha  occ. eigenvalues --   -0.51351  -0.49207  -0.49089  -0.48738  -0.46867
 Alpha  occ. eigenvalues --   -0.45566  -0.45135  -0.44533  -0.44318  -0.42649
 Alpha  occ. eigenvalues --   -0.37516  -0.36525
 Alpha virt. eigenvalues --    0.04807   0.11129   0.16305   0.20914   0.23489
 Alpha virt. eigenvalues --    0.25227   0.26996   0.27458   0.28421   0.28943
 Alpha virt. eigenvalues --    0.29034   0.30916   0.31752   0.32478   0.32885

 Mulliken charges:
               1
     1  C   -0.170364
     2  C   -0.218622
     3  C   -0.170346
     4  C    0.157477
     5  C   -0.171239
     6  C   -0.218606
     7  H    0.226388
     8  H    0.224128
     9  H    0.276007
    10  H    0.276147
    11  H    0.224460
    12  N    0.492660
    13  O   -0.465288
    14  O   -0.458231
    15  C   -0.303954
    16  C   -0.297749
    17  C   -0.476491
    18  H    0.140525
    19  H    0.174349
    20  H    0.143601
    21  H    0.157681
    22  H    0.164135
    23  H    0.148996
    24  H    0.155557
    25  C   -0.295186
    26  C   -0.300645
    27  C   -0.474939
    28  H    0.142804
    29  H    0.152255
    30  H    0.149431
    31  H    0.155306
    32  H    0.149744
    33  H    0.154684
    34  H    0.155326
 Sum of Mulliken charges =  -0.00000

 Dipole moment (field-independent basis, Debye):
    X=              4.7945    Y=              2.5158    Z=              0.5617  Tot=              5.4435
 Quadrupole moment (field-independent basis, Debye-Ang):
   XX=            -73.3942   YY=            -95.4107   ZZ=            -95.6187
   XY=              2.0433   XZ=              2.0016   YZ=             -2.3428

 Normal termination of Gaussian 16 at Thu May  6 19:07:38 2021.
