 Gaussian 16, Revision A.03,
 Gaussian 16:  EM64L-G16RevA.03 25-Dec-2016

 -------------
 #p 6-31g* mp2
 -------------

 ------------------------------------------------------
 Input file generated by CHIRIPA (05-May-2021 14:57:21)
 ------------------------------------------------------
 Symbolic Z-matrix:
 Charge =  0 Multiplicity = 1

                         Standard orientation:
 ---------------------------------------------------------------------
 Center     Atomic      Atomic             Coordinates (Angstroms)
 Number     Number       Type             X           Y           Z
 ---------------------------------------------------------------------
      1          6           0        6.309470    0.803684    0.501040
      2          6           0        6.159836   -0.470635   -0.055955
      3          6           0        4.898696   -0.931837   -0.445013
      4          6           0        3.803854   -0.088589   -0.261867
      5          6           0        3.920618    1.186124    0.290188
      6          6           0        5.191355    1.626545    0.672032
      7          1           0        7.292881    1.153885    0.800468
      8          1           0        7.026406   -1.111845   -0.189932
      9          1           0        4.754336   -1.913892   -0.878773
     10          1           0        3.038101    1.802498    0.411285
     11          1           0        5.304573    2.616667    1.104334
     12          7           0        2.463662   -0.565843   -0.669927
     13          8           0        1.514872    0.196322   -0.498058
     14          8           0        2.387385   -1.693044   -1.153908
     15          6           0       -6.267943    0.773765   -0.671695
     16          6           0       -5.164641    1.631317   -0.733748
     17          6           0       -3.916946    1.218685   -0.256736
     18          6           0       -3.807869   -0.063913    0.278366
     19          6           0       -4.888375   -0.941447    0.354060
     20          6           0       -6.126539   -0.507620   -0.128946
     21          1           0       -7.233481    1.102540   -1.044577
     22          1           0       -5.271516    2.627005   -1.154732
     23          1           0       -3.046270    1.862160   -0.292539
     24          1           0       -4.750838   -1.928227    0.779225
     25          1           0       -6.981645   -1.175745   -0.079472
     26          7           0       -2.492035   -0.511966    0.786529
     27          8           0       -2.422108   -1.646810    1.253303
     28          8           0       -1.555528    0.280176    0.708432
 ---------------------------------------------------------------------

 SCF Done:  E(RHF) =  -868.335325792     A.U. after   16 cycles
 E2 =    -0.2600282535D+01 EUMP2 =    -0.87093560832672D+03

 The electronic state is 1-A.
 Alpha  occ. eigenvalues --  -20.59685 -20.59653 -20.59582 -20.59550 -15.84690
 Alpha  occ. eigenvalues --  -15.84660 -11.30392 -11.30368 -11.27015 -11.26990
 Alpha  occ. eigenvalues --  -11.26989 -11.26970 -11.26828 -11.26806 -11.26109
 Alpha  occ. eigenvalues --  -11.26097 -11.26087 -11.26076  -1.58707  -1.58668
 Alpha  occ. eigenvalues --   -1.38256  -1.38209  -1.18602  -1.18578  -1.07941
 Alpha  occ. eigenvalues --   -1.07910  -1.04057  -1.04034  -0.94733  -0.94667
 Alpha  occ. eigenvalues --   -0.85440  -0.85417  -0.81582  -0.81480  -0.76552
 Alpha  occ. eigenvalues --   -0.76490  -0.71061  -0.70709  -0.70050  -0.69984
 Alpha  occ. eigenvalues --   -0.69716  -0.69690  -0.64260  -0.64212  -0.64070
 Alpha  occ. eigenvalues --   -0.64047  -0.61401  -0.61379  -0.54560  -0.54537
 Alpha  occ. eigenvalues --   -0.52368  -0.52343  -0.52158  -0.52136  -0.47821
 Alpha  occ. eigenvalues --   -0.47666  -0.47632  -0.47490  -0.43626  -0.43463
 Alpha  occ. eigenvalues --   -0.36607  -0.36580  -0.35675  -0.35653
 Alpha virt. eigenvalues --    0.05977   0.06081   0.11974   0.11997   0.17404
 Alpha virt. eigenvalues --    0.17500   0.22043   0.22072   0.27934   0.27949
 Alpha virt. eigenvalues --    0.28961   0.29014   0.31565   0.31593   0.33237

 Mulliken charges:
               1
     1  C   -0.171965
     2  C   -0.218625
     3  C   -0.171402
     4  C    0.159523
     5  C   -0.170868
     6  C   -0.218690
     7  H    0.222712
     8  H    0.220915
     9  H    0.274704
    10  H    0.277110
    11  H    0.220921
    12  N    0.487804
    13  O   -0.447570
    14  O   -0.464650
    15  C   -0.171992
    16  C   -0.218666
    17  C   -0.170671
    18  C    0.159854
    19  C   -0.171315
    20  C   -0.218604
    21  H    0.222617
    22  H    0.220728
    23  H    0.276511
    24  H    0.274809
    25  H    0.220888
    26  N    0.488108
    27  O   -0.464115
    28  O   -0.448072
 Sum of Mulliken charges =  -0.00000

 Dipole moment (field-independent basis, Debye):
    X=              0.0857    Y=              3.3013    Z=             -0.3327  Tot=              3.3192
 Quadrupole moment (field-independent basis, Debye-Ang):
   XX=            -36.1863   YY=            -98.2833   ZZ=           -107.6228
   XY=              0.3258   XZ=              8.7495   YZ=              0.2213

 Normal termination of Gaussian 16 at Thu May  6 06:28:05 2021.
