 Gaussian 16, Revision A.03,
 Gaussian 16:  EM64L-G16RevA.03 25-Dec-2016

 -------------
 #p 6-31g* mp2
 -------------

 ------------------------------------------------------
 Input file generated by CHIRIPA (05-May-2021 14:51:13)
 ------------------------------------------------------
 Symbolic Z-matrix:
 Charge =  0 Multiplicity = 1

                         Standard orientation:
 ---------------------------------------------------------------------
 Center     Atomic      Atomic             Coordinates (Angstroms)
 Number     Number       Type             X           Y           Z
 ---------------------------------------------------------------------
      1          6           0        3.150935   -0.131385   -0.249356
      2          6           0        3.486728   -1.222323    0.768034
      3          6           0        3.721148   -2.585804    0.117064
      4          1           0        2.256583   -0.428296   -0.814089
      5          1           0        3.969694   -0.054867   -0.978172
      6          1           0        2.668209   -1.295811    1.495524
      7          1           0        4.380273   -0.922693    1.330542
      8          1           0        4.551279   -2.535156   -0.594918
      9          1           0        2.829487   -2.910394   -0.428998
     10          1           0        3.959712   -3.350865    0.862469
     11          6           0        2.913865    1.237423    0.386168
     12          6           0        2.578072    2.328361   -0.631222
     13          6           0        2.343652    3.691841    0.019748
     14          1           0        2.095106    1.160905    1.114984
     15          1           0        3.808217    1.534334    0.950901
     16          1           0        1.684527    2.028730   -1.193730
     17          1           0        3.396591    2.401849   -1.358712
     18          1           0        3.235312    4.016432    0.565810
     19          1           0        1.513521    3.641193    0.731730
     20          1           0        2.105088    4.456903   -0.725657
     21          6           0       -3.375993    0.128589   -0.096464
     22          6           0       -4.848191    0.082874    0.314056
     23          6           0       -5.521830    1.454096    0.252803
     24          1           0       -2.841211    0.830960    0.557468
     25          1           0       -3.299215    0.530637   -1.116198
     26          1           0       -4.922271   -0.320265    1.332195
     27          1           0       -5.379491   -0.619615   -0.340808
     28          1           0       -5.477472    1.860071   -0.762981
     29          1           0       -5.017655    2.161123    0.919528
     30          1           0       -6.573630    1.398320    0.550233
     31          6           0       -2.688807   -1.234626   -0.040347
     32          6           0       -1.216609   -1.188911   -0.450868
     33          6           0       -0.542970   -2.560134   -0.389616
     34          1           0       -2.765584   -1.636675    0.979387
     35          1           0       -3.223589   -1.936998   -0.694280
     36          1           0       -0.685309   -0.486423    0.203996
     37          1           0       -1.142529   -0.785773   -1.469008
     38          1           0       -1.047145   -3.267161   -1.056340
     39          1           0       -0.587328   -2.966109    0.626169
     40          1           0        0.508831   -2.504357   -0.687045
 ---------------------------------------------------------------------

 SCF Done:  E(RHF) =  -470.733146435     A.U. after   11 cycles
 E2 =    -0.1583510130D+01 EUMP2 =    -0.47231665656572D+03

 The electronic state is 1-A.
 Alpha  occ. eigenvalues --  -11.21696 -11.21639 -11.21583 -11.21582 -11.21465
 Alpha  occ. eigenvalues --  -11.21403 -11.21393 -11.21332 -11.21136 -11.21099
 Alpha  occ. eigenvalues --  -11.21061 -11.21040  -1.08496  -1.08412  -1.03602
 Alpha  occ. eigenvalues --   -1.03505  -0.96044  -0.95960  -0.87064  -0.86975
 Alpha  occ. eigenvalues --   -0.79660  -0.79570  -0.78307  -0.78229  -0.65172
 Alpha  occ. eigenvalues --   -0.65026  -0.61039  -0.60931  -0.59443  -0.59265
 Alpha  occ. eigenvalues --   -0.57654  -0.57559  -0.55323  -0.55271  -0.52767
 Alpha  occ. eigenvalues --   -0.52653  -0.52470  -0.52359  -0.49974  -0.49906
 Alpha  occ. eigenvalues --   -0.48024  -0.47837  -0.46689  -0.46594  -0.45875
 Alpha  occ. eigenvalues --   -0.45783  -0.45718  -0.45679  -0.43817  -0.43764
 Alpha virt. eigenvalues --    0.19749   0.23083   0.23367   0.25121   0.26081
 Alpha virt. eigenvalues --    0.26124   0.26973   0.27490   0.28098   0.29288
 Alpha virt. eigenvalues --    0.30257   0.31325   0.31724   0.31888   0.32358

 Mulliken charges:
               1
     1  C   -0.302709
     2  C   -0.299701
     3  C   -0.480236
     4  H    0.153819
     5  H    0.149457
     6  H    0.152400
     7  H    0.152056
     8  H    0.155075
     9  H    0.159078
    10  H    0.160496
    11  C   -0.298204
    12  C   -0.300109
    13  C   -0.475601
    14  H    0.149246
    15  H    0.149622
    16  H    0.152808
    17  H    0.151821
    18  H    0.155072
    19  H    0.154951
    20  H    0.160281
    21  C   -0.298271
    22  C   -0.299698
    23  C   -0.475747
    24  H    0.149473
    25  H    0.149648
    26  H    0.152014
    27  H    0.152072
    28  H    0.155274
    29  H    0.155236
    30  H    0.160407
    31  C   -0.298719
    32  C   -0.300398
    33  C   -0.484230
    34  H    0.149761
    35  H    0.150073
    36  H    0.152386
    37  H    0.151900
    38  H    0.155809
    39  H    0.155713
    40  H    0.167675
 Sum of Mulliken charges =  -0.00000

 Dipole moment (field-independent basis, Debye):
    X=             -0.0245    Y=             -0.0112    Z=             -0.0077  Tot=              0.0280
 Quadrupole moment (field-independent basis, Debye-Ang):
   XX=            -84.1429   YY=            -86.6474   ZZ=            -83.9151
   XY=              1.0588   XZ=              0.2322   YZ=             -0.1918

 Normal termination of Gaussian 16 at Thu May  6 07:09:57 2021.
