 Gaussian 16, Revision A.03,
 Gaussian 16:  EM64L-G16RevA.03 25-Dec-2016

 -------------
 #p 6-31g* mp2
 -------------

 ------------------------------------------------------
 Input file generated by CHIRIPA (05-May-2021 14:53:13)
 ------------------------------------------------------
 Symbolic Z-matrix:
 Charge =  0 Multiplicity = 1

                         Standard orientation:
 ---------------------------------------------------------------------
 Center     Atomic      Atomic             Coordinates (Angstroms)
 Number     Number       Type             X           Y           Z
 ---------------------------------------------------------------------
      1          6           0        4.912922   -0.391200   -0.021875
      2          6           0        6.127835    0.532364   -0.116764
      3          6           0        7.447902   -0.200727    0.123639
      4          1           0        4.896190   -0.863870    0.969714
      5          1           0        5.020719   -1.203746   -0.753683
      6          1           0        6.017114    1.343700    0.614051
      7          1           0        6.141570    1.003037   -1.108174
      8          1           0        7.584941   -0.998994   -0.612969
      9          1           0        7.459778   -0.656395    1.119041
     10          1           0        8.303199    0.478295    0.051133
     11          6           0        3.585841    0.327094   -0.259857
     12          6           0        2.370928   -0.596469   -0.164968
     13          6           0        1.050861    0.136621   -0.405371
     14          1           0        3.478044    1.139640    0.471952
     15          1           0        3.602573    0.799764   -1.251446
     16          1           0        2.357193   -1.067142    0.826442
     17          1           0        2.481649   -1.407806   -0.895783
     18          1           0        1.038985    0.592290   -1.400773
     19          1           0        0.913822    0.934888    0.331237
     20          1           0        0.195564   -0.542401   -0.332865
     21          6           0       -3.168777    2.543145    0.157571
     22          6           0       -2.262711    1.773502    0.894603
     23          6           0       -2.337013    0.377554    0.875707
     24          6           0       -3.334432   -0.218400    0.105458
     25          6           0       -4.251748    0.521008   -0.639592
     26          6           0       -4.158659    1.915548   -0.605828
     27          1           0       -3.103760    3.627005    0.178026
     28          1           0       -1.492923    2.258189    1.488362
     29          1           0       -1.648432   -0.242460    1.436827
     30          1           0       -5.008219    0.009259   -1.222070
     31          1           0       -4.863669    2.510729   -1.179209
     32          7           0       -3.423037   -1.695482    0.077583
     33          8           0       -4.310960   -2.196381   -0.608952
     34          8           0       -2.602886   -2.324352    0.742799
 ---------------------------------------------------------------------

 SCF Done:  E(RHF) =  -669.534991480     A.U. after   15 cycles
 E2 =    -0.2092063158D+01 EUMP2 =    -0.67162705463771D+03

 The electronic state is 1-A.
 Alpha  occ. eigenvalues --  -20.60789 -20.60784 -15.85833 -11.31147 -11.27730
 Alpha  occ. eigenvalues --  -11.27710 -11.27471 -11.26729 -11.26715 -11.21692
 Alpha  occ. eigenvalues --  -11.21681 -11.21524 -11.21440 -11.21291 -11.21129
 Alpha  occ. eigenvalues --   -1.59859  -1.39414  -1.19333  -1.08735  -1.08538
 Alpha  occ. eigenvalues --   -1.04736  -1.03643  -0.96119  -0.95571  -0.87142
 Alpha  occ. eigenvalues --   -0.86132  -0.82409  -0.79712  -0.78346  -0.77457
 Alpha  occ. eigenvalues --   -0.72052  -0.71180  -0.70453  -0.65176  -0.64984
 Alpha  occ. eigenvalues --   -0.64746  -0.62120  -0.61037  -0.59465  -0.57708
 Alpha  occ. eigenvalues --   -0.55436  -0.55225  -0.53292  -0.52896  -0.52541
 Alpha  occ. eigenvalues --   -0.52471  -0.50063  -0.48811  -0.48806  -0.48021
 Alpha  occ. eigenvalues --   -0.46740  -0.45890  -0.45815  -0.44831  -0.43892
 Alpha  occ. eigenvalues --   -0.37310  -0.36261
 Alpha virt. eigenvalues --    0.05066   0.11254   0.16505   0.20795   0.22834
 Alpha virt. eigenvalues --    0.24078   0.26118   0.26827   0.27309   0.28040
 Alpha virt. eigenvalues --    0.29177   0.29636   0.31468   0.31820   0.32073

 Mulliken charges:
               1
     1  C   -0.298428
     2  C   -0.299561
     3  C   -0.475782
     4  H    0.150271
     5  H    0.151140
     6  H    0.150764
     7  H    0.151745
     8  H    0.155986
     9  H    0.155525
    10  H    0.160094
    11  C   -0.298191
    12  C   -0.299765
    13  C   -0.479133
    14  H    0.146232
    15  H    0.149417
    16  H    0.152963
    17  H    0.156205
    18  H    0.156496
    19  H    0.143544
    20  H    0.168048
    21  C   -0.170989
    22  C   -0.217523
    23  C   -0.166998
    24  C    0.157194
    25  C   -0.170910
    26  C   -0.218807
    27  H    0.225468
    28  H    0.223016
    29  H    0.276641
    30  H    0.275373
    31  H    0.223179
    32  N    0.488599
    33  O   -0.459978
    34  O   -0.461834
 Sum of Mulliken charges =  -0.00000

 Dipole moment (field-independent basis, Debye):
    X=              0.3202    Y=              5.1501    Z=              0.0587  Tot=              5.1604
 Quadrupole moment (field-independent basis, Debye-Ang):
   XX=            -95.1392   YY=            -97.7953   ZZ=            -92.3645
   XY=            -17.7104   XZ=              2.2412   YZ=              0.5973

 Normal termination of Gaussian 16 at Thu May  6 08:54:27 2021.
