 Gaussian 16, Revision A.03,
 Gaussian 16:  EM64L-G16RevA.03 25-Dec-2016

 -------------
 #p 6-31g* mp2
 -------------

 ------------------------------------------------------
 Input file generated by CHIRIPA (05-May-2021 14:51:08)
 ------------------------------------------------------
 Symbolic Z-matrix:
 Charge =  0 Multiplicity = 1

                         Standard orientation:
 ---------------------------------------------------------------------
 Center     Atomic      Atomic             Coordinates (Angstroms)
 Number     Number       Type             X           Y           Z
 ---------------------------------------------------------------------
      1          6           0        2.743530   -0.433854   -0.074567
      2          6           0        2.803537   -1.906413    0.332808
      3          6           0        1.477578   -2.635199    0.112583
      4          1           0        1.949438    0.066012    0.496831
      5          1           0        2.457578   -0.364871   -1.133277
      6          1           0        3.090639   -1.972643    1.390070
      7          1           0        3.597707   -2.402788   -0.239488
      8          1           0        1.188633   -2.598801   -0.942777
      9          1           0        0.678684   -2.166212    0.696039
     10          1           0        1.542922   -3.686344    0.410381
     11          6           0        4.061560    0.308181    0.139693
     12          6           0        4.001553    1.780740   -0.267682
     13          6           0        5.327512    2.509526   -0.047458
     14          1           0        4.347512    0.239198    1.198403
     15          1           0        4.855653   -0.191685   -0.431705
     16          1           0        3.207384    2.277115    0.304614
     17          1           0        3.714452    1.846971   -1.324944
     18          1           0        6.126407    2.040540   -0.630913
     19          1           0        5.616458    2.473128    1.007903
     20          1           0        5.262168    3.560671   -0.345255
     21          6           0       -3.466233   -0.698205   -0.018712
     22          6           0       -2.133731   -1.421882   -0.215469
     23          6           0       -2.277475   -2.943796   -0.185302
     24          1           0       -3.906211   -1.007459    0.939269
     25          1           0       -4.167719   -1.016779   -0.802181
     26          1           0       -1.434524   -1.100996    0.567319
     27          1           0       -1.696783   -1.110724   -1.173004
     28          1           0       -2.954175   -3.282590   -0.976438
     29          1           0       -2.690425   -3.272808    0.773773
     30          1           0       -1.312968   -3.441049   -0.327869
     31          6           0       -3.338857    0.823878   -0.046414
     32          6           0       -4.671360    1.547555    0.150343
     33          6           0       -4.527615    3.069468    0.120176
     34          1           0       -2.637372    1.142451    0.737055
     35          1           0       -2.898880    1.133132   -1.004395
     36          1           0       -5.108308    1.236396    1.107878
     37          1           0       -5.370566    1.226669   -0.632445
     38          1           0       -4.114665    3.398480   -0.838899
     39          1           0       -3.850916    3.408263    0.911312
     40          1           0       -5.492122    3.566722    0.262743
 ---------------------------------------------------------------------

 SCF Done:  E(RHF) =  -470.732270792     A.U. after   11 cycles
 E2 =    -0.1583535181D+01 EUMP2 =    -0.47231580597302D+03

 The electronic state is 1-A.
 Alpha  occ. eigenvalues --  -11.21594 -11.21582 -11.21580 -11.21527 -11.21395
 Alpha  occ. eigenvalues --  -11.21368 -11.21336 -11.21305 -11.21066 -11.21059
 Alpha  occ. eigenvalues --  -11.21019 -11.20909  -1.08431  -1.08379  -1.03572
 Alpha  occ. eigenvalues --   -1.03433  -0.96057  -0.95846  -0.87056  -0.86884
 Alpha  occ. eigenvalues --   -0.79634  -0.79519  -0.78283  -0.78152  -0.65096
 Alpha  occ. eigenvalues --   -0.64988  -0.61047  -0.60776  -0.59351  -0.59342
 Alpha  occ. eigenvalues --   -0.57828  -0.57307  -0.55348  -0.55122  -0.52892
 Alpha  occ. eigenvalues --   -0.52550  -0.52468  -0.52061  -0.49946  -0.49848
 Alpha  occ. eigenvalues --   -0.47932  -0.47815  -0.46756  -0.46457  -0.45870
 Alpha  occ. eigenvalues --   -0.45733  -0.45687  -0.45507  -0.43857  -0.43642
 Alpha virt. eigenvalues --    0.21907   0.23095   0.23497   0.24843   0.25630
 Alpha virt. eigenvalues --    0.26750   0.27034   0.27231   0.28161   0.29361
 Alpha virt. eigenvalues --    0.29642   0.30955   0.31559   0.31661   0.32586

 Mulliken charges:
               1
     1  C   -0.298109
     2  C   -0.300828
     3  C   -0.480488
     4  H    0.149511
     5  H    0.149502
     6  H    0.151584
     7  H    0.151635
     8  H    0.155216
     9  H    0.162550
    10  H    0.159481
    11  C   -0.298280
    12  C   -0.299581
    13  C   -0.475701
    14  H    0.149405
    15  H    0.149654
    16  H    0.151977
    17  H    0.151920
    18  H    0.155153
    19  H    0.155134
    20  H    0.160255
    21  C   -0.297871
    22  C   -0.300193
    23  C   -0.482541
    24  H    0.149334
    25  H    0.149399
    26  H    0.151772
    27  H    0.152026
    28  H    0.154382
    29  H    0.153979
    30  H    0.170266
    31  C   -0.298107
    32  C   -0.299593
    33  C   -0.475657
    34  H    0.148963
    35  H    0.149689
    36  H    0.151843
    37  H    0.151941
    38  H    0.155181
    39  H    0.155016
    40  H    0.160182
 Sum of Mulliken charges =  -0.00000

 Dipole moment (field-independent basis, Debye):
    X=              0.0164    Y=             -0.0140    Z=             -0.0070  Tot=              0.0226
 Quadrupole moment (field-independent basis, Debye-Ang):
   XX=            -85.7247   YY=            -86.4266   ZZ=            -82.8396
   XY=             -0.5997   XZ=             -0.2130   YZ=              0.1846

 Normal termination of Gaussian 16 at Thu May  6 03:40:53 2021.
