 Gaussian 16, Revision A.03,
 Gaussian 16:  EM64L-G16RevA.03 25-Dec-2016

 -------------
 #p 6-31g* mp2
 -------------

 ------------------------------------------------------
 Input file generated by CHIRIPA (05-May-2021 14:55:23)
 ------------------------------------------------------
 Symbolic Z-matrix:
 Charge =  0 Multiplicity = 1

                         Standard orientation:
 ---------------------------------------------------------------------
 Center     Atomic      Atomic             Coordinates (Angstroms)
 Number     Number       Type             X           Y           Z
 ---------------------------------------------------------------------
      1          6           0       -4.367007   -2.218604   -0.205711
      2          6           0       -4.430487   -1.283512   -1.244024
      3          6           0       -3.853598   -0.018594   -1.096609
      4          6           0       -3.218252    0.279044    0.107981
      5          6           0       -3.138394   -0.631070    1.160883
      6          6           0       -3.722300   -1.889978    0.991319
      7          1           0       -4.817874   -3.198888   -0.328829
      8          1           0       -4.930528   -1.535973   -2.174758
      9          1           0       -3.888083    0.724330   -1.884196
     10          1           0       -2.633114   -0.350383    2.077030
     11          1           0       -3.671465   -2.614191    1.799388
     12          7           0       -2.603811    1.614975    0.275766
     13          8           0       -2.049823    1.852693    1.346852
     14          8           0       -2.687834    2.399063   -0.666986
     15          6           0        4.863806   -0.331908    0.270817
     16          6           0        6.156897   -0.214426   -0.536710
     17          6           0        7.378074   -0.731735    0.224154
     18          1           0        4.974517    0.224890    1.211383
     19          1           0        4.706437   -1.383759    0.546928
     20          1           0        6.311060    0.836692   -0.812395
     21          1           0        6.043027   -0.771408   -1.475550
     22          1           0        7.250181   -1.787027    0.486076
     23          1           0        7.519737   -0.169790    1.152997
     24          1           0        8.291459   -0.638318   -0.371547
     25          6           0        3.634163    0.181208   -0.476455
     26          6           0        2.341072    0.063726    0.331071
     27          6           0        1.119896    0.581036   -0.429792
     28          1           0        3.791532    1.233061   -0.752566
     29          1           0        3.523452   -0.375589   -1.417022
     30          1           0        2.454943    0.620709    1.269911
     31          1           0        2.186909   -0.987390    0.606757
     32          1           0        0.978232    0.019091   -1.358636
     33          1           0        1.247789    1.636327   -0.691714
     34          1           0        0.206509    0.487620    0.165907
 ---------------------------------------------------------------------

 SCF Done:  E(RHF) =  -669.535891896     A.U. after   15 cycles
 E2 =    -0.2091474241D+01 EUMP2 =    -0.67162736613743D+03

 The electronic state is 1-A.
 Alpha  occ. eigenvalues --  -20.60858 -20.60836 -15.85867 -11.31221 -11.27789
 Alpha  occ. eigenvalues --  -11.27781 -11.27530 -11.26804 -11.26794 -11.21340
 Alpha  occ. eigenvalues --  -11.21096 -11.21067 -11.20951 -11.20862 -11.20366
 Alpha  occ. eigenvalues --   -1.59904  -1.39462  -1.19392  -1.08793  -1.08051
 Alpha  occ. eigenvalues --   -1.04793  -1.03120  -0.95632  -0.95562  -0.86583
 Alpha  occ. eigenvalues --   -0.86193  -0.82464  -0.79197  -0.77864  -0.77514
 Alpha  occ. eigenvalues --   -0.72100  -0.71235  -0.70503  -0.65048  -0.64798
 Alpha  occ. eigenvalues --   -0.64683  -0.62142  -0.60513  -0.58943  -0.57173
 Alpha  occ. eigenvalues --   -0.55298  -0.54844  -0.53120  -0.52887  -0.52258
 Alpha  occ. eigenvalues --   -0.51988  -0.49501  -0.48861  -0.48856  -0.47515
 Alpha  occ. eigenvalues --   -0.46230  -0.45407  -0.45328  -0.44856  -0.43347
 Alpha  occ. eigenvalues --   -0.37368  -0.36393
 Alpha virt. eigenvalues --    0.05013   0.11224   0.16476   0.21381   0.23233
 Alpha virt. eigenvalues --    0.24698   0.27021   0.27273   0.27846   0.28027
 Alpha virt. eigenvalues --    0.28523   0.30649   0.31808   0.31905   0.32194

 Mulliken charges:
               1
     1  C   -0.170702
     2  C   -0.218581
     3  C   -0.170549
     4  C    0.157935
     5  C   -0.172315
     6  C   -0.218391
     7  H    0.225691
     8  H    0.223575
     9  H    0.275822
    10  H    0.275790
    11  H    0.223600
    12  N    0.489359
    13  O   -0.459195
    14  O   -0.457866
    15  C   -0.297916
    16  C   -0.299385
    17  C   -0.475483
    18  H    0.150154
    19  H    0.147507
    20  H    0.152560
    21  H    0.150954
    22  H    0.154093
    23  H    0.155323
    24  H    0.159529
    25  C   -0.298143
    26  C   -0.299442
    27  C   -0.477907
    28  H    0.151228
    29  H    0.147595
    30  H    0.155128
    31  H    0.146552
    32  H    0.148835
    33  H    0.163457
    34  H    0.161187
 Sum of Mulliken charges =  -0.00000

 Dipole moment (field-independent basis, Debye):
    X=             -2.2955    Y=             -4.6049    Z=             -0.5850  Tot=              5.1784
 Quadrupole moment (field-independent basis, Debye-Ang):
   XX=            -82.3548   YY=            -96.7984   ZZ=            -90.8077
   XY=             15.0872   XZ=              3.0558   YZ=             -1.5430

 Normal termination of Gaussian 16 at Thu May  6 12:38:09 2021.
