 Gaussian 16, Revision A.03,
 Gaussian 16:  EM64L-G16RevA.03 25-Dec-2016

 -------------
 #p 6-31g* mp2
 -------------

 ------------------------------------------------------
 Input file generated by CHIRIPA (05-May-2021 14:55:19)
 ------------------------------------------------------
 Symbolic Z-matrix:
 Charge =  0 Multiplicity = 1

                         Standard orientation:
 ---------------------------------------------------------------------
 Center     Atomic      Atomic             Coordinates (Angstroms)
 Number     Number       Type             X           Y           Z
 ---------------------------------------------------------------------
      1          6           0        3.736933   -2.155835   -0.157127
      2          6           0        4.057922   -1.170185    0.782012
      3          6           0        3.487830    0.103552    0.697537
      4          6           0        2.596622    0.358361   -0.343670
      5          6           0        2.256819   -0.602584   -1.294673
      6          6           0        2.838989   -1.869393   -1.190650
      7          1           0        4.184485   -3.142614   -0.083913
      8          1           0        4.754959   -1.389811    1.585721
      9          1           0        3.718686    0.885210    1.411074
     10          1           0        1.558629   -0.353849   -2.084660
     11          1           0        2.587856   -2.632912   -1.921415
     12          7           0        1.986698    1.703143   -0.443447
     13          8           0        1.204371    1.902470   -1.370198
     14          8           0        2.302517    2.532392    0.406989
     15          6           0       -2.715379    0.023196    0.386814
     16          6           0       -1.941296   -0.312130    1.662093
     17          6           0       -0.468387    0.090394    1.582677
     18          1           0       -2.241218   -0.481882   -0.465836
     19          1           0       -2.639090    1.102070    0.192888
     20          1           0       -2.020176   -1.389834    1.854314
     21          1           0       -2.417468    0.193651    2.511835
     22          1           0       -0.372017    1.167947    1.414770
     23          1           0        0.027532   -0.424534    0.753513
     24          1           0        0.066075   -0.158409    2.504799
     25          6           0       -4.189313   -0.373214    0.450882
     26          6           0       -4.963396   -0.037886   -0.824396
     27          6           0       -6.436305   -0.440411   -0.744981
     28          1           0       -4.265601   -1.452087    0.644810
     29          1           0       -4.663474    0.131866    1.303532
     30          1           0       -4.487224   -0.543667   -1.674138
     31          1           0       -4.884516    1.039818   -1.016617
     32          1           0       -6.932224    0.074518    0.084184
     33          1           0       -6.532674   -1.517964   -0.577073
     34          1           0       -6.970767   -0.191608   -1.667102
 ---------------------------------------------------------------------

 SCF Done:  E(RHF) =  -669.534854442     A.U. after   15 cycles
 E2 =    -0.2093494654D+01 EUMP2 =    -0.67162834909555D+03

 The electronic state is 1-A.
 Alpha  occ. eigenvalues --  -20.60772 -20.60767 -15.85796 -11.31153 -11.27734
 Alpha  occ. eigenvalues --  -11.27730 -11.27498 -11.26795 -11.26774 -11.21297
 Alpha  occ. eigenvalues --  -11.21261 -11.21067 -11.20941 -11.20834 -11.20650
 Alpha  occ. eigenvalues --   -1.59835  -1.39390  -1.19361  -1.08754  -1.08083
 Alpha  occ. eigenvalues --   -1.04767  -1.03209  -0.95667  -0.95586  -0.86698
 Alpha  occ. eigenvalues --   -0.86162  -0.82423  -0.79302  -0.77891  -0.77465
 Alpha  occ. eigenvalues --   -0.72036  -0.71147  -0.70467  -0.65014  -0.64772
 Alpha  occ. eigenvalues --   -0.64718  -0.62113  -0.60620  -0.59024  -0.57275
 Alpha  occ. eigenvalues --   -0.55269  -0.55022  -0.53178  -0.52858  -0.52339
 Alpha  occ. eigenvalues --   -0.52016  -0.49570  -0.48799  -0.48792  -0.47589
 Alpha  occ. eigenvalues --   -0.46308  -0.45443  -0.45342  -0.44778  -0.43455
 Alpha  occ. eigenvalues --   -0.37266  -0.36364
 Alpha virt. eigenvalues --    0.05044   0.11202   0.16550   0.21383   0.23205
 Alpha virt. eigenvalues --    0.24617   0.26891   0.27349   0.27715   0.28181
 Alpha virt. eigenvalues --    0.28446   0.30979   0.31589   0.32118   0.32187

 Mulliken charges:
               1
     1  C   -0.171147
     2  C   -0.217976
     3  C   -0.170842
     4  C    0.162082
     5  C   -0.174631
     6  C   -0.217601
     7  H    0.225518
     8  H    0.223458
     9  H    0.275722
    10  H    0.275508
    11  H    0.223414
    12  N    0.491783
    13  O   -0.460255
    14  O   -0.460697
    15  C   -0.297997
    16  C   -0.298816
    17  C   -0.487550
    18  H    0.146501
    19  H    0.157794
    20  H    0.147772
    21  H    0.152180
    22  H    0.169296
    23  H    0.152937
    24  H    0.156612
    25  C   -0.298246
    26  C   -0.299364
    27  C   -0.475525
    28  H    0.146656
    29  H    0.149607
    30  H    0.150531
    31  H    0.154740
    32  H    0.155189
    33  H    0.153533
    34  H    0.159813
 Sum of Mulliken charges =  -0.00000

 Dipole moment (field-independent basis, Debye):
    X=              2.2234    Y=             -4.6130    Z=              0.3280  Tot=              5.1314
 Quadrupole moment (field-independent basis, Debye-Ang):
   XX=            -84.2191   YY=            -97.5569   ZZ=            -91.9790
   XY=            -11.6921   XZ=              2.4853   YZ=              3.5872

 Normal termination of Gaussian 16 at Thu May  6 07:38:55 2021.
