 Gaussian 16, Revision A.03,
 Gaussian 16:  EM64L-G16RevA.03 25-Dec-2016

 -------------
 #p 6-31g* mp2
 -------------

 ------------------------------------------------------
 Input file generated by CHIRIPA (05-May-2021 14:57:21)
 ------------------------------------------------------
 Symbolic Z-matrix:
 Charge =  0 Multiplicity = 1

                         Standard orientation:
 ---------------------------------------------------------------------
 Center     Atomic      Atomic             Coordinates (Angstroms)
 Number     Number       Type             X           Y           Z
 ---------------------------------------------------------------------
      1          6           0        1.548095   -2.219201    0.537830
      2          6           0        2.358798   -1.606443    1.498980
      3          6           0        3.093430   -0.460043    1.181756
      4          6           0        2.993390    0.049055   -0.112115
      5          6           0        2.194469   -0.538676   -1.091701
      6          6           0        1.468658   -1.684304   -0.752169
      7          1           0        0.980842   -3.109452    0.792922
      8          1           0        2.422423   -2.019647    2.501607
      9          1           0        3.728816    0.034428    1.906463
     10          1           0        2.151408   -0.103548   -2.082775
     11          1           0        0.839870   -2.158073   -1.500643
     12          7           0        3.766442    1.262289   -0.459754
     13          8           0        3.661115    1.691197   -1.606742
     14          8           0        4.463050    1.761342    0.421337
     15          6           0       -3.249765    2.575541    0.637702
     16          6           0       -3.669440    2.078363   -0.600526
     17          6           0       -3.462005    0.736645   -0.934159
     18          6           0       -2.828879   -0.083505   -0.001531
     19          6           0       -2.399275    0.382143    1.240203
     20          6           0       -2.617138    1.727339    1.552502
     21          1           0       -3.414957    3.619171    0.888591
     22          1           0       -4.161007    2.734781   -1.312931
     23          1           0       -3.776780    0.325538   -1.885645
     24          1           0       -1.912007   -0.296507    1.929711
     25          1           0       -2.290152    2.110707    2.514871
     26          7           0       -2.603757   -1.505762   -0.343442
     27          8           0       -2.043649   -2.207800    0.495642
     28          8           0       -2.991677   -1.891560   -1.444040
 ---------------------------------------------------------------------

 SCF Done:  E(RHF) =  -868.340453028     A.U. after   16 cycles
 E2 =    -0.2599358092D+01 EUMP2 =    -0.87093981111939D+03

 The electronic state is 1-A.
 Alpha  occ. eigenvalues --  -20.61618 -20.61593 -20.60504 -20.60496 -15.86627
 Alpha  occ. eigenvalues --  -15.85552 -11.31653 -11.30719 -11.28192 -11.28182
 Alpha  occ. eigenvalues --  -11.27852 -11.27331 -11.27261 -11.27118 -11.27108
 Alpha  occ. eigenvalues --  -11.26801 -11.26222 -11.26078  -1.60675  -1.59586
 Alpha  occ. eigenvalues --   -1.40237  -1.39144  -1.19794  -1.18869  -1.09250
 Alpha  occ. eigenvalues --   -1.08249  -1.05148  -1.04250  -0.96145  -0.95121
 Alpha  occ. eigenvalues --   -0.86561  -0.85623  -0.82996  -0.81973  -0.78079
 Alpha  occ. eigenvalues --   -0.77088  -0.72878  -0.71990  -0.71766  -0.70913
 Alpha  occ. eigenvalues --   -0.70897  -0.69841  -0.65452  -0.65148  -0.64490
 Alpha  occ. eigenvalues --   -0.64203  -0.62505  -0.61600  -0.55653  -0.54585
 Alpha  occ. eigenvalues --   -0.53488  -0.53238  -0.52594  -0.52305  -0.49635
 Alpha  occ. eigenvalues --   -0.49591  -0.48539  -0.48507  -0.45718  -0.44596
 Alpha  occ. eigenvalues --   -0.37745  -0.36758  -0.36718  -0.35891
 Alpha virt. eigenvalues --    0.04377   0.05489   0.10927   0.11773   0.15953
 Alpha virt. eigenvalues --    0.17053   0.21077   0.22157   0.27005   0.27845
 Alpha virt. eigenvalues --    0.27964   0.29128   0.30704   0.31710   0.32172

 Mulliken charges:
               1
     1  C   -0.164317
     2  C   -0.224164
     3  C   -0.173050
     4  C    0.156543
     5  C   -0.173149
     6  C   -0.225819
     7  H    0.239975
     8  H    0.221112
     9  H    0.272276
    10  H    0.273590
    11  H    0.232856
    12  N    0.488169
    13  O   -0.462320
    14  O   -0.463340
    15  C   -0.168945
    16  C   -0.218142
    17  C   -0.170972
    18  C    0.157567
    19  C   -0.168301
    20  C   -0.218051
    21  H    0.228619
    22  H    0.225675
    23  H    0.275484
    24  H    0.273318
    25  H    0.225367
    26  N    0.488656
    27  O   -0.468543
    28  O   -0.460095
 Sum of Mulliken charges =  -0.00000

 Dipole moment (field-independent basis, Debye):
    X=             -3.8390    Y=              0.6907    Z=              2.4143  Tot=              4.5874
 Quadrupole moment (field-independent basis, Debye-Ang):
   XX=           -116.9907   YY=           -106.5641   ZZ=            -97.1047
   XY=            -28.3411   XZ=              4.7147   YZ=              0.0005

 Normal termination of Gaussian 16 at Thu May  6 00:07:03 2021.
