 Gaussian 16, Revision A.03,
 Gaussian 16:  EM64L-G16RevA.03 25-Dec-2016

 -------------
 #p 6-31g* mp2
 -------------

 ------------------------------------------------------
 Input file generated by CHIRIPA (05-May-2021 14:55:23)
 ------------------------------------------------------
 Symbolic Z-matrix:
 Charge =  0 Multiplicity = 1

                         Standard orientation:
 ---------------------------------------------------------------------
 Center     Atomic      Atomic             Coordinates (Angstroms)
 Number     Number       Type             X           Y           Z
 ---------------------------------------------------------------------
      1          6           0        3.833241   -2.258206    0.259445
      2          6           0        3.859368   -1.591732   -0.970047
      3          6           0        3.215204   -0.360525   -1.124091
      4          6           0        2.551402    0.177683   -0.022733
      5          6           0        2.507442   -0.461998    1.215074
      6          6           0        3.158551   -1.692209    1.346166
      7          1           0        4.336341   -3.214250    0.370195
      8          1           0        4.382564   -2.028915   -1.815732
      9          1           0        3.219610    0.176916   -2.064599
     10          1           0        1.977699   -0.001138    2.039937
     11          1           0        3.136602   -2.207550    2.302193
     12          7           0        1.865778    1.480580   -0.173663
     13          8           0        1.287887    1.933589    0.811964
     14          8           0        1.919260    2.024110   -1.274731
     15          6           0       -3.386444   -0.705934   -0.126465
     16          6           0       -4.762881   -1.370751   -0.088746
     17          6           0       -4.698452   -2.877907   -0.337992
     18          1           0       -2.920137   -0.898012   -1.102482
     19          1           0       -2.739249   -1.175793    0.627038
     20          1           0       -5.407713   -0.898843   -0.841151
     21          1           0       -5.226047   -1.176906    0.887224
     22          1           0       -4.077400   -3.367390    0.419175
     23          1           0       -4.260099   -3.087747   -1.319020
     24          1           0       -5.693365   -3.332906   -0.306620
     25          6           0       -3.434425    0.800783    0.120981
     26          6           0       -2.057986    1.465599    0.083262
     27          6           0       -2.122415    2.972756    0.332507
     28          1           0       -4.081619    1.270640   -0.632523
     29          1           0       -3.900731    0.992861    1.096997
     30          1           0       -1.594822    1.271755   -0.892708
     31          1           0       -1.413155    0.993692    0.835665
     32          1           0       -2.560768    3.182595    1.313535
     33          1           0       -2.743467    3.462239   -0.424660
     34          1           0       -1.127503    3.427755    0.301134
 ---------------------------------------------------------------------

 SCF Done:  E(RHF) =  -669.536332934     A.U. after   15 cycles
 E2 =    -0.2092370347D+01 EUMP2 =    -0.67162870328129D+03

 The electronic state is 1-A.
 Alpha  occ. eigenvalues --  -20.61035 -20.61011 -15.86021 -11.31317 -11.27876
 Alpha  occ. eigenvalues --  -11.27870 -11.27606 -11.26875 -11.26866 -11.21200
 Alpha  occ. eigenvalues --  -11.20835 -11.20820 -11.20501 -11.20288 -11.19410
 Alpha  occ. eigenvalues --   -1.60062  -1.39624  -1.19479  -1.08891  -1.07678
 Alpha  occ. eigenvalues --   -1.04872  -1.02646  -0.95745  -0.95096  -0.86275
 Alpha  occ. eigenvalues --   -0.86133  -0.82578  -0.78801  -0.77644  -0.77419
 Alpha  occ. eigenvalues --   -0.72258  -0.71356  -0.70591  -0.65139  -0.64877
 Alpha  occ. eigenvalues --   -0.64326  -0.62221  -0.60062  -0.58550  -0.56657
 Alpha  occ. eigenvalues --   -0.55374  -0.54435  -0.53200  -0.52966  -0.51759
 Alpha  occ. eigenvalues --   -0.51550  -0.49121  -0.49013  -0.48949  -0.47065
 Alpha  occ. eigenvalues --   -0.45914  -0.45291  -0.44942  -0.44537  -0.42886
 Alpha  occ. eigenvalues --   -0.37453  -0.36470
 Alpha virt. eigenvalues --    0.04869   0.11177   0.16347   0.21279   0.23502
 Alpha virt. eigenvalues --    0.25257   0.27059   0.27392   0.27845   0.28461
 Alpha virt. eigenvalues --    0.28979   0.30791   0.31877   0.32267   0.32766

 Mulliken charges:
               1
     1  C   -0.170420
     2  C   -0.218531
     3  C   -0.170677
     4  C    0.158942
     5  C   -0.170754
     6  C   -0.218474
     7  H    0.226127
     8  H    0.223918
     9  H    0.275827
    10  H    0.275591
    11  H    0.223892
    12  N    0.489358
    13  O   -0.457682
    14  O   -0.459068
    15  C   -0.296757
    16  C   -0.298747
    17  C   -0.474991
    18  H    0.147861
    19  H    0.145165
    20  H    0.151964
    21  H    0.151112
    22  H    0.152727
    23  H    0.154039
    24  H    0.158900
    25  C   -0.298001
    26  C   -0.297859
    27  C   -0.480588
    28  H    0.147477
    29  H    0.146816
    30  H    0.149668
    31  H    0.153621
    32  H    0.146767
    33  H    0.146790
    34  H    0.185988
 Sum of Mulliken charges =  -0.00000

 Dipole moment (field-independent basis, Debye):
    X=              2.7808    Y=             -4.4784    Z=              0.5331  Tot=              5.2984
 Quadrupole moment (field-independent basis, Debye-Ang):
   XX=            -83.6991   YY=            -98.1758   ZZ=            -89.3082
   XY=            -11.6290   XZ=             -0.2060   YZ=             -0.4124

 Normal termination of Gaussian 16 at Thu May  6 14:16:28 2021.
