 Gaussian 16, Revision A.03,
 Gaussian 16:  EM64L-G16RevA.03 25-Dec-2016

 -------------
 #p 6-31g* mp2
 -------------

 ------------------------------------------------------
 Input file generated by CHIRIPA (05-May-2021 14:51:08)
 ------------------------------------------------------
 Symbolic Z-matrix:
 Charge =  0 Multiplicity = 1

                         Standard orientation:
 ---------------------------------------------------------------------
 Center     Atomic      Atomic             Coordinates (Angstroms)
 Number     Number       Type             X           Y           Z
 ---------------------------------------------------------------------
      1          6           0        3.531564   -0.145368   -0.273123
      2          6           0        2.771512   -1.471206   -0.223531
      3          6           0        3.649834   -2.669926   -0.583275
      4          1           0        3.949100   -0.006823   -1.279807
      5          1           0        4.386254   -0.194707    0.415692
      6          1           0        1.917708   -1.418881   -0.911205
      7          1           0        2.355575   -1.606520    0.783098
      8          1           0        4.494234   -2.750325    0.108915
      9          1           0        4.053878   -2.561620   -1.595015
     10          1           0        3.086463   -3.607330   -0.541494
     11          6           0        2.666918    1.062325    0.084080
     12          6           0        3.426970    2.388164    0.034489
     13          6           0        2.548648    3.586884    0.394232
     14          1           0        1.812228    1.111665   -0.604734
     15          1           0        2.249382    0.923781    1.090765
     16          1           0        3.842907    2.523477   -0.972141
     17          1           0        4.280775    2.335838    0.722163
     18          1           0        2.144604    3.478578    1.405973
     19          1           0        1.704249    3.667283   -0.297957
     20          1           0        3.112020    4.524288    0.352452
     21          6           0       -2.695131   -0.896418    0.572367
     22          6           0       -1.434194   -1.483473   -0.062762
     23          6           0       -0.636374   -2.357248    0.905635
     24          1           0       -2.412658   -0.305249    1.454224
     25          1           0       -3.329931   -1.716319    0.935944
     26          1           0       -0.802609   -0.662755   -0.426270
     27          1           0       -1.719685   -2.073155   -0.943322
     28          1           0       -1.245494   -3.195294    1.259547
     29          1           0       -0.323207   -1.776879    1.779535
     30          1           0        0.260827   -2.766616    0.430968
     31          6           0       -3.503351   -0.020540   -0.383325
     32          6           0       -4.764288    0.566515    0.251804
     33          6           0       -5.562109    1.440291   -0.716593
     34          1           0       -2.868552    0.799361   -0.746902
     35          1           0       -3.785824   -0.611709   -1.265182
     36          1           0       -4.478797    1.156198    1.132364
     37          1           0       -5.395874   -0.254202    0.615313
     38          1           0       -5.875276    0.859921   -1.590492
     39          1           0       -4.952988    2.278335   -1.070503
     40          1           0       -6.459310    1.849659   -0.241926
 ---------------------------------------------------------------------

 SCF Done:  E(RHF) =  -470.732229234     A.U. after   11 cycles
 E2 =    -0.1583820424D+01 EUMP2 =    -0.47231604965770D+03

 The electronic state is 1-A.
 Alpha  occ. eigenvalues --  -11.21631 -11.21583 -11.21547 -11.21537 -11.21428
 Alpha  occ. eigenvalues --  -11.21375 -11.21355 -11.21315 -11.21106 -11.21088
 Alpha  occ. eigenvalues --  -11.21058 -11.20921  -1.08462  -1.08381  -1.03592
 Alpha  occ. eigenvalues --   -1.03446  -0.96025  -0.95915  -0.87042  -0.86933
 Alpha  occ. eigenvalues --   -0.79679  -0.79500  -0.78287  -0.78200  -0.65079
 Alpha  occ. eigenvalues --   -0.65023  -0.60952  -0.60886  -0.59669  -0.59098
 Alpha  occ. eigenvalues --   -0.57780  -0.57348  -0.55294  -0.55220  -0.52737
 Alpha  occ. eigenvalues --   -0.52591  -0.52432  -0.52346  -0.49970  -0.49863
 Alpha  occ. eigenvalues --   -0.47996  -0.47743  -0.46752  -0.46513  -0.45875
 Alpha  occ. eigenvalues --   -0.45760  -0.45713  -0.45518  -0.43833  -0.43664
 Alpha virt. eigenvalues --    0.21247   0.23206   0.23444   0.24468   0.25302
 Alpha virt. eigenvalues --    0.26156   0.26788   0.27363   0.28192   0.29345
 Alpha virt. eigenvalues --    0.30580   0.31005   0.31580   0.31909   0.32424

 Mulliken charges:
               1
     1  C   -0.297637
     2  C   -0.305701
     3  C   -0.477458
     4  H    0.149311
     5  H    0.149391
     6  H    0.154861
     7  H    0.157151
     8  H    0.155532
     9  H    0.155367
    10  H    0.160259
    11  C   -0.299376
    12  C   -0.299631
    13  C   -0.475698
    14  H    0.149834
    15  H    0.149402
    16  H    0.152136
    17  H    0.152176
    18  H    0.155040
    19  H    0.154924
    20  H    0.160465
    21  C   -0.298240
    22  C   -0.302154
    23  C   -0.479159
    24  H    0.149707
    25  H    0.149486
    26  H    0.153848
    27  H    0.151129
    28  H    0.153605
    29  H    0.153478
    30  H    0.168448
    31  C   -0.298241
    32  C   -0.299620
    33  C   -0.475684
    34  H    0.149291
    35  H    0.149443
    36  H    0.151991
    37  H    0.151890
    38  H    0.155086
    39  H    0.155134
    40  H    0.160213
 Sum of Mulliken charges =  -0.00000

 Dipole moment (field-independent basis, Debye):
    X=              0.0369    Y=             -0.0034    Z=              0.0029  Tot=              0.0371
 Quadrupole moment (field-independent basis, Debye-Ang):
   XX=            -85.2537   YY=            -85.5067   ZZ=            -84.1332
   XY=              1.3000   XZ=              0.1853   YZ=              0.3118

 Normal termination of Gaussian 16 at Thu May  6 05:16:49 2021.
