 Gaussian 16, Revision A.03,
 Gaussian 16:  EM64L-G16RevA.03 25-Dec-2016

 -------------
 #p 6-31g* mp2
 -------------

 ------------------------------------------------------
 Input file generated by CHIRIPA (05-May-2021 14:51:11)
 ------------------------------------------------------
 Symbolic Z-matrix:
 Charge =  0 Multiplicity = 1

                         Standard orientation:
 ---------------------------------------------------------------------
 Center     Atomic      Atomic             Coordinates (Angstroms)
 Number     Number       Type             X           Y           Z
 ---------------------------------------------------------------------
      1          6           0        2.652607   -0.756772    0.738550
      2          6           0        1.221726   -1.084350    0.310465
      3          6           0        0.322114   -1.455329    1.489815
      4          1           0        3.077136   -1.620846    1.267792
      5          1           0        2.631517    0.071993    1.459728
      6          1           0        1.245615   -1.911336   -0.410743
      7          1           0        0.800620   -0.219465   -0.217987
      8          1           0        0.268531   -0.630587    2.207819
      9          1           0        0.716054   -2.332070    2.013968
     10          1           0       -0.696102   -1.685693    1.161138
     11          6           0        3.564050   -0.383984   -0.429366
     12          6           0        4.994931   -0.056406   -0.001280
     13          6           0        5.894543    0.314573   -1.180630
     14          1           0        3.585141   -1.212749   -1.150544
     15          1           0        3.139521    0.480090   -0.958607
     16          1           0        5.416037   -0.921291    0.527172
     17          1           0        4.971042    0.770580    0.719927
     18          1           0        5.500603    1.191314   -1.704784
     19          1           0        5.948126   -0.510169   -1.898635
     20          1           0        6.912759    0.544937   -0.851953
     21          6           0       -3.590688    0.186186   -0.605323
     22          6           0       -4.037809   -1.151288   -0.014367
     23          6           0       -5.002558   -1.908154   -0.927718
     24          1           0       -4.475441    0.807187   -0.801581
     25          1           0       -3.112117    0.007591   -1.578189
     26          1           0       -4.514157   -0.970355    0.957730
     27          1           0       -3.151877   -1.769101    0.180686
     28          1           0       -4.533469   -2.117653   -1.894499
     29          1           0       -5.903489   -1.314369   -1.113040
     30          1           0       -5.309379   -2.861297   -0.485859
     31          6           0       -2.625969    0.954569    0.296138
     32          6           0       -2.178848    2.292044   -0.294817
     33          6           0       -1.214099    3.048909    0.618533
     34          1           0       -3.104540    1.133165    1.269005
     35          1           0       -1.741217    0.333570    0.492397
     36          1           0       -3.064780    2.909858   -0.489869
     37          1           0       -1.702500    2.111111   -1.266914
     38          1           0       -0.313168    2.455125    0.803855
     39          1           0       -1.683188    3.258410    1.585315
     40          1           0       -0.907278    4.002053    0.176675
 ---------------------------------------------------------------------

 SCF Done:  E(RHF) =  -470.732591720     A.U. after   11 cycles
 E2 =    -0.1584145216D+01 EUMP2 =    -0.47231673693635D+03

 The electronic state is 1-A.
 Alpha  occ. eigenvalues --  -11.21694 -11.21629 -11.21613 -11.21586 -11.21458
 Alpha  occ. eigenvalues --  -11.21396 -11.21359 -11.21251 -11.21115 -11.21098
 Alpha  occ. eigenvalues --  -11.21091 -11.21073  -1.08499  -1.08398  -1.03597
 Alpha  occ. eigenvalues --   -1.03522  -0.96058  -0.95952  -0.87062  -0.86980
 Alpha  occ. eigenvalues --   -0.79652  -0.79591  -0.78300  -0.78223  -0.65261
 Alpha  occ. eigenvalues --   -0.64952  -0.61120  -0.60799  -0.59429  -0.59332
 Alpha  occ. eigenvalues --   -0.57723  -0.57521  -0.55393  -0.55188  -0.52800
 Alpha  occ. eigenvalues --   -0.52637  -0.52476  -0.52366  -0.50013  -0.49875
 Alpha  occ. eigenvalues --   -0.48018  -0.47867  -0.46693  -0.46620  -0.45857
 Alpha  occ. eigenvalues --   -0.45782  -0.45726  -0.45578  -0.43817  -0.43742
 Alpha virt. eigenvalues --    0.19821   0.22654   0.23637   0.24165   0.26283
 Alpha virt. eigenvalues --    0.26420   0.26866   0.27703   0.28134   0.28972
 Alpha virt. eigenvalues --    0.30325   0.31295   0.31742   0.32063   0.32168

 Mulliken charges:
               1
     1  C   -0.298328
     2  C   -0.303848
     3  C   -0.484104
     4  H    0.150160
     5  H    0.149854
     6  H    0.152341
     7  H    0.153782
     8  H    0.156721
     9  H    0.157093
    10  H    0.164907
    11  C   -0.298343
    12  C   -0.299735
    13  C   -0.475762
    14  H    0.149576
    15  H    0.149698
    16  H    0.152018
    17  H    0.152172
    18  H    0.155295
    19  H    0.155176
    20  H    0.160398
    21  C   -0.297666
    22  C   -0.303959
    23  C   -0.475546
    24  H    0.149497
    25  H    0.149129
    26  H    0.152308
    27  H    0.154780
    28  H    0.155208
    29  H    0.155390
    30  H    0.160260
    31  C   -0.310309
    32  C   -0.298869
    33  C   -0.477150
    34  H    0.148815
    35  H    0.165148
    36  H    0.151853
    37  H    0.151276
    38  H    0.155060
    39  H    0.155470
    40  H    0.160235
 Sum of Mulliken charges =  -0.00000

 Dipole moment (field-independent basis, Debye):
    X=              0.0231    Y=             -0.0241    Z=              0.0182  Tot=              0.0381
 Quadrupole moment (field-independent basis, Debye-Ang):
   XX=            -85.1758   YY=            -84.1659   ZZ=            -85.4243
   XY=             -1.2964   XZ=             -0.2230   YZ=              0.1719

 Normal termination of Gaussian 16 at Wed May  5 16:45:10 2021.
