 Gaussian 16, Revision A.03,
 Gaussian 16:  EM64L-G16RevA.03 25-Dec-2016

 -------------
 #p 6-31g* mp2
 -------------

 ------------------------------------------------------
 Input file generated by CHIRIPA (05-May-2021 14:55:23)
 ------------------------------------------------------
 Symbolic Z-matrix:
 Charge =  0 Multiplicity = 1

                         Standard orientation:
 ---------------------------------------------------------------------
 Center     Atomic      Atomic             Coordinates (Angstroms)
 Number     Number       Type             X           Y           Z
 ---------------------------------------------------------------------
      1          6           0       -1.643149   -2.442240   -1.338971
      2          6           0       -1.100940   -2.464567   -0.049773
      3          6           0       -1.194479   -1.342799    0.779344
      4          6           0       -1.839897   -0.210462    0.284836
      5          6           0       -2.390176   -0.157315   -0.994875
      6          6           0       -2.284905   -1.290715   -1.806583
      7          1           0       -1.565929   -3.318174   -1.976287
      8          1           0       -0.601987   -3.357473    0.316028
      9          1           0       -0.783598   -1.332817    1.781589
     10          1           0       -2.881690    0.747353   -1.331635
     11          1           0       -2.706923   -1.270517   -2.807352
     12          7           0       -1.945132    0.983261    1.153369
     13          8           0       -2.518699    1.968546    0.694162
     14          8           0       -1.452055    0.911013    2.276887
     15          6           0        2.826505   -0.056501   -0.258784
     16          6           0        2.608323   -1.180446    0.754690
     17          6           0        3.603576   -2.328999    0.587084
     18          1           0        2.747183   -0.466991   -1.274732
     19          1           0        3.851078    0.326932   -0.155704
     20          1           0        1.584021   -1.560710    0.650668
     21          1           0        2.687983   -0.767194    1.768343
     22          1           0        4.630397   -1.970262    0.711776
     23          1           0        3.520161   -2.768286   -0.412250
     24          1           0        3.429513   -3.121461    1.321635
     25          6           0        1.839229    1.098937   -0.103944
     26          6           0        2.057411    2.222883   -1.117418
     27          6           0        1.062159    3.371435   -0.949812
     28          1           0        0.814656    0.715505   -0.207024
     29          1           0        1.918551    1.509428    0.912003
     30          1           0        1.977750    1.809632   -2.131071
     31          1           0        3.081714    2.603146   -1.013396
     32          1           0        1.145574    3.810722    0.049522
     33          1           0        0.035338    3.012698   -1.074504
     34          1           0        1.236221    4.163898   -1.684364
 ---------------------------------------------------------------------

 SCF Done:  E(RHF) =  -669.533817046     A.U. after   15 cycles
 E2 =    -0.2096504546D+01 EUMP2 =    -0.67163032159232D+03

 The electronic state is 1-A.
 Alpha  occ. eigenvalues --  -20.60888 -20.60882 -15.85910 -11.31271 -11.27884
 Alpha  occ. eigenvalues --  -11.27846 -11.27624 -11.26892 -11.26877 -11.21649
 Alpha  occ. eigenvalues --  -11.21331 -11.21318 -11.21271 -11.21058 -11.20490
 Alpha  occ. eigenvalues --   -1.59940  -1.39495  -1.19504  -1.08881  -1.08299
 Alpha  occ. eigenvalues --   -1.04908  -1.03396  -0.95829  -0.95708  -0.86843
 Alpha  occ. eigenvalues --   -0.86287  -0.82548  -0.79493  -0.78145  -0.77556
 Alpha  occ. eigenvalues --   -0.72138  -0.71261  -0.70587  -0.65162  -0.64950
 Alpha  occ. eigenvalues --   -0.64882  -0.62255  -0.60796  -0.59246  -0.57443
 Alpha  occ. eigenvalues --   -0.55385  -0.55134  -0.53320  -0.52978  -0.52519
 Alpha  occ. eigenvalues --   -0.52244  -0.49785  -0.48902  -0.48893  -0.47795
 Alpha  occ. eigenvalues --   -0.46557  -0.45622  -0.45524  -0.44837  -0.43636
 Alpha  occ. eigenvalues --   -0.37407  -0.36378
 Alpha virt. eigenvalues --    0.04900   0.11067   0.16258   0.21017   0.23133
 Alpha virt. eigenvalues --    0.24172   0.26527   0.26912   0.27653   0.28072
 Alpha virt. eigenvalues --    0.28699   0.30600   0.31586   0.31735   0.31975

 Mulliken charges:
               1
     1  C   -0.171614
     2  C   -0.216722
     3  C   -0.170738
     4  C    0.155319
     5  C   -0.173617
     6  C   -0.217804
     7  H    0.226389
     8  H    0.225268
     9  H    0.278046
    10  H    0.276262
    11  H    0.224105
    12  N    0.492777
    13  O   -0.460194
    14  O   -0.458791
    15  C   -0.295835
    16  C   -0.307344
    17  C   -0.475311
    18  H    0.146535
    19  H    0.150019
    20  H    0.150575
    21  H    0.155275
    22  H    0.157897
    23  H    0.152311
    24  H    0.156269
    25  C   -0.304800
    26  C   -0.299504
    27  C   -0.477731
    28  H    0.149418
    29  H    0.157761
    30  H    0.147426
    31  H    0.150810
    32  H    0.161581
    33  H    0.158581
    34  H    0.157381
 Sum of Mulliken charges =  -0.00000

 Dipole moment (field-independent basis, Debye):
    X=              0.2245    Y=             -4.1245    Z=             -2.9710  Tot=              5.0881
 Quadrupole moment (field-independent basis, Debye-Ang):
   XX=            -95.7712   YY=            -92.8815   ZZ=            -93.8038
   XY=              7.4802   XZ=              8.4474   YZ=             -1.9289

 Normal termination of Gaussian 16 at Wed May  5 20:43:30 2021.
