 Gaussian 16, Revision A.03,
 Gaussian 16:  EM64L-G16RevA.03 25-Dec-2016

 -------------
 #p 6-31g* mp2
 -------------

 ------------------------------------------------------
 Input file generated by CHIRIPA (05-May-2021 14:55:19)
 ------------------------------------------------------
 Symbolic Z-matrix:
 Charge =  0 Multiplicity = 1

                         Standard orientation:
 ---------------------------------------------------------------------
 Center     Atomic      Atomic             Coordinates (Angstroms)
 Number     Number       Type             X           Y           Z
 ---------------------------------------------------------------------
      1          6           0        1.721130   -1.239464    2.232278
      2          6           0        2.940485   -1.592329    1.644757
      3          6           0        3.370853   -0.965893    0.471339
      4          6           0        2.553152    0.013551   -0.090217
      5          6           0        1.333122    0.387092    0.471284
      6          6           0        0.922748   -0.252619    1.644702
      7          1           0        1.394575   -1.731250    3.143817
      8          1           0        3.562577   -2.358376    2.098869
      9          1           0        4.310286   -1.219682   -0.004554
     10          1           0        0.734677    1.154403   -0.004651
     11          1           0       -0.024696    0.023453    2.098772
     12          7           0        2.998181    0.683757   -1.332462
     13          8           0        2.259476    1.543544   -1.807562
     14          8           0        4.077272    0.336588   -1.807512
     15          6           0       -3.228942    0.640789    0.413237
     16          6           0       -2.611898    1.992658    0.053108
     17          6           0       -2.729336    3.015920    1.183124
     18          1           0       -4.287161    0.784871    0.670841
     19          1           0       -2.738026    0.250166    1.315351
     20          1           0       -3.102885    2.379970   -0.848856
     21          1           0       -1.555074    1.845315   -0.203855
     22          1           0       -2.223351    2.654518    2.084217
     23          1           0       -3.779956    3.192211    1.435550
     24          1           0       -2.281855    3.975033    0.904332
     25          6           0       -3.119362   -0.392706   -0.706408
     26          6           0       -3.736406   -1.744575   -0.346278
     27          6           0       -3.618969   -2.767837   -1.476295
     28          1           0       -3.610278   -0.002082   -1.608522
     29          1           0       -2.061143   -0.536787   -0.964012
     30          1           0       -4.793230   -1.597231   -0.089317
     31          1           0       -3.245419   -2.131886    0.555685
     32          1           0       -2.568349   -2.944128   -1.728722
     33          1           0       -4.124953   -2.406435   -2.377388
     34          1           0       -4.066449   -3.726949   -1.197503
 ---------------------------------------------------------------------

 SCF Done:  E(RHF) =  -669.535430888     A.U. after   15 cycles
 E2 =    -0.2092280081D+01 EUMP2 =    -0.67162771096878D+03

 The electronic state is 1-A.
 Alpha  occ. eigenvalues --  -20.60785 -20.60780 -15.85837 -11.31212 -11.27786
 Alpha  occ. eigenvalues --  -11.27776 -11.27531 -11.26808 -11.26798 -11.22235
 Alpha  occ. eigenvalues --  -11.22035 -11.21992 -11.21788 -11.21650 -11.21327
 Alpha  occ. eigenvalues --   -1.59859  -1.39413  -1.19390  -1.08959  -1.08782
 Alpha  occ. eigenvalues --   -1.04797  -1.04012  -0.96446  -0.95616  -0.87460
 Alpha  occ. eigenvalues --   -0.86194  -0.82448  -0.80081  -0.78754  -0.77496
 Alpha  occ. eigenvalues --   -0.72056  -0.71183  -0.70509  -0.65645  -0.65033
 Alpha  occ. eigenvalues --   -0.64803  -0.62207  -0.61342  -0.59810  -0.58048
 Alpha  occ. eigenvalues --   -0.55751  -0.55296  -0.53136  -0.53115  -0.52935
 Alpha  occ. eigenvalues --   -0.52818  -0.50396  -0.48817  -0.48812  -0.48377
 Alpha  occ. eigenvalues --   -0.47131  -0.46281  -0.46217  -0.44815  -0.44268
 Alpha  occ. eigenvalues --   -0.37370  -0.36393
 Alpha virt. eigenvalues --    0.05020   0.11231   0.16441   0.18260   0.23021
 Alpha virt. eigenvalues --    0.23731   0.24686   0.25452   0.27556   0.28482
 Alpha virt. eigenvalues --    0.29391   0.30043   0.31365   0.31512   0.32180

 Mulliken charges:
               1
     1  C   -0.171087
     2  C   -0.218667
     3  C   -0.170224
     4  C    0.160260
     5  C   -0.181589
     6  C   -0.224277
     7  H    0.225934
     8  H    0.223651
     9  H    0.275789
    10  H    0.286392
    11  H    0.227019
    12  N    0.487302
    13  O   -0.460062
    14  O   -0.460306
    15  C   -0.299229
    16  C   -0.306288
    17  C   -0.475623
    18  H    0.153220
    19  H    0.140349
    20  H    0.159712
    21  H    0.149786
    22  H    0.148388
    23  H    0.158311
    24  H    0.165719
    25  C   -0.299666
    26  C   -0.299199
    27  C   -0.476247
    28  H    0.153728
    29  H    0.151221
    30  H    0.152657
    31  H    0.148260
    32  H    0.157060
    33  H    0.157293
    34  H    0.160411
 Sum of Mulliken charges =  -0.00000

 Dipole moment (field-independent basis, Debye):
    X=             -1.6825    Y=             -2.3281    Z=              4.2637  Tot=              5.1410
 Quadrupole moment (field-independent basis, Debye-Ang):
   XX=            -98.1141   YY=            -94.1143   ZZ=            -96.6303
   XY=             -9.3571   XZ=             12.1045   YZ=             -0.5757

 Normal termination of Gaussian 16 at Thu May  6 01:20:55 2021.
