 Gaussian 16, Revision A.03,
 Gaussian 16:  EM64L-G16RevA.03 25-Dec-2016

 -------------
 #p 6-31g* mp2
 -------------

 ------------------------------------------------------
 Input file generated by CHIRIPA (05-May-2021 14:51:12)
 ------------------------------------------------------
 Symbolic Z-matrix:
 Charge =  0 Multiplicity = 1

                         Standard orientation:
 ---------------------------------------------------------------------
 Center     Atomic      Atomic             Coordinates (Angstroms)
 Number     Number       Type             X           Y           Z
 ---------------------------------------------------------------------
      1          6           0        2.794238   -0.484481   -0.705019
      2          6           0        2.725835   -1.599157    0.339396
      3          6           0        3.499195   -2.849894   -0.079373
      4          1           0        2.398748   -0.859639   -1.658847
      5          1           0        3.846449   -0.223312   -0.884010
      6          1           0        1.674000   -1.857188    0.517380
      7          1           0        3.121356   -1.221243    1.290900
      8          1           0        4.556463   -2.614009   -0.237938
      9          1           0        3.100883   -3.253567   -1.015854
     10          1           0        3.436964   -3.633967    0.681690
     11          6           0        2.025893    0.772476   -0.300747
     12          6           0        2.094296    1.887152   -1.345162
     13          6           0        1.320937    3.137889   -0.926393
     14          1           0        0.973682    0.511307   -0.121756
     15          1           0        2.421383    1.147634    0.653082
     16          1           0        1.698775    1.509238   -2.296666
     17          1           0        3.146131    2.145183   -1.523146
     18          1           0        1.719248    3.541562    0.010088
     19          1           0        0.263668    2.902004   -0.767827
     20          1           0        1.383167    3.921963   -1.687456
     21          6           0       -2.056727    0.395159    0.912631
     22          6           0       -1.342270   -0.153121    2.148320
     23          6           0       -0.640123    0.937548    2.957778
     24          1           0       -1.327692    0.914551    0.275698
     25          1           0       -2.790904    1.149896    1.226880
     26          1           0       -0.610631   -0.907597    1.831953
     27          1           0       -2.073055   -0.671434    2.782292
     28          1           0       -1.360889    1.686514    3.301502
     29          1           0        0.109844    1.449008    2.345763
     30          1           0       -0.135914    0.523558    3.836552
     31          6           0       -2.763403   -0.683154    0.093134
     32          6           0       -3.477861   -0.134874   -1.142554
     33          6           0       -4.180009   -1.225544   -1.952012
     34          1           0       -2.029228   -1.437891   -0.221114
     35          1           0       -3.492439   -1.202545    0.730068
     36          1           0       -2.747075    0.383439   -1.776527
     37          1           0       -4.209500    0.619603   -0.826187
     38          1           0       -4.929974   -1.737004   -1.339998
     39          1           0       -3.459241   -1.974509   -2.295737
     40          1           0       -4.684217   -0.811553   -2.830788
 ---------------------------------------------------------------------

 SCF Done:  E(RHF) =  -470.732797411     A.U. after   11 cycles
 E2 =    -0.1585050247D+01 EUMP2 =    -0.47231784765759D+03

 The electronic state is 1-A.
 Alpha  occ. eigenvalues --  -11.21668 -11.21667 -11.21643 -11.21576 -11.21465
 Alpha  occ. eigenvalues --  -11.21435 -11.21404 -11.21367 -11.21130 -11.21119
 Alpha  occ. eigenvalues --  -11.21104 -11.20973  -1.08538  -1.08421  -1.03599
 Alpha  occ. eigenvalues --   -1.03525  -0.96043  -0.95975  -0.87058  -0.86994
 Alpha  occ. eigenvalues --   -0.79702  -0.79557  -0.78398  -0.78208  -0.65418
 Alpha  occ. eigenvalues --   -0.64841  -0.61012  -0.60924  -0.59451  -0.59305
 Alpha  occ. eigenvalues --   -0.57661  -0.57576  -0.55344  -0.55257  -0.52731
 Alpha  occ. eigenvalues --   -0.52665  -0.52474  -0.52395  -0.50014  -0.49915
 Alpha  occ. eigenvalues --   -0.48070  -0.47912  -0.46840  -0.46547  -0.46237
 Alpha  occ. eigenvalues --   -0.45786  -0.45694  -0.45202  -0.43846  -0.43790
 Alpha virt. eigenvalues --    0.19584   0.22436   0.23697   0.23860   0.25238
 Alpha virt. eigenvalues --    0.26157   0.26727   0.28228   0.28597   0.29797
 Alpha virt. eigenvalues --    0.30863   0.31156   0.31565   0.31788   0.32208

 Mulliken charges:
               1
     1  C   -0.297659
     2  C   -0.302982
     3  C   -0.475672
     4  H    0.149357
     5  H    0.149942
     6  H    0.154112
     7  H    0.152620
     8  H    0.155497
     9  H    0.155152
    10  H    0.160574
    11  C   -0.308575
    12  C   -0.299248
    13  C   -0.480062
    14  H    0.159118
    15  H    0.150926
    16  H    0.151583
    17  H    0.152356
    18  H    0.155681
    19  H    0.158272
    20  H    0.160949
    21  C   -0.306802
    22  C   -0.303343
    23  C   -0.479141
    24  H    0.155665
    25  H    0.150367
    26  H    0.155077
    27  H    0.152247
    28  H    0.154474
    29  H    0.160190
    30  H    0.159665
    31  C   -0.298253
    32  C   -0.299572
    33  C   -0.475692
    34  H    0.148491
    35  H    0.150291
    36  H    0.151238
    37  H    0.152320
    38  H    0.155393
    39  H    0.155035
    40  H    0.160409
 Sum of Mulliken charges =  -0.00000

 Dipole moment (field-independent basis, Debye):
    X=              0.0272    Y=              0.0091    Z=             -0.0081  Tot=              0.0298
 Quadrupole moment (field-independent basis, Debye-Ang):
   XX=            -83.8264   YY=            -85.9991   ZZ=            -84.8364
   XY=              0.3329   XZ=             -0.3604   YZ=             -0.3955

 Normal termination of Gaussian 16 at Thu May  6 05:29:38 2021.
