 Gaussian 16, Revision A.03,
 Gaussian 16:  EM64L-G16RevA.03 25-Dec-2016

 -------------
 #p 6-31g* mp2
 -------------

 ------------------------------------------------------
 Input file generated by CHIRIPA (05-May-2021 14:51:10)
 ------------------------------------------------------
 Symbolic Z-matrix:
 Charge =  0 Multiplicity = 1

                         Standard orientation:
 ---------------------------------------------------------------------
 Center     Atomic      Atomic             Coordinates (Angstroms)
 Number     Number       Type             X           Y           Z
 ---------------------------------------------------------------------
      1          6           0        5.103877   -0.137580   -0.330944
      2          6           0        6.204460   -0.799661    0.498724
      3          6           0        7.559820   -0.798670   -0.208944
      4          1           0        5.016437   -0.658140   -1.294436
      5          1           0        5.398356    0.896027   -0.559709
      6          1           0        5.907370   -1.831277    0.727029
      7          1           0        6.289160   -0.277584    1.460430
      8          1           0        7.882040    0.225575   -0.422717
      9          1           0        7.498080   -1.336945   -1.160284
     10          1           0        8.331980   -1.276735    0.401860
     11          6           0        3.743033   -0.130823    0.363164
     12          6           0        2.642450    0.531259   -0.466505
     13          6           0        1.287091    0.530267    0.241164
     14          1           0        3.448554   -1.164430    0.591929
     15          1           0        3.830473    0.389738    1.326655
     16          1           0        2.557750    0.009182   -1.428210
     17          1           0        2.939541    1.562874   -0.694809
     18          1           0        1.348830    1.068543    1.192504
     19          1           0        0.964871   -0.493977    0.454936
     20          1           0        0.514930    1.008333   -0.369640
     21          6           0       -5.001485   -0.276636    0.267662
     22          6           0       -5.199187   -1.616294   -0.442419
     23          6           0       -6.359257   -2.426717    0.136585
     24          1           0       -4.826248   -0.457993    1.336936
     25          1           0       -5.929266    0.307936    0.197714
     26          1           0       -4.270859   -2.197596   -0.372347
     27          1           0       -5.373783   -1.431737   -1.510161
     28          1           0       -7.298046   -1.869752    0.052539
     29          1           0       -6.188855   -2.639962    1.196817
     30          1           0       -6.482744   -3.380548   -0.385736
     31          6           0       -3.845425    0.545039   -0.299882
     32          6           0       -3.647723    1.884696    0.410200
     33          6           0       -2.487654    2.695120   -0.168804
     34          1           0       -2.917644   -0.039533   -0.229933
     35          1           0       -4.020661    0.726395   -1.369155
     36          1           0       -3.473128    1.700140    1.477941
     37          1           0       -4.576051    2.465999    0.340127
     38          1           0       -2.658054    2.908365   -1.229036
     39          1           0       -1.548864    2.138154   -0.084758
     40          1           0       -2.364167    3.648950    0.353516
 ---------------------------------------------------------------------

 SCF Done:  E(RHF) =  -470.733320073     A.U. after   11 cycles
 E2 =    -0.1582254549D+01 EUMP2 =    -0.47231557462169D+03

 The electronic state is 1-A.
 Alpha  occ. eigenvalues --  -11.21629 -11.21612 -11.21578 -11.21551 -11.21422
 Alpha  occ. eigenvalues --  -11.21367 -11.21362 -11.21306 -11.21116 -11.21079
 Alpha  occ. eigenvalues --  -11.21053 -11.20994  -1.08449  -1.08391  -1.03556
 Alpha  occ. eigenvalues --   -1.03488  -0.96020  -0.95929  -0.87053  -0.86934
 Alpha  occ. eigenvalues --   -0.79641  -0.79532  -0.78261  -0.78203  -0.65078
 Alpha  occ. eigenvalues --   -0.65023  -0.60952  -0.60907  -0.59422  -0.59280
 Alpha  occ. eigenvalues --   -0.57680  -0.57495  -0.55312  -0.55218  -0.52803
 Alpha  occ. eigenvalues --   -0.52633  -0.52456  -0.52258  -0.49964  -0.49844
 Alpha  occ. eigenvalues --   -0.47979  -0.47822  -0.46648  -0.46579  -0.45803
 Alpha  occ. eigenvalues --   -0.45748  -0.45725  -0.45671  -0.43770  -0.43741
 Alpha virt. eigenvalues --    0.22049   0.22984   0.23553   0.24764   0.26147
 Alpha virt. eigenvalues --    0.26626   0.27116   0.27462   0.27832   0.28755
 Alpha virt. eigenvalues --    0.30262   0.31366   0.31775   0.31837   0.32047

 Mulliken charges:
               1
     1  C   -0.298271
     2  C   -0.299640
     3  C   -0.475715
     4  H    0.149709
     5  H    0.149644
     6  H    0.151912
     7  H    0.151963
     8  H    0.155231
     9  H    0.155205
    10  H    0.160281
    11  C   -0.298720
    12  C   -0.299050
    13  C   -0.482299
    14  H    0.149463
    15  H    0.149709
    16  H    0.152137
    17  H    0.152445
    18  H    0.155582
    19  H    0.154923
    20  H    0.166278
    21  C   -0.298277
    22  C   -0.299618
    23  C   -0.475685
    24  H    0.149691
    25  H    0.149430
    26  H    0.151899
    27  H    0.151839
    28  H    0.155145
    29  H    0.155163
    30  H    0.160128
    31  C   -0.298816
    32  C   -0.298869
    33  C   -0.483748
    34  H    0.150228
    35  H    0.149310
    36  H    0.152024
    37  H    0.151606
    38  H    0.154508
    39  H    0.163200
    40  H    0.160055
 Sum of Mulliken charges =  -0.00000

 Dipole moment (field-independent basis, Debye):
    X=              0.0341    Y=             -0.0038    Z=              0.0013  Tot=              0.0344
 Quadrupole moment (field-independent basis, Debye-Ang):
   XX=            -86.1495   YY=            -84.3198   ZZ=            -84.4075
   XY=             -0.5198   XZ=              1.1477   YZ=              0.2944

 Normal termination of Gaussian 16 at Wed May  5 19:48:48 2021.
