 Gaussian 16, Revision A.03,
 Gaussian 16:  EM64L-G16RevA.03 25-Dec-2016

 -------------
 #p 6-31g* mp2
 -------------

 ------------------------------------------------------
 Input file generated by CHIRIPA (05-May-2021 14:53:14)
 ------------------------------------------------------
 Symbolic Z-matrix:
 Charge =  0 Multiplicity = 1

                         Standard orientation:
 ---------------------------------------------------------------------
 Center     Atomic      Atomic             Coordinates (Angstroms)
 Number     Number       Type             X           Y           Z
 ---------------------------------------------------------------------
      1          6           0        3.741717    0.247683   -0.399501
      2          6           0        5.152285    0.831905   -0.316022
      3          6           0        5.603694    1.476506   -1.626942
      4          1           0        3.707206   -0.496714   -1.206735
      5          1           0        3.038338    1.044364   -0.678703
      6          1           0        5.852591    0.034653   -0.035709
      7          1           0        5.183491    1.574859    0.491234
      8          1           0        4.928083    2.290652   -1.908575
      9          1           0        5.600985    0.741694   -2.438512
     10          1           0        6.614685    1.887634   -1.544900
     11          6           0        3.276271   -0.400237    0.903299
     12          6           0        1.865703   -0.984459    0.819819
     13          6           0        1.414293   -1.629060    2.130740
     14          1           0        3.979650   -1.196918    1.182500
     15          1           0        3.310781    0.344160    1.710533
     16          1           0        1.834497   -1.727413    0.012564
     17          1           0        1.165396   -0.187207    0.539507
     18          1           0        1.417003   -0.894248    2.942310
     19          1           0        2.089905   -2.443206    2.412373
     20          1           0        0.403303   -2.040188    2.048698
     21          6           0       -3.566238    2.240820    0.766434
     22          6           0       -4.204187    1.680808   -0.345289
     23          6           0       -3.755747    0.472669   -0.887368
     24          6           0       -2.661659   -0.151282   -0.289917
     25          6           0       -2.004985    0.381483    0.818338
     26          6           0       -2.470605    1.590517    1.343682
     27          1           0       -3.921269    3.179679    1.181033
     28          1           0       -5.055300    2.183625   -0.795652
     29          1           0       -4.231037    0.016900   -1.747480
     30          1           0       -1.158973   -0.143103    1.245526
     31          1           0       -1.973215    2.023100    2.207117
     32          7           0       -2.177823   -1.430758   -0.854933
     33          8           0       -1.211888   -1.960742   -0.310210
     34          8           0       -2.773688   -1.879399   -1.831818
 ---------------------------------------------------------------------

 SCF Done:  E(RHF) =  -669.535238961     A.U. after   15 cycles
 E2 =    -0.2093157687D+01 EUMP2 =    -0.67162839664755D+03

 The electronic state is 1-A.
 Alpha  occ. eigenvalues --  -20.60885 -20.60880 -15.85917 -11.31235 -11.27805
 Alpha  occ. eigenvalues --  -11.27756 -11.27544 -11.26816 -11.26800 -11.21377
 Alpha  occ. eigenvalues --  -11.21078 -11.21024 -11.20967 -11.20883 -11.20594
 Alpha  occ. eigenvalues --   -1.59950  -1.39507  -1.19408  -1.08814  -1.08079
 Alpha  occ. eigenvalues --   -1.04805  -1.03172  -0.95743  -0.95564  -0.86668
 Alpha  occ. eigenvalues --   -0.86207  -0.82496  -0.79233  -0.77941  -0.77478
 Alpha  occ. eigenvalues --   -0.72156  -0.71260  -0.70530  -0.65067  -0.64913
 Alpha  occ. eigenvalues --   -0.64652  -0.62220  -0.60554  -0.58960  -0.57193
 Alpha  occ. eigenvalues --   -0.55327  -0.54949  -0.53137  -0.52894  -0.52301
 Alpha  occ. eigenvalues --   -0.52052  -0.49619  -0.48900  -0.48872  -0.47564
 Alpha  occ. eigenvalues --   -0.46272  -0.45500  -0.45341  -0.44810  -0.43403
 Alpha  occ. eigenvalues --   -0.37390  -0.36398
 Alpha virt. eigenvalues --    0.04948   0.11175   0.16459   0.20839   0.23207
 Alpha virt. eigenvalues --    0.24227   0.26829   0.27221   0.27704   0.27902
 Alpha virt. eigenvalues --    0.29499   0.31029   0.31571   0.31812   0.32224

 Mulliken charges:
               1
     1  C   -0.297749
     2  C   -0.299144
     3  C   -0.475444
     4  H    0.152877
     5  H    0.146997
     6  H    0.152156
     7  H    0.149708
     8  H    0.153916
     9  H    0.156311
    10  H    0.159168
    11  C   -0.298705
    12  C   -0.294851
    13  C   -0.489303
    14  H    0.149571
    15  H    0.143824
    16  H    0.168328
    17  H    0.140767
    18  H    0.143380
    19  H    0.157970
    20  H    0.175315
    21  C   -0.170147
    22  C   -0.218927
    23  C   -0.170037
    24  C    0.154566
    25  C   -0.174794
    26  C   -0.222784
    27  H    0.225795
    28  H    0.223612
    29  H    0.275638
    30  H    0.290632
    31  H    0.224243
    32  N    0.491802
    33  O   -0.465149
    34  O   -0.459541
 Sum of Mulliken charges =  -0.00000

 Dipole moment (field-independent basis, Debye):
    X=             -1.8319    Y=              4.3258    Z=              1.8562  Tot=              5.0511
 Quadrupole moment (field-independent basis, Debye-Ang):
   XX=            -83.8809   YY=            -95.9199   ZZ=            -94.9561
   XY=            -13.1146   XZ=             -1.9454   YZ=             -0.9493

 Normal termination of Gaussian 16 at Thu May  6 13:45:58 2021.
