 Gaussian 16, Revision A.03,
 Gaussian 16:  EM64L-G16RevA.03 25-Dec-2016

 -------------
 #p 6-31g* mp2
 -------------

 ------------------------------------------------------
 Input file generated by CHIRIPA (05-May-2021 14:51:13)
 ------------------------------------------------------
 Symbolic Z-matrix:
 Charge =  0 Multiplicity = 1

                         Standard orientation:
 ---------------------------------------------------------------------
 Center     Atomic      Atomic             Coordinates (Angstroms)
 Number     Number       Type             X           Y           Z
 ---------------------------------------------------------------------
      1          6           0       -3.728097    0.858818   -0.349855
      2          6           0       -2.663453    1.540213    0.510504
      3          6           0       -1.872550    2.600051   -0.256966
      4          1           0       -3.245386    0.397765   -1.222417
      5          1           0       -4.417056    1.620718   -0.740032
      6          1           0       -1.977518    0.777096    0.900069
      7          1           0       -3.148731    1.999533    1.381220
      8          1           0       -2.540260    3.382252   -0.632365
      9          1           0       -1.362392    2.152869   -1.116250
     10          1           0       -1.116966    3.074448    0.376991
     11          6           0       -4.527141   -0.203213    0.403370
     12          6           0       -5.591786   -0.884608   -0.456989
     13          6           0       -6.382689   -1.944445    0.310481
     14          1           0       -3.838182   -0.965113    0.793547
     15          1           0       -5.009853    0.257840    1.275933
     16          1           0       -5.106507   -1.343928   -1.327705
     17          1           0       -6.277720   -0.121490   -0.846554
     18          1           0       -6.892846   -1.497264    1.169765
     19          1           0       -5.714978   -2.726647    0.685880
     20          1           0       -7.138272   -2.418842   -0.323476
     21          6           0        4.768148   -0.008515    0.240095
     22          6           0        6.040784   -0.691533   -0.261770
     23          6           0        7.313897   -0.041427    0.280761
     24          1           0        4.791090    1.051716   -0.046835
     25          1           0        4.754978   -0.034849    1.338515
     26          1           0        6.050877   -0.665143   -1.358957
     27          1           0        6.014721   -1.750305    0.026222
     28          1           0        7.330540   -0.080926    1.374727
     29          1           0        7.366903    1.010401   -0.018321
     30          1           0        8.211653   -0.545388   -0.090614
     31          6           0        3.487090   -0.647090   -0.293610
     32          6           0        2.214454    0.035928    0.208255
     33          6           0        0.941341   -0.614178   -0.334275
     34          1           0        3.500260   -0.620756   -1.392030
     35          1           0        3.464148   -1.707321   -0.006680
     36          1           0        2.240517    1.094700   -0.079736
     37          1           0        2.204361    0.009538    1.305441
     38          1           0        0.888336   -1.666007   -0.035194
     39          1           0        0.924698   -0.574678   -1.428242
     40          1           0        0.043585   -0.110217    0.037099
 ---------------------------------------------------------------------

 SCF Done:  E(RHF) =  -470.733249671     A.U. after   11 cycles
 E2 =    -0.1582722374D+01 EUMP2 =    -0.47231597204484D+03

 The electronic state is 1-A.
 Alpha  occ. eigenvalues --  -11.21608 -11.21605 -11.21604 -11.21585 -11.21408
 Alpha  occ. eigenvalues --  -11.21391 -11.21349 -11.21331 -11.21073 -11.21072
 Alpha  occ. eigenvalues --  -11.21067 -11.21056  -1.08440  -1.08416  -1.03564
 Alpha  occ. eigenvalues --   -1.03499  -0.96018  -0.95942  -0.87008  -0.86986
 Alpha  occ. eigenvalues --   -0.79623  -0.79566  -0.78247  -0.78233  -0.65083
 Alpha  occ. eigenvalues --   -0.65057  -0.61036  -0.60919  -0.59399  -0.59252
 Alpha  occ. eigenvalues --   -0.57647  -0.57521  -0.55317  -0.55213  -0.52687
 Alpha  occ. eigenvalues --   -0.52656  -0.52416  -0.52378  -0.49959  -0.49880
 Alpha  occ. eigenvalues --   -0.47993  -0.47835  -0.46641  -0.46606  -0.45795
 Alpha  occ. eigenvalues --   -0.45772  -0.45714  -0.45692  -0.43805  -0.43728
 Alpha virt. eigenvalues --    0.20901   0.23043   0.23642   0.25264   0.26381
 Alpha virt. eigenvalues --    0.26592   0.27238   0.27490   0.27849   0.28941
 Alpha virt. eigenvalues --    0.30656   0.31242   0.31557   0.31782   0.32178

 Mulliken charges:
               1
     1  C   -0.298531
     2  C   -0.304801
     3  C   -0.477133
     4  H    0.150422
     5  H    0.149578
     6  H    0.155003
     7  H    0.152587
     8  H    0.155397
     9  H    0.156795
    10  H    0.160308
    11  C   -0.298388
    12  C   -0.299691
    13  C   -0.475718
    14  H    0.149851
    15  H    0.149514
    16  H    0.152163
    17  H    0.151828
    18  H    0.155097
    19  H    0.155251
    20  H    0.160210
    21  C   -0.298265
    22  C   -0.299646
    23  C   -0.475711
    24  H    0.149739
    25  H    0.149514
    26  H    0.151934
    27  H    0.151913
    28  H    0.155181
    29  H    0.155214
    30  H    0.160254
    31  C   -0.298458
    32  C   -0.298962
    33  C   -0.484910
    34  H    0.149511
    35  H    0.149569
    36  H    0.152564
    37  H    0.151774
    38  H    0.154723
    39  H    0.154737
    40  H    0.169585
 Sum of Mulliken charges =  -0.00000

 Dipole moment (field-independent basis, Debye):
    X=             -0.0055    Y=              0.0089    Z=             -0.0026  Tot=              0.0108
 Quadrupole moment (field-independent basis, Debye-Ang):
   XX=            -85.7973   YY=            -84.6493   ZZ=            -84.3276
   XY=             -1.3434   XZ=             -0.2255   YZ=             -0.1121

 Normal termination of Gaussian 16 at Thu May  6 05:32:44 2021.
