 Gaussian 16, Revision A.03,
 Gaussian 16:  EM64L-G16RevA.03 25-Dec-2016

 -------------
 #p 6-31g* mp2
 -------------

 ------------------------------------------------------
 Input file generated by CHIRIPA (05-May-2021 14:51:08)
 ------------------------------------------------------
 Symbolic Z-matrix:
 Charge =  0 Multiplicity = 1

                         Standard orientation:
 ---------------------------------------------------------------------
 Center     Atomic      Atomic             Coordinates (Angstroms)
 Number     Number       Type             X           Y           Z
 ---------------------------------------------------------------------
      1          6           0        4.019060    0.059266    0.329611
      2          6           0        5.006016    0.278826   -0.817427
      3          6           0        6.234755    1.084263   -0.394029
      4          1           0        3.702012    1.034474    0.723812
      5          1           0        4.532429   -0.458297    1.151789
      6          1           0        4.490573    0.794589   -1.637746
      7          1           0        5.320605   -0.697015   -1.209069
      8          1           0        6.774162    0.570816    0.408475
      9          1           0        5.939414    2.070895   -0.022637
     10          1           0        6.926974    1.229421   -1.229267
     11          6           0        2.785475   -0.744349   -0.078064
     12          6           0        1.798519   -0.963908    1.068974
     13          6           0        0.569780   -1.769345    0.645576
     14          1           0        2.272107   -0.226785   -0.900242
     15          1           0        3.102524   -1.719557   -0.472266
     16          1           0        1.483931    0.011933    1.460616
     17          1           0        2.313963   -1.479671    1.889293
     18          1           0        0.865121   -2.755977    0.274184
     19          1           0        0.030373   -1.255898   -0.156928
     20          1           0       -0.122439   -1.914503    1.480813
     21          6           0       -3.128486   -0.364763   -0.035241
     22          6           0       -4.070640   -1.450868   -0.555537
     23          6           0       -3.508997   -2.860456   -0.367362
     24          1           0       -2.162441   -0.448065   -0.551732
     25          1           0       -2.929279   -0.541808    1.030763
     26          1           0       -4.269111   -1.271032   -1.619908
     27          1           0       -5.034618   -1.364849   -0.037885
     28          1           0       -3.327632   -3.064524    0.692857
     29          1           0       -2.557776   -2.970173   -0.898155
     30          1           0       -4.198596   -3.621262   -0.746161
     31          6           0       -3.676049    1.049845   -0.216306
     32          6           0       -2.733895    2.135950    0.303991
     33          6           0       -3.295539    3.545538    0.115816
     34          1           0       -3.875257    1.226890   -1.282311
     35          1           0       -4.642094    1.133147    0.300185
     36          1           0       -1.769918    2.049932   -0.213662
     37          1           0       -2.535424    1.956114    1.368361
     38          1           0       -4.246760    3.655255    0.646609
     39          1           0       -3.476904    3.749606   -0.944404
     40          1           0       -2.605940    4.306343    0.494614
 ---------------------------------------------------------------------

 SCF Done:  E(RHF) =  -470.732953229     A.U. after   11 cycles
 E2 =    -0.1583057958D+01 EUMP2 =    -0.47231601118703D+03

 The electronic state is 1-A.
 Alpha  occ. eigenvalues --  -11.21615 -11.21599 -11.21563 -11.21559 -11.21396
 Alpha  occ. eigenvalues --  -11.21374 -11.21337 -11.21298 -11.21083 -11.21069
 Alpha  occ. eigenvalues --  -11.21003 -11.20986  -1.08428  -1.08397  -1.03527
 Alpha  occ. eigenvalues --   -1.03488  -0.95971  -0.95939  -0.86997  -0.86948
 Alpha  occ. eigenvalues --   -0.79646  -0.79510  -0.78278  -0.78165  -0.65103
 Alpha  occ. eigenvalues --   -0.64997  -0.60956  -0.60866  -0.59374  -0.59272
 Alpha  occ. eigenvalues --   -0.57580  -0.57557  -0.55338  -0.55165  -0.52686
 Alpha  occ. eigenvalues --   -0.52618  -0.52412  -0.52357  -0.50007  -0.49818
 Alpha  occ. eigenvalues --   -0.47961  -0.47839  -0.46716  -0.46564  -0.45874
 Alpha  occ. eigenvalues --   -0.45731  -0.45708  -0.45416  -0.43768  -0.43739
 Alpha virt. eigenvalues --    0.21554   0.23099   0.23759   0.24459   0.25254
 Alpha virt. eigenvalues --    0.26609   0.26929   0.27693   0.27886   0.29514
 Alpha virt. eigenvalues --    0.30529   0.31487   0.31549   0.32022   0.32302

 Mulliken charges:
               1
     1  C   -0.298246
     2  C   -0.299622
     3  C   -0.475697
     4  H    0.149668
     5  H    0.149572
     6  H    0.151772
     7  H    0.151924
     8  H    0.155203
     9  H    0.155176
    10  H    0.160217
    11  C   -0.298270
    12  C   -0.300308
    13  C   -0.477961
    14  H    0.148871
    15  H    0.149606
    16  H    0.152186
    17  H    0.151635
    18  H    0.154325
    19  H    0.158352
    20  H    0.161083
    21  C   -0.302006
    22  C   -0.299634
    23  C   -0.476391
    24  H    0.154649
    25  H    0.149744
    26  H    0.151412
    27  H    0.151565
    28  H    0.155092
    29  H    0.157300
    30  H    0.159665
    31  C   -0.297991
    32  C   -0.299415
    33  C   -0.475635
    34  H    0.149189
    35  H    0.149548
    36  H    0.150875
    37  H    0.151959
    38  H    0.155344
    39  H    0.155167
    40  H    0.160078
 Sum of Mulliken charges =  -0.00000

 Dipole moment (field-independent basis, Debye):
    X=             -0.0057    Y=             -0.0116    Z=              0.0055  Tot=              0.0141
 Quadrupole moment (field-independent basis, Debye-Ang):
   XX=            -85.4502   YY=            -85.5525   ZZ=            -83.9013
   XY=             -0.6303   XZ=             -0.4718   YZ=             -0.2813

 Normal termination of Gaussian 16 at Thu May  6 14:52:34 2021.
