 Gaussian 16, Revision A.03,
 Gaussian 16:  EM64L-G16RevA.03 25-Dec-2016

 -------------
 #p 6-31g* mp2
 -------------

 ------------------------------------------------------
 Input file generated by CHIRIPA (05-May-2021 14:51:10)
 ------------------------------------------------------
 Symbolic Z-matrix:
 Charge =  0 Multiplicity = 1

                         Standard orientation:
 ---------------------------------------------------------------------
 Center     Atomic      Atomic             Coordinates (Angstroms)
 Number     Number       Type             X           Y           Z
 ---------------------------------------------------------------------
      1          6           0       -3.517833    0.189605   -0.357735
      2          6           0       -3.828343    1.576470    0.206334
      3          6           0       -4.714856    2.407281   -0.721913
      4          1           0       -3.027019    0.299477   -1.334450
      5          1           0       -4.460928   -0.343977   -0.540100
      6          1           0       -2.884899    2.106759    0.388879
      7          1           0       -4.318303    1.463286    1.181908
      8          1           0       -5.670811    1.902584   -0.895209
      9          1           0       -4.229262    2.549712   -1.692744
     10          1           0       -4.924336    3.394858   -0.299220
     11          6           0       -2.632521   -0.652898    0.558856
     12          6           0       -2.322011   -2.039764   -0.005212
     13          6           0       -1.435499   -2.870575    0.923034
     14          1           0       -1.689426   -0.119316    0.741222
     15          1           0       -3.123336   -0.762770    1.535572
     16          1           0       -1.832051   -1.926580   -0.980786
     17          1           0       -3.265456   -2.570052   -0.187757
     18          1           0       -1.921092   -3.013006    1.893866
     19          1           0       -0.479543   -2.365878    1.096331
     20          1           0       -1.226018   -3.858152    0.500342
     21          6           0        3.083196   -0.367212   -0.574623
     22          6           0        2.683228   -1.679883    0.099844
     23          6           0        2.704056   -2.868729   -0.861408
     24          1           0        2.403641   -0.172537   -1.415607
     25          1           0        4.088885   -0.475219   -1.003949
     26          1           0        1.679152   -1.568985    0.528970
     27          1           0        3.363695   -1.871359    0.939437
     28          1           0        3.705865   -3.007759   -1.280515
     29          1           0        2.011751   -2.703667   -1.693314
     30          1           0        2.414918   -3.796790   -0.358455
     31          6           0        3.067159    0.830506    0.373502
     32          6           0        3.467127    2.143177   -0.300966
     33          6           0        3.446298    3.332023    0.660286
     34          1           0        2.061470    0.938513    0.802827
     35          1           0        3.746713    0.635830    1.214485
     36          1           0        2.786659    2.334652   -1.140558
     37          1           0        4.471203    2.032279   -0.730092
     38          1           0        4.138604    3.166961    1.492193
     39          1           0        2.444490    3.471053    1.079394
     40          1           0        3.735437    4.260084    0.157333
 ---------------------------------------------------------------------

 SCF Done:  E(RHF) =  -470.733331572     A.U. after   11 cycles
 E2 =    -0.1582826176D+01 EUMP2 =    -0.47231615774845D+03

 The electronic state is 1-A.
 Alpha  occ. eigenvalues --  -11.21636 -11.21634 -11.21633 -11.21615 -11.21448
 Alpha  occ. eigenvalues --  -11.21440 -11.21388 -11.21380 -11.21097 -11.21096
 Alpha  occ. eigenvalues --  -11.21074 -11.21069  -1.08475  -1.08454  -1.03580
 Alpha  occ. eigenvalues --   -1.03532  -0.96027  -0.95980  -0.87026  -0.87014
 Alpha  occ. eigenvalues --   -0.79666  -0.79577  -0.78306  -0.78251  -0.65189
 Alpha  occ. eigenvalues --   -0.65017  -0.61134  -0.60795  -0.59378  -0.59364
 Alpha  occ. eigenvalues --   -0.57650  -0.57583  -0.55405  -0.55177  -0.52718
 Alpha  occ. eigenvalues --   -0.52669  -0.52452  -0.52408  -0.50042  -0.49876
 Alpha  occ. eigenvalues --   -0.48039  -0.47850  -0.46827  -0.46493  -0.45914
 Alpha  occ. eigenvalues --   -0.45791  -0.45790  -0.45547  -0.43826  -0.43797
 Alpha virt. eigenvalues --    0.20474   0.23372   0.23466   0.25086   0.25627
 Alpha virt. eigenvalues --    0.26818   0.27153   0.27254   0.28455   0.28983
 Alpha virt. eigenvalues --    0.30272   0.31186   0.31445   0.31915   0.32304

 Mulliken charges:
               1
     1  C   -0.298308
     2  C   -0.299620
     3  C   -0.475728
     4  H    0.149489
     5  H    0.149796
     6  H    0.151648
     7  H    0.152110
     8  H    0.155295
     9  H    0.155155
    10  H    0.160390
    11  C   -0.298242
    12  C   -0.299477
    13  C   -0.482410
    14  H    0.148315
    15  H    0.150024
    16  H    0.151611
    17  H    0.152230
    18  H    0.155295
    19  H    0.161627
    20  H    0.160734
    21  C   -0.297691
    22  C   -0.306848
    23  C   -0.475275
    24  H    0.149202
    25  H    0.149777
    26  H    0.157682
    27  H    0.152308
    28  H    0.155148
    29  H    0.154869
    30  H    0.161111
    31  C   -0.298286
    32  C   -0.299664
    33  C   -0.475719
    34  H    0.148732
    35  H    0.150005
    36  H    0.151766
    37  H    0.152136
    38  H    0.155336
    39  H    0.155107
    40  H    0.160369
 Sum of Mulliken charges =  -0.00000

 Dipole moment (field-independent basis, Debye):
    X=              0.0032    Y=             -0.0126    Z=              0.0053  Tot=              0.0141
 Quadrupole moment (field-independent basis, Debye-Ang):
   XX=            -83.4167   YY=            -86.0124   ZZ=            -85.1700
   XY=              0.5555   XZ=             -0.5210   YZ=             -0.3666

 Normal termination of Gaussian 16 at Thu May  6 02:13:50 2021.
