 Gaussian 16, Revision A.03,
 Gaussian 16:  EM64L-G16RevA.03 25-Dec-2016

 -------------
 #p 6-31g* mp2
 -------------

 ------------------------------------------------------
 Input file generated by CHIRIPA (05-May-2021 14:57:24)
 ------------------------------------------------------
 Symbolic Z-matrix:
 Charge =  0 Multiplicity = 1

                         Standard orientation:
 ---------------------------------------------------------------------
 Center     Atomic      Atomic             Coordinates (Angstroms)
 Number     Number       Type             X           Y           Z
 ---------------------------------------------------------------------
      1          6           0        2.587794    2.203994   -0.043852
      2          6           0        3.963283    2.371609   -0.234782
      3          6           0        4.814267    1.263257   -0.278725
      4          6           0        4.253395   -0.003961   -0.127497
      5          6           0        2.887111   -0.203509    0.064177
      6          6           0        2.055037    0.919234    0.104756
      7          1           0        1.934074    3.070578   -0.011023
      8          1           0        4.379811    3.368185   -0.350486
      9          1           0        5.882788    1.364300   -0.425259
     10          1           0        2.501205   -1.209438    0.176432
     11          1           0        0.987197    0.786051    0.253168
     12          7           0        5.144284   -1.184942   -0.172237
     13          8           0        4.625412   -2.290815   -0.036401
     14          8           0        6.344567   -0.982359   -0.342293
     15          6           0       -6.367024    0.353174   -0.859917
     16          6           0       -5.628253    1.347368   -0.210056
     17          6           0       -4.374661    1.057373    0.336716
     18          6           0       -3.888033   -0.243257    0.214870
     19          6           0       -4.600136   -1.255478   -0.426696
     20          6           0       -5.851516   -0.942791   -0.965976
     21          1           0       -7.339984    0.587263   -1.281753
     22          1           0       -6.026107    2.354703   -0.126193
     23          1           0       -3.781595    1.807912    0.845030
     24          1           0       -4.177237   -2.250452   -0.494529
     25          1           0       -6.423039   -1.716900   -1.470120
     26          7           0       -2.562083   -0.562272    0.789748
     27          8           0       -2.155566   -1.715886    0.669093
     28          8           0       -1.954426    0.347337    1.350107
 ---------------------------------------------------------------------

 SCF Done:  E(RHF) =  -868.340130368     A.U. after   16 cycles
 E2 =    -0.2598341255D+01 EUMP2 =    -0.87093847162309D+03

 The electronic state is 1-A.
 Alpha  occ. eigenvalues --  -20.61755 -20.61718 -20.59987 -20.59970 -15.86750
 Alpha  occ. eigenvalues --  -15.85025 -11.31863 -11.30255 -11.28421 -11.28376
 Alpha  occ. eigenvalues --  -11.28088 -11.27363 -11.27333 -11.26854 -11.26679
 Alpha  occ. eigenvalues --  -11.26514 -11.25884 -11.25575  -1.60797  -1.59059
 Alpha  occ. eigenvalues --   -1.40355  -1.38615  -1.20010  -1.18400  -1.09451
 Alpha  occ. eigenvalues --   -1.07830  -1.05373  -1.03755  -0.96327  -0.94690
 Alpha  occ. eigenvalues --   -0.86782  -0.85165  -0.83166  -0.81505  -0.78246
 Alpha  occ. eigenvalues --   -0.76564  -0.72970  -0.72098  -0.71248  -0.71111
 Alpha  occ. eigenvalues --   -0.70380  -0.69528  -0.65664  -0.65370  -0.64043
 Alpha  occ. eigenvalues --   -0.63721  -0.62722  -0.61078  -0.55878  -0.54298
 Alpha  occ. eigenvalues --   -0.53716  -0.53459  -0.52132  -0.51818  -0.49743
 Alpha  occ. eigenvalues --   -0.49708  -0.48010  -0.47991  -0.45806  -0.44050
 Alpha  occ. eigenvalues --   -0.37972  -0.36964  -0.36406  -0.35358
 Alpha virt. eigenvalues --    0.04236   0.05922   0.10694   0.12284   0.15774
 Alpha virt. eigenvalues --    0.17452   0.20865   0.22512   0.26796   0.27693
 Alpha virt. eigenvalues --    0.28582   0.29243   0.30454   0.31857   0.32155

 Mulliken charges:
               1
     1  C   -0.172664
     2  C   -0.218784
     3  C   -0.173181
     4  C    0.158008
     5  C   -0.173239
     6  C   -0.225954
     7  H    0.222670
     8  H    0.219106
     9  H    0.272162
    10  H    0.280309
    11  H    0.243602
    12  N    0.487966
    13  O   -0.460076
    14  O   -0.463994
    15  C   -0.169761
    16  C   -0.218468
    17  C   -0.171070
    18  C    0.157591
    19  C   -0.170194
    20  C   -0.218485
    21  H    0.227954
    22  H    0.224810
    23  H    0.273925
    24  H    0.277546
    25  H    0.226092
    26  N    0.488300
    27  O   -0.456011
    28  O   -0.468160
 Sum of Mulliken charges =  -0.00000

 Dipole moment (field-independent basis, Debye):
    X=             -8.3871    Y=              5.1352    Z=             -1.8722  Tot=             10.0109
 Quadrupole moment (field-independent basis, Debye-Ang):
   XX=            -93.0622   YY=            -99.7042   ZZ=           -106.8063
   XY=             17.5396   XZ=              8.0875   YZ=              1.4661

 Normal termination of Gaussian 16 at Fri May  7 03:24:02 2021.
