 Gaussian 16, Revision A.03,
 Gaussian 16:  EM64L-G16RevA.03 25-Dec-2016

 -------------
 #p 6-31g* mp2
 -------------

 ------------------------------------------------------
 Input file generated by CHIRIPA (05-May-2021 14:51:13)
 ------------------------------------------------------
 Symbolic Z-matrix:
 Charge =  0 Multiplicity = 1

                         Standard orientation:
 ---------------------------------------------------------------------
 Center     Atomic      Atomic             Coordinates (Angstroms)
 Number     Number       Type             X           Y           Z
 ---------------------------------------------------------------------
      1          6           0       -3.368918    1.048739    0.294148
      2          6           0       -2.018286    1.303768   -0.375733
      3          6           0       -1.183440    2.353805    0.357921
      4          1           0       -3.928659    1.992562    0.347378
      5          1           0       -3.200974    0.726032    1.330994
      6          1           0       -2.188687    1.624566   -1.411430
      7          1           0       -1.461774    0.359191   -0.427548
      8          1           0       -0.984186    2.037399    1.386895
      9          1           0       -1.715229    3.309964    0.397422
     10          1           0       -0.222092    2.520511   -0.137941
     11          6           0       -4.215010    0.001443   -0.427674
     12          6           0       -5.565641   -0.253587    0.242207
     13          6           0       -6.400488   -1.303623   -0.491447
     14          1           0       -4.382954    0.324149   -1.464520
     15          1           0       -3.655269   -0.942380   -0.480904
     16          1           0       -6.122154    0.690990    0.294022
     17          1           0       -5.395241   -0.574385    1.277904
     18          1           0       -5.868699   -2.259782   -0.530949
     19          1           0       -6.599741   -0.987218   -1.520421
     20          1           0       -7.361836   -1.470329    0.004415
     21          6           0        4.440609   -0.505196   -0.336096
     22          6           0        5.450013    0.515796    0.189893
     23          6           0        6.742542    0.543797   -0.626426
     24          1           0        4.900974   -1.502683   -0.330826
     25          1           0        4.208104   -0.273788   -1.384803
     26          1           0        5.679495    0.283353    1.237712
     27          1           0        4.987126    1.510939    0.183551
     28          1           0        6.533310    0.797998   -1.670555
     29          1           0        7.229612   -0.436565   -0.610404
     30          1           0        7.449912    1.280528   -0.233086
     31          6           0        3.143319   -0.544985    0.469622
     32          6           0        2.133914   -1.565977   -0.056367
     33          6           0        0.841385   -1.593978    0.759952
     34          1           0        3.375824   -0.776395    1.518329
     35          1           0        2.682953    0.452502    0.464352
     36          1           0        2.596802   -2.561121   -0.050024
     37          1           0        1.904433   -1.333535   -1.104185
     38          1           0        0.354316   -0.613618    0.743931
     39          1           0        1.050618   -1.848179    1.804081
     40          1           0        0.134016   -2.330711    0.366613
 ---------------------------------------------------------------------

 SCF Done:  E(RHF) =  -470.733224488     A.U. after   11 cycles
 E2 =    -0.1582807156D+01 EUMP2 =    -0.47231603164408D+03

 The electronic state is 1-A.
 Alpha  occ. eigenvalues --  -11.21621 -11.21603 -11.21585 -11.21569 -11.21411
 Alpha  occ. eigenvalues --  -11.21387 -11.21352 -11.21328 -11.21114 -11.21086
 Alpha  occ. eigenvalues --  -11.21072 -11.21058  -1.08445  -1.08412  -1.03569
 Alpha  occ. eigenvalues --   -1.03504  -0.96018  -0.95960  -0.87019  -0.86992
 Alpha  occ. eigenvalues --   -0.79643  -0.79555  -0.78260  -0.78219  -0.65156
 Alpha  occ. eigenvalues --   -0.64982  -0.61161  -0.60743  -0.59365  -0.59344
 Alpha  occ. eigenvalues --   -0.57625  -0.57569  -0.55422  -0.55129  -0.52696
 Alpha  occ. eigenvalues --   -0.52676  -0.52426  -0.52392  -0.50008  -0.49870
 Alpha  occ. eigenvalues --   -0.47977  -0.47849  -0.46769  -0.46482  -0.45833
 Alpha  occ. eigenvalues --   -0.45748  -0.45727  -0.45596  -0.43797  -0.43778
 Alpha virt. eigenvalues --    0.20782   0.23087   0.23667   0.24910   0.26393
 Alpha virt. eigenvalues --    0.26533   0.27097   0.27463   0.28170   0.29049
 Alpha virt. eigenvalues --    0.30946   0.31447   0.31618   0.31689   0.32013

 Mulliken charges:
               1
     1  C   -0.297899
     2  C   -0.306171
     3  C   -0.476899
     4  H    0.149489
     5  H    0.149856
     6  H    0.151864
     7  H    0.158074
     8  H    0.155801
     9  H    0.155790
    10  H    0.159405
    11  C   -0.298413
    12  C   -0.299686
    13  C   -0.475702
    14  H    0.149349
    15  H    0.150046
    16  H    0.151851
    17  H    0.152085
    18  H    0.155187
    19  H    0.155102
    20  H    0.160214
    21  C   -0.298352
    22  C   -0.299677
    23  C   -0.475715
    24  H    0.149656
    25  H    0.149535
    26  H    0.151952
    27  H    0.152040
    28  H    0.155183
    29  H    0.155165
    30  H    0.160294
    31  C   -0.298851
    32  C   -0.299558
    33  C   -0.482896
    34  H    0.149539
    35  H    0.150317
    36  H    0.152090
    37  H    0.152124
    38  H    0.163207
    39  H    0.155231
    40  H    0.159377
 Sum of Mulliken charges =  -0.00000

 Dipole moment (field-independent basis, Debye):
    X=              0.0040    Y=             -0.0006    Z=              0.0072  Tot=              0.0082
 Quadrupole moment (field-independent basis, Debye-Ang):
   XX=            -85.9716   YY=            -84.3322   ZZ=            -84.5054
   XY=             -1.2668   XZ=              0.6667   YZ=             -1.1044

 Normal termination of Gaussian 16 at Thu May  6 02:24:04 2021.
