 Gaussian 16, Revision A.03,
 Gaussian 16:  EM64L-G16RevA.03 25-Dec-2016

 -------------
 #p 6-31g* mp2
 -------------

 ------------------------------------------------------
 Input file generated by CHIRIPA (05-May-2021 14:51:13)
 ------------------------------------------------------
 Symbolic Z-matrix:
 Charge =  0 Multiplicity = 1

                         Standard orientation:
 ---------------------------------------------------------------------
 Center     Atomic      Atomic             Coordinates (Angstroms)
 Number     Number       Type             X           Y           Z
 ---------------------------------------------------------------------
      1          6           0        2.278406   -0.095092   -0.335335
      2          6           0        3.526779   -0.564092   -1.083390
      3          6           0        3.373213   -1.968826   -1.667286
      4          1           0        2.053101   -0.806316    0.471104
      5          1           0        1.419357   -0.116633   -1.020147
      6          1           0        4.383486   -0.540354   -0.397747
      7          1           0        3.749249    0.148434   -1.888021
      8          1           0        2.536427   -2.003569   -2.372399
      9          1           0        3.174268   -2.696270   -0.873658
     10          1           0        4.277138   -2.284139   -2.197717
     11          6           0        2.416535    1.307471    0.254128
     12          6           0        1.168161    1.776471    1.002183
     13          6           0        1.321728    3.181205    1.586080
     14          1           0        3.275583    1.329012    0.938940
     15          1           0        2.641839    2.018695   -0.552311
     16          1           0        0.945692    1.063945    1.806814
     17          1           0        0.311455    1.752733    0.316540
     18          1           0        1.520673    3.908649    0.792451
     19          1           0        2.158514    3.215948    2.291192
     20          1           0        0.417802    3.496518    2.116510
     21          6           0       -2.377226    0.123465   -0.183339
     22          6           0       -3.505092    0.407604   -1.175895
     23          6           0       -3.551665    1.871570   -1.614562
     24          1           0       -2.501664    0.767925    0.697645
     25          1           0       -1.417327    0.400932   -0.640507
     26          1           0       -4.462449    0.128391   -0.717504
     27          1           0       -3.378062   -0.237743   -2.054534
     28          1           0       -2.611461    2.159608   -2.095863
     29          1           0       -3.702010    2.527822   -0.751236
     30          1           0       -4.365256    2.052422   -2.323943
     31          6           0       -2.317715   -1.335845    0.264546
     32          6           0       -1.189849   -1.619984    1.257102
     33          6           0       -1.143275   -3.083949    1.695769
     34          1           0       -3.277614   -1.613311    0.721714
     35          1           0       -2.193277   -1.980304   -0.616438
     36          1           0       -1.316878   -0.974637    2.135741
     37          1           0       -0.232491   -1.340769    0.798711
     38          1           0       -0.992932   -3.740201    0.832443
     39          1           0       -2.083480   -3.371987    2.177069
     40          1           0       -0.329685   -3.264801    2.405150
 ---------------------------------------------------------------------

 SCF Done:  E(RHF) =  -470.731921189     A.U. after   11 cycles
 E2 =    -0.1585362854D+01 EUMP2 =    -0.47231728404258D+03

 The electronic state is 1-A.
 Alpha  occ. eigenvalues --  -11.21653 -11.21595 -11.21493 -11.21453 -11.21440
 Alpha  occ. eigenvalues --  -11.21367 -11.21359 -11.21298 -11.21124 -11.21092
 Alpha  occ. eigenvalues --  -11.21027 -11.21017  -1.08501  -1.08354  -1.03534
 Alpha  occ. eigenvalues --   -1.03492  -0.96002  -0.95950  -0.87020  -0.86961
 Alpha  occ. eigenvalues --   -0.79640  -0.79558  -0.78619  -0.77875  -0.65137
 Alpha  occ. eigenvalues --   -0.64997  -0.60937  -0.60902  -0.59369  -0.59322
 Alpha  occ. eigenvalues --   -0.57670  -0.57504  -0.55313  -0.55224  -0.52718
 Alpha  occ. eigenvalues --   -0.52615  -0.52458  -0.52361  -0.49946  -0.49902
 Alpha  occ. eigenvalues --   -0.48037  -0.47891  -0.46859  -0.46637  -0.46393
 Alpha  occ. eigenvalues --   -0.45692  -0.45557  -0.44800  -0.43794  -0.43725
 Alpha virt. eigenvalues --    0.21162   0.23231   0.23566   0.24141   0.24687
 Alpha virt. eigenvalues --    0.26218   0.26687   0.27971   0.28313   0.30584
 Alpha virt. eigenvalues --    0.30777   0.31244   0.31676   0.31890   0.31913

 Mulliken charges:
               1
     1  C   -0.304776
     2  C   -0.298588
     3  C   -0.476031
     4  H    0.153561
     5  H    0.150043
     6  H    0.152318
     7  H    0.152051
     8  H    0.154736
     9  H    0.155374
    10  H    0.160672
    11  C   -0.297648
    12  C   -0.307251
    13  C   -0.475314
    14  H    0.149291
    15  H    0.149188
    16  H    0.154361
    17  H    0.159283
    18  H    0.154735
    19  H    0.154643
    20  H    0.159935
    21  C   -0.303897
    22  C   -0.299031
    23  C   -0.475817
    24  H    0.150133
    25  H    0.154546
    26  H    0.152031
    27  H    0.151578
    28  H    0.154191
    29  H    0.155325
    30  H    0.160484
    31  C   -0.297225
    32  C   -0.310471
    33  C   -0.475396
    34  H    0.148999
    35  H    0.148891
    36  H    0.151023
    37  H    0.165285
    38  H    0.154961
    39  H    0.154857
    40  H    0.158949
 Sum of Mulliken charges =  -0.00000

 Dipole moment (field-independent basis, Debye):
    X=              0.0297    Y=              0.0080    Z=             -0.0087  Tot=              0.0319
 Quadrupole moment (field-independent basis, Debye-Ang):
   XX=            -84.3350   YY=            -86.7922   ZZ=            -83.8972
   XY=             -0.1881   XZ=             -0.2154   YZ=             -0.2078

 Normal termination of Gaussian 16 at Wed May  5 15:19:44 2021.
