 Gaussian 16, Revision A.03,
 Gaussian 16:  EM64L-G16RevA.03 25-Dec-2016

 -------------
 #p 6-31g* mp2
 -------------

 ------------------------------------------------------
 Input file generated by CHIRIPA (05-May-2021 14:55:20)
 ------------------------------------------------------
 Symbolic Z-matrix:
 Charge =  0 Multiplicity = 1

                         Standard orientation:
 ---------------------------------------------------------------------
 Center     Atomic      Atomic             Coordinates (Angstroms)
 Number     Number       Type             X           Y           Z
 ---------------------------------------------------------------------
      1          6           0        0.768316   -1.738511    0.291729
      2          6           0        1.992126   -2.220782   -0.183902
      3          6           0        3.090600   -1.365604   -0.312649
      4          6           0        2.929195   -0.027950    0.045010
      5          6           0        1.722885    0.482552    0.521972
      6          6           0        0.637831   -0.390760    0.642530
      7          1           0       -0.079792   -2.409877    0.388562
      8          1           0        2.096367   -3.266987   -0.457092
      9          1           0        4.049505   -1.712487   -0.678150
     10          1           0        1.649573    1.530474    0.786360
     11          1           0       -0.311393   -0.013447    1.012196
     12          7           0        4.084996    0.886987   -0.086954
     13          8           0        3.916964    2.061230    0.234849
     14          8           0        5.137060    0.412548   -0.509691
     15          6           0       -3.141529   -0.437116    0.001117
     16          6           0       -4.056652   -1.652632   -0.150721
     17          6           0       -3.313873   -2.977450    0.025150
     18          1           0       -2.328657   -0.503890   -0.734903
     19          1           0       -2.668535   -0.464552    0.992539
     20          1           0       -4.528843   -1.622175   -1.141036
     21          1           0       -4.867548   -1.582860    0.585618
     22          1           0       -2.856499   -3.033787    1.018244
     23          1           0       -2.515869   -3.073325   -0.718220
     24          1           0       -3.986962   -3.833104   -0.087402
     25          6           0       -3.869557    0.894697   -0.172020
     26          6           0       -2.954434    2.110213   -0.020184
     27          6           0       -3.697213    3.435031   -0.196055
     28          1           0       -4.342551    0.922133   -1.163443
     29          1           0       -4.682430    0.961470    0.563999
     30          1           0       -2.143537    2.040441   -0.756523
     31          1           0       -2.482242    2.079756    0.970132
     32          1           0       -4.495217    3.530906    0.547316
     33          1           0       -4.154588    3.491368   -1.189149
     34          1           0       -3.024124    4.290684   -0.083502
 ---------------------------------------------------------------------

 SCF Done:  E(RHF) =  -669.535287508     A.U. after   15 cycles
 E2 =    -0.2092925992D+01 EUMP2 =    -0.67162821350054D+03

 The electronic state is 1-A.
 Alpha  occ. eigenvalues --  -20.60672 -20.60667 -15.85723 -11.31056 -11.27623
 Alpha  occ. eigenvalues --  -11.27593 -11.27295 -11.26630 -11.26522 -11.22694
 Alpha  occ. eigenvalues --  -11.22587 -11.22480 -11.22343 -11.22296 -11.21688
 Alpha  occ. eigenvalues --   -1.59748  -1.39303  -1.19216  -1.09481  -1.08609
 Alpha  occ. eigenvalues --   -1.04610  -1.04511  -0.96976  -0.95455  -0.87989
 Alpha  occ. eigenvalues --   -0.86015  -0.82289  -0.80605  -0.79348  -0.77329
 Alpha  occ. eigenvalues --   -0.71941  -0.71071  -0.70311  -0.66095  -0.64860
 Alpha  occ. eigenvalues --   -0.64614  -0.61975  -0.61892  -0.60348  -0.58602
 Alpha  occ. eigenvalues --   -0.56265  -0.55109  -0.53633  -0.53396  -0.52948
 Alpha  occ. eigenvalues --   -0.52680  -0.50906  -0.48902  -0.48702  -0.48699
 Alpha  occ. eigenvalues --   -0.47625  -0.46773  -0.46733  -0.44770  -0.44716
 Alpha  occ. eigenvalues --   -0.37180  -0.36210
 Alpha virt. eigenvalues --    0.05165   0.11355   0.16617   0.19734   0.22301
 Alpha virt. eigenvalues --    0.22683   0.24651   0.25986   0.26105   0.28776
 Alpha virt. eigenvalues --    0.30053   0.30283   0.30607   0.31529   0.32003

 Mulliken charges:
               1
     1  C   -0.179230
     2  C   -0.219562
     3  C   -0.171386
     4  C    0.158635
     5  C   -0.173488
     6  C   -0.224346
     7  H    0.233061
     8  H    0.222948
     9  H    0.274920
    10  H    0.275303
    11  H    0.233736
    12  N    0.488000
    13  O   -0.460799
    14  O   -0.460917
    15  C   -0.307946
    16  C   -0.298423
    17  C   -0.481992
    18  H    0.154121
    19  H    0.142376
    20  H    0.156994
    21  H    0.156108
    22  H    0.152191
    23  H    0.153139
    24  H    0.167296
    25  C   -0.297645
    26  C   -0.303661
    27  C   -0.476190
    28  H    0.153849
    29  H    0.152558
    30  H    0.154741
    31  H    0.146989
    32  H    0.156783
    33  H    0.157875
    34  H    0.163960
 Sum of Mulliken charges =  -0.00000

 Dipole moment (field-independent basis, Debye):
    X=             -4.4147    Y=             -3.1596    Z=              0.3733  Tot=              5.4417
 Quadrupole moment (field-independent basis, Debye-Ang):
   XX=           -116.5877   YY=            -92.6247   ZZ=            -93.9275
   XY=            -11.4720   XZ=              0.1337   YZ=              1.4431

 Normal termination of Gaussian 16 at Thu May  6 02:57:23 2021.
