 Gaussian 16, Revision A.03,
 Gaussian 16:  EM64L-G16RevA.03 25-Dec-2016

 -------------
 #p 6-31g* mp2
 -------------

 ------------------------------------------------------
 Input file generated by CHIRIPA (05-May-2021 14:51:08)
 ------------------------------------------------------
 Symbolic Z-matrix:
 Charge =  0 Multiplicity = 1

                         Standard orientation:
 ---------------------------------------------------------------------
 Center     Atomic      Atomic             Coordinates (Angstroms)
 Number     Number       Type             X           Y           Z
 ---------------------------------------------------------------------
      1          6           0       -3.822971    0.027319    0.340916
      2          6           0       -4.522493    1.095209   -0.500669
      3          6           0       -5.652156    1.796538    0.254177
      4          1           0       -4.563281   -0.715324    0.668586
      5          1           0       -3.422616    0.492710    1.252246
      6          1           0       -4.920208    0.628204   -1.410804
      7          1           0       -3.780398    1.835292   -0.826534
      8          1           0       -5.267366    2.288287    1.153466
      9          1           0       -6.413652    1.074341    0.565875
     10          1           0       -6.138482    2.555952   -0.366015
     11          6           0       -2.691284   -0.682677   -0.399973
     12          6           0       -1.991762   -1.750567    0.441612
     13          6           0       -0.862099   -2.451897   -0.313234
     14          1           0       -3.091639   -1.148069   -1.311303
     15          1           0       -1.950974    0.059966   -0.727643
     16          1           0       -2.733857   -2.490650    0.767477
     17          1           0       -1.594047   -1.283562    1.351747
     18          1           0       -0.100603   -1.729700   -0.624932
     19          1           0       -1.246889   -2.943646   -1.212523
     20          1           0       -0.375774   -3.211310    0.306958
     21          6           0        3.402656    0.979564   -0.341010
     22          6           0        3.258691    2.222079    0.538430
     23          6           0        3.553034    3.518382   -0.217051
     24          1           0        4.421571    0.943859   -0.750256
     25          1           0        2.723504    1.066482   -1.200425
     26          1           0        3.936906    2.132207    1.396663
     27          1           0        2.240057    2.254728    0.945783
     28          1           0        2.868401    3.634980   -1.063387
     29          1           0        4.574891    3.511762   -0.609946
     30          1           0        3.444198    4.394003    0.430485
     31          6           0        3.111600   -0.324206    0.400067
     32          6           0        3.255564   -1.566720   -0.479373
     33          6           0        2.961222   -2.863024    0.276108
     34          1           0        3.790752   -0.411124    1.259481
     35          1           0        2.092684   -0.288501    0.809313
     36          1           0        4.274198   -1.599369   -0.886726
     37          1           0        2.577349   -1.476848   -1.337606
     38          1           0        1.939364   -2.856405    0.669002
     39          1           0        3.645855   -2.979622    1.122444
     40          1           0        3.070058   -3.738645   -0.371428
 ---------------------------------------------------------------------

 SCF Done:  E(RHF) =  -470.732616675     A.U. after   11 cycles
 E2 =    -0.1583314171D+01 EUMP2 =    -0.47231593084515D+03

 The electronic state is 1-A.
 Alpha  occ. eigenvalues --  -11.21664 -11.21636 -11.21619 -11.21550 -11.21457
 Alpha  occ. eigenvalues --  -11.21405 -11.21395 -11.21344 -11.21121 -11.21097
 Alpha  occ. eigenvalues --  -11.21087 -11.20907  -1.08486  -1.08417  -1.03605
 Alpha  occ. eigenvalues --   -1.03481  -0.96072  -0.95913  -0.87095  -0.86928
 Alpha  occ. eigenvalues --   -0.79668  -0.79550  -0.78293  -0.78235  -0.65198
 Alpha  occ. eigenvalues --   -0.64992  -0.61175  -0.60751  -0.59422  -0.59312
 Alpha  occ. eigenvalues --   -0.57693  -0.57520  -0.55454  -0.55118  -0.52797
 Alpha  occ. eigenvalues --   -0.52628  -0.52470  -0.52296  -0.50003  -0.49823
 Alpha  occ. eigenvalues --   -0.47963  -0.47875  -0.46680  -0.46582  -0.45859
 Alpha  occ. eigenvalues --   -0.45779  -0.45710  -0.45702  -0.43797  -0.43761
 Alpha virt. eigenvalues --    0.20523   0.23136   0.23718   0.24866   0.26135
 Alpha virt. eigenvalues --    0.26832   0.26874   0.27729   0.27804   0.29125
 Alpha virt. eigenvalues --    0.30680   0.31003   0.31655   0.31807   0.32313

 Mulliken charges:
               1
     1  C   -0.298336
     2  C   -0.299681
     3  C   -0.475737
     4  H    0.149866
     5  H    0.149564
     6  H    0.152015
     7  H    0.151876
     8  H    0.155245
     9  H    0.155263
    10  H    0.160378
    11  C   -0.298500
    12  C   -0.300149
    13  C   -0.481995
    14  H    0.149814
    15  H    0.149177
    16  H    0.152436
    17  H    0.151804
    18  H    0.159093
    19  H    0.155765
    20  H    0.163649
    21  C   -0.298177
    22  C   -0.299534
    23  C   -0.475692
    24  H    0.149921
    25  H    0.148973
    26  H    0.152080
    27  H    0.151383
    28  H    0.155078
    29  H    0.155335
    30  H    0.160236
    31  C   -0.299954
    32  C   -0.300493
    33  C   -0.480586
    34  H    0.149774
    35  H    0.149870
    36  H    0.151996
    37  H    0.152362
    38  H    0.162615
    39  H    0.153759
    40  H    0.159507
 Sum of Mulliken charges =  -0.00000

 Dipole moment (field-independent basis, Debye):
    X=             -0.0408    Y=             -0.0188    Z=             -0.0028  Tot=              0.0450
 Quadrupole moment (field-independent basis, Debye-Ang):
   XX=            -84.1740   YY=            -85.6514   ZZ=            -84.9605
   XY=              0.8199   XZ=              0.9051   YZ=              0.4053

 Normal termination of Gaussian 16 at Wed May  5 18:06:32 2021.
