 Gaussian 16, Revision A.03,
 Gaussian 16:  EM64L-G16RevA.03 25-Dec-2016

 -------------
 #p 6-31g* mp2
 -------------

 ------------------------------------------------------
 Input file generated by CHIRIPA (05-May-2021 14:53:15)
 ------------------------------------------------------
 Symbolic Z-matrix:
 Charge =  0 Multiplicity = 1

                         Standard orientation:
 ---------------------------------------------------------------------
 Center     Atomic      Atomic             Coordinates (Angstroms)
 Number     Number       Type             X           Y           Z
 ---------------------------------------------------------------------
      1          6           0        3.184504    0.598659    0.398477
      2          6           0        2.440480    0.730022    1.727822
      3          6           0        1.247124    1.682367    1.645759
      4          1           0        3.527559    1.591873    0.077875
      5          1           0        2.484959    0.245856   -0.371952
      6          1           0        3.141547    1.081151    2.495826
      7          1           0        2.099323   -0.263646    2.045392
      8          1           0        0.525932    1.332883    0.899874
      9          1           0        1.574078    2.685321    1.352868
     10          1           0        0.729723    1.761403    2.606962
     11          6           0        4.380058   -0.350031    0.464545
     12          6           0        5.124082   -0.481394   -0.864800
     13          6           0        6.317439   -1.433738   -0.782737
     14          1           0        5.079604    0.002773    1.234974
     15          1           0        4.037003   -1.343244    0.785147
     16          1           0        5.465240    0.512275   -1.182370
     17          1           0        4.423015   -0.832522   -1.632804
     18          1           0        5.990485   -2.436692   -0.489846
     19          1           0        7.038630   -1.084255   -0.036852
     20          1           0        6.834839   -1.512774   -1.743940
     21          6           0       -1.196178    1.366983   -1.399755
     22          6           0       -0.909789    0.029691   -1.106240
     23          6           0       -1.876602   -0.790774   -0.517461
     24          6           0       -3.124935   -0.238665   -0.234386
     25          6           0       -3.440605    1.089865   -0.514832
     26          6           0       -2.458446    1.891877   -1.103636
     27          1           0       -0.439175    1.997173   -1.857142
     28          1           0        0.069644   -0.380645   -1.335104
     29          1           0       -1.681656   -1.829456   -0.279653
     30          1           0       -4.426013    1.470506   -0.275038
     31          1           0       -2.683665    2.930081   -1.330474
     32          7           0       -4.156579   -1.097486    0.388941
     33          8           0       -5.248711   -0.587097    0.628494
     34          8           0       -3.853514   -2.264757    0.626148
 ---------------------------------------------------------------------

 SCF Done:  E(RHF) =  -669.534396906     A.U. after   15 cycles
 E2 =    -0.2093195365D+01 EUMP2 =    -0.67162759227060D+03

 The electronic state is 1-A.
 Alpha  occ. eigenvalues --  -20.60805 -20.60800 -15.85860 -11.31249 -11.27828
 Alpha  occ. eigenvalues --  -11.27823 -11.27556 -11.26831 -11.26821 -11.22193
 Alpha  occ. eigenvalues --  -11.22177 -11.22093 -11.21973 -11.21536 -11.21359
 Alpha  occ. eigenvalues --   -1.59881  -1.39433  -1.19438  -1.09052  -1.08825
 Alpha  occ. eigenvalues --   -1.04847  -1.04050  -0.96502  -0.95651  -0.87516
 Alpha  occ. eigenvalues --   -0.86242  -0.82480  -0.80123  -0.78889  -0.77523
 Alpha  occ. eigenvalues --   -0.72079  -0.71204  -0.70530  -0.65729  -0.65085
 Alpha  occ. eigenvalues --   -0.64821  -0.62198  -0.61447  -0.59867  -0.58135
 Alpha  occ. eigenvalues --   -0.55867  -0.55328  -0.53390  -0.53145  -0.52946
 Alpha  occ. eigenvalues --   -0.52724  -0.50410  -0.48841  -0.48832  -0.48424
 Alpha  occ. eigenvalues --   -0.47156  -0.46410  -0.46352  -0.44834  -0.44335
 Alpha  occ. eigenvalues --   -0.37326  -0.36411
 Alpha virt. eigenvalues --    0.05002   0.11092   0.16449   0.19692   0.22696
 Alpha virt. eigenvalues --    0.24039   0.24945   0.26568   0.27426   0.28251
 Alpha virt. eigenvalues --    0.28950   0.30696   0.31186   0.31518   0.31840

 Mulliken charges:
               1
     1  C   -0.298944
     2  C   -0.299359
     3  C   -0.486148
     4  H    0.150138
     5  H    0.138191
     6  H    0.154369
     7  H    0.152996
     8  H    0.164339
     9  H    0.150682
    10  H    0.163436
    11  C   -0.298521
    12  C   -0.299413
    13  C   -0.476026
    14  H    0.152670
    15  H    0.150789
    16  H    0.152269
    17  H    0.148270
    18  H    0.156284
    19  H    0.156785
    20  H    0.161351
    21  C   -0.170382
    22  C   -0.224169
    23  C   -0.170516
    24  C    0.158928
    25  C   -0.170584
    26  C   -0.217436
    27  H    0.227782
    28  H    0.228504
    29  H    0.275980
    30  H    0.276043
    31  H    0.224115
    32  N    0.488061
    33  O   -0.460190
    34  O   -0.460296
 Sum of Mulliken charges =  -0.00000

 Dipole moment (field-independent basis, Debye):
    X=              3.6323    Y=              3.0245    Z=             -2.1738  Tot=              5.2025
 Quadrupole moment (field-independent basis, Debye-Ang):
   XX=           -115.7283   YY=            -93.3453   ZZ=            -94.4119
   XY=            -12.3884   XZ=              6.4476   YZ=             -0.1763

 Normal termination of Gaussian 16 at Thu May  6 15:29:04 2021.
