 Gaussian 16, Revision A.03,
 Gaussian 16:  EM64L-G16RevA.03 25-Dec-2016

 -------------
 #p 6-31g* mp2
 -------------

 ------------------------------------------------------
 Input file generated by CHIRIPA (05-May-2021 14:57:24)
 ------------------------------------------------------
 Symbolic Z-matrix:
 Charge =  0 Multiplicity = 1

                         Standard orientation:
 ---------------------------------------------------------------------
 Center     Atomic      Atomic             Coordinates (Angstroms)
 Number     Number       Type             X           Y           Z
 ---------------------------------------------------------------------
      1          6           0       -2.019910    1.883260    1.291648
      2          6           0       -1.734871    0.565454    1.664021
      3          6           0       -2.406131   -0.503307    1.062599
      4          6           0       -3.360748   -0.216666    0.088006
      5          6           0       -3.666995    1.085408   -0.304559
      6          6           0       -2.983364    2.138581    0.310277
      7          1           0       -1.493654    2.707445    1.764057
      8          1           0       -0.987130    0.364185    2.425873
      9          1           0       -2.205100   -1.533116    1.331853
     10          1           0       -4.417541    1.254604   -1.067101
     11          1           0       -3.206787    3.160999    0.019093
     12          7           0       -4.077929   -1.339864   -0.555792
     13          8           0       -4.914591   -1.060790   -1.411801
     14          8           0       -3.789814   -2.478033   -0.192202
     15          6           0        4.871434   -1.823379    0.327324
     16          6           0        3.496051   -2.042590    0.456902
     17          6           0        2.584359   -1.022073    0.170700
     18          6           0        3.085073    0.210877   -0.244522
     19          6           0        4.449593    0.460150   -0.383224
     20          6           0        5.342984   -0.574910   -0.091587
     21          1           0        5.572549   -2.621790    0.551763
     22          1           0        3.126982   -3.011157    0.782035
     23          1           0        1.514459   -1.164542    0.262543
     24          1           0        4.787388    1.436317   -0.709428
     25          1           0        6.410587   -0.401814   -0.193107
     26          7           0        2.129593    1.298950   -0.550389
     27          8           0        2.596145    2.376186   -0.914431
     28          8           0        0.932228    1.053942   -0.420293
 ---------------------------------------------------------------------

 SCF Done:  E(RHF) =  -868.338184552     A.U. after   16 cycles
 E2 =    -0.2600151927D+01 EUMP2 =    -0.87093833647972D+03

 The electronic state is 1-A.
 Alpha  occ. eigenvalues --  -20.61296 -20.61289 -20.60145 -20.60129 -15.86322
 Alpha  occ. eigenvalues --  -15.85187 -11.31610 -11.30289 -11.28171 -11.28155
 Alpha  occ. eigenvalues --  -11.27869 -11.27149 -11.27139 -11.26900 -11.26825
 Alpha  occ. eigenvalues --  -11.26477 -11.25835 -11.25749  -1.60376  -1.59220
 Alpha  occ. eigenvalues --   -1.39929  -1.38783  -1.19770  -1.18423  -1.09179
 Alpha  occ. eigenvalues --   -1.07849  -1.05157  -1.03827  -0.96030  -0.94744
 Alpha  occ. eigenvalues --   -0.86557  -0.85238  -0.82859  -0.81617  -0.77926
 Alpha  occ. eigenvalues --   -0.76712  -0.72555  -0.71701  -0.71418  -0.70868
 Alpha  occ. eigenvalues --   -0.70536  -0.69547  -0.65420  -0.65151  -0.64103
 Alpha  occ. eigenvalues --   -0.63865  -0.62506  -0.61229  -0.55649  -0.54300
 Alpha  occ. eigenvalues --   -0.53495  -0.53242  -0.52082  -0.51959  -0.49319
 Alpha  occ. eigenvalues --   -0.49301  -0.48185  -0.48147  -0.45360  -0.44251
 Alpha  occ. eigenvalues --   -0.37744  -0.36759  -0.36248  -0.35380
 Alpha virt. eigenvalues --    0.04574   0.05848   0.10892   0.12286   0.16126
 Alpha virt. eigenvalues --    0.17393   0.20952   0.22222   0.26681   0.27516
 Alpha virt. eigenvalues --    0.28514   0.29186   0.30729   0.31662   0.32400

 Mulliken charges:
               1
     1  C   -0.154307
     2  C   -0.205881
     3  C   -0.174883
     4  C    0.159010
     5  C   -0.170518
     6  C   -0.216083
     7  H    0.225553
     8  H    0.215534
     9  H    0.266710
    10  H    0.272714
    11  H    0.222156
    12  N    0.488291
    13  O   -0.461962
    14  O   -0.466175
    15  C   -0.170393
    16  C   -0.218360
    17  C   -0.172552
    18  C    0.157565
    19  C   -0.170991
    20  C   -0.218399
    21  H    0.227384
    22  H    0.225536
    23  H    0.273851
    24  H    0.275864
    25  H    0.224736
    26  N    0.489153
    27  O   -0.461009
    28  O   -0.462544
 Sum of Mulliken charges =  -0.00000

 Dipole moment (field-independent basis, Debye):
    X=              6.1676    Y=              0.3399    Z=              3.3226  Tot=              7.0138
 Quadrupole moment (field-independent basis, Debye-Ang):
   XX=            -97.9552   YY=           -104.8288   ZZ=           -104.6578
   XY=            -25.3190   XZ=             -4.1795   YZ=             -1.7504

 Normal termination of Gaussian 16 at Thu May  6 03:28:08 2021.
