 Gaussian 16, Revision A.03,
 Gaussian 16:  EM64L-G16RevA.03 25-Dec-2016

 -------------
 #p 6-31g* mp2
 -------------

 ------------------------------------------------------
 Input file generated by CHIRIPA (05-May-2021 14:53:15)
 ------------------------------------------------------
 Symbolic Z-matrix:
 Charge =  0 Multiplicity = 1

                         Standard orientation:
 ---------------------------------------------------------------------
 Center     Atomic      Atomic             Coordinates (Angstroms)
 Number     Number       Type             X           Y           Z
 ---------------------------------------------------------------------
      1          6           0       -3.151648   -0.767666   -0.446151
      2          6           0       -1.749677   -0.444692   -0.963984
      3          6           0       -0.924166   -1.698044   -1.256274
      4          1           0       -3.067989   -1.374311    0.465950
      5          1           0       -3.674796   -1.387858   -1.187145
      6          1           0       -1.229823    0.175861   -0.222848
      7          1           0       -1.836681    0.161416   -1.874851
      8          1           0       -1.418072   -2.317001   -2.012282
      9          1           0       -0.807767   -2.302475   -0.350892
     10          1           0        0.074406   -1.444033   -1.625317
     11          6           0       -3.989056    0.475078   -0.149398
     12          6           0       -5.391027    0.152104    0.368435
     13          6           0       -6.216538    1.405456    0.660725
     14          1           0       -3.465908    1.095270    0.591596
     15          1           0       -4.072714    1.081723   -1.061499
     16          1           0       -5.304023   -0.454004    1.279302
     17          1           0       -5.910881   -0.468449   -0.372701
     18          1           0       -6.332937    2.009887   -0.244657
     19          1           0       -5.722631    2.024413    1.416733
     20          1           0       -7.215110    1.151445    1.029768
     21          6           0        2.186063   -2.208832    1.010503
     22          6           0        2.137039   -1.135840    1.906497
     23          6           0        2.469160    0.155614    1.486510
     24          6           0        2.847659    0.338883    0.157435
     25          6           0        2.906240   -0.709811   -0.759134
     26          6           0        2.569830   -1.992774   -0.317112
     27          1           0        1.926397   -3.208767    1.345317
     28          1           0        1.839357   -1.300675    2.938127
     29          1           0        2.439799    1.004248    2.159099
     30          1           0        3.206744   -0.514314   -1.781336
     31          1           0        2.608804   -2.824191   -1.015162
     32          7           0        3.201531    1.701593   -0.298849
     33          8           0        3.531816    1.836729   -1.474982
     34          8           0        3.141910    2.608747    0.528287
 ---------------------------------------------------------------------

 SCF Done:  E(RHF) =  -669.534373648     A.U. after   15 cycles
 E2 =    -0.2093051694D+01 EUMP2 =    -0.67162742534163D+03

 The electronic state is 1-A.
 Alpha  occ. eigenvalues --  -20.60804 -20.60798 -15.85858 -11.31252 -11.27800
 Alpha  occ. eigenvalues --  -11.27774 -11.27518 -11.26842 -11.26796 -11.21712
 Alpha  occ. eigenvalues --  -11.21699 -11.21537 -11.21447 -11.21229 -11.21126
 Alpha  occ. eigenvalues --   -1.59878  -1.39431  -1.19415  -1.08805  -1.08543
 Alpha  occ. eigenvalues --   -1.04828  -1.03643  -0.96108  -0.95635  -0.87137
 Alpha  occ. eigenvalues --   -0.86209  -0.82470  -0.79715  -0.78355  -0.77514
 Alpha  occ. eigenvalues --   -0.72075  -0.71201  -0.70511  -0.65180  -0.65064
 Alpha  occ. eigenvalues --   -0.64820  -0.62167  -0.61055  -0.59517  -0.57736
 Alpha  occ. eigenvalues --   -0.55451  -0.55307  -0.53447  -0.52910  -0.52583
 Alpha  occ. eigenvalues --   -0.52379  -0.50040  -0.48836  -0.48829  -0.48035
 Alpha  occ. eigenvalues --   -0.46749  -0.45900  -0.45825  -0.44832  -0.43925
 Alpha  occ. eigenvalues --   -0.37344  -0.36325
 Alpha virt. eigenvalues --    0.04980   0.11208   0.16401   0.21197   0.22747
 Alpha virt. eigenvalues --    0.24198   0.26498   0.26932   0.27300   0.27938
 Alpha virt. eigenvalues --    0.28349   0.30720   0.31341   0.31820   0.32341

 Mulliken charges:
               1
     1  C   -0.298098
     2  C   -0.299682
     3  C   -0.475705
     4  H    0.146581
     5  H    0.149241
     6  H    0.153244
     7  H    0.154448
     8  H    0.152008
     9  H    0.148364
    10  H    0.162103
    11  C   -0.298524
    12  C   -0.299559
    13  C   -0.475781
    14  H    0.150106
    15  H    0.151432
    16  H    0.150458
    17  H    0.151783
    18  H    0.156221
    19  H    0.155587
    20  H    0.160065
    21  C   -0.169234
    22  C   -0.218748
    23  C   -0.171970
    24  C    0.160431
    25  C   -0.173952
    26  C   -0.213888
    27  H    0.225779
    28  H    0.223570
    29  H    0.275659
    30  H    0.275789
    31  H    0.224714
    32  N    0.488066
    33  O   -0.460234
    34  O   -0.460272
 Sum of Mulliken charges =  -0.00000

 Dipole moment (field-independent basis, Debye):
    X=             -1.1862    Y=             -4.7685    Z=              1.6172  Tot=              5.1731
 Quadrupole moment (field-independent basis, Debye-Ang):
   XX=           -102.9356   YY=            -98.7003   ZZ=            -89.2967
   XY=            -14.3031   XZ=              4.0081   YZ=              1.3454

 Normal termination of Gaussian 16 at Thu May  6 15:29:39 2021.
