 Gaussian 16, Revision A.03,
 Gaussian 16:  EM64L-G16RevA.03 25-Dec-2016

 -------------
 #p 6-31g* mp2
 -------------

 ------------------------------------------------------
 Input file generated by CHIRIPA (05-May-2021 14:51:12)
 ------------------------------------------------------
 Symbolic Z-matrix:
 Charge =  0 Multiplicity = 1

                         Standard orientation:
 ---------------------------------------------------------------------
 Center     Atomic      Atomic             Coordinates (Angstroms)
 Number     Number       Type             X           Y           Z
 ---------------------------------------------------------------------
      1          6           0       -2.126136   -0.650242   -0.039369
      2          6           0       -2.691804   -1.967426   -0.571377
      3          6           0       -1.663266   -3.098724   -0.563073
      4          1           0       -1.256073   -0.361138   -0.644642
      5          1           0       -1.757508   -0.804395    0.984225
      6          1           0       -3.060514   -1.810496   -1.593160
      7          1           0       -3.560737   -2.253330    0.035113
      8          1           0       -1.302672   -3.284078    0.453891
      9          1           0       -0.799607   -2.838728   -1.183634
     10          1           0       -2.088779   -4.030999   -0.947342
     11          6           0       -3.142452    0.490295   -0.041406
     12          6           0       -2.576784    1.807479    0.490602
     13          6           0       -3.605321    2.938777    0.482298
     14          1           0       -3.511079    0.644448   -1.065000
     15          1           0       -4.012514    0.201191    0.563867
     16          1           0       -1.707850    2.093382   -0.115889
     17          1           0       -2.208073    1.650548    1.512385
     18          1           0       -4.468980    2.678781    1.102858
     19          1           0       -3.965915    3.124131   -0.534667
     20          1           0       -3.179808    3.871052    0.866566
     21          6           0        3.049378    0.716828    0.114907
     22          6           0        2.439739    1.924767   -0.597279
     23          6           0        3.281626    3.191252   -0.439048
     24          1           0        3.167347    0.949458    1.182105
     25          1           0        4.059303    0.538561   -0.279641
     26          1           0        1.430733    2.099857   -0.202482
     27          1           0        2.323030    1.689165   -1.662871
     28          1           0        4.285077    3.040660   -0.850155
     29          1           0        3.387710    3.453685    0.618532
     30          1           0        2.827464    4.042402   -0.955902
     31          6           0        2.219209   -0.556881   -0.034132
     32          6           0        2.828848   -1.764820    0.678055
     33          6           0        1.986961   -3.031304    0.519823
     34          1           0        1.209285   -0.378614    0.360416
     35          1           0        2.101240   -0.789511   -1.101330
     36          1           0        2.945558   -1.529217    1.743647
     37          1           0        3.837855   -1.939910    0.283257
     38          1           0        1.880878   -3.293738   -0.537756
     39          1           0        0.983511   -2.880712    0.930931
     40          1           0        2.441124   -3.882455    1.036678
 ---------------------------------------------------------------------

 SCF Done:  E(RHF) =  -470.732288709     A.U. after   11 cycles
 E2 =    -0.1584522846D+01 EUMP2 =    -0.47231681155449D+03

 The electronic state is 1-A.
 Alpha  occ. eigenvalues --  -11.21640 -11.21594 -11.21579 -11.21523 -11.21417
 Alpha  occ. eigenvalues --  -11.21358 -11.21356 -11.21284 -11.21096 -11.21065
 Alpha  occ. eigenvalues --  -11.20980 -11.20910  -1.08457  -1.08371  -1.03560
 Alpha  occ. eigenvalues --   -1.03453  -0.96037  -0.95870  -0.87092  -0.86850
 Alpha  occ. eigenvalues --   -0.79737  -0.79426  -0.78426  -0.78031  -0.65076
 Alpha  occ. eigenvalues --   -0.65015  -0.60975  -0.60849  -0.59415  -0.59233
 Alpha  occ. eigenvalues --   -0.57850  -0.57335  -0.55359  -0.55127  -0.52791
 Alpha  occ. eigenvalues --   -0.52665  -0.52608  -0.51970  -0.50029  -0.49754
 Alpha  occ. eigenvalues --   -0.48295  -0.47517  -0.46668  -0.46523  -0.46313
 Alpha  occ. eigenvalues --   -0.45755  -0.45632  -0.45079  -0.43789  -0.43729
 Alpha virt. eigenvalues --    0.21080   0.22475   0.23447   0.24794   0.25272
 Alpha virt. eigenvalues --    0.25333   0.26468   0.27275   0.29059   0.29895
 Alpha virt. eigenvalues --    0.30404   0.30862   0.31245   0.31786   0.32296

 Mulliken charges:
               1
     1  C   -0.302753
     2  C   -0.299836
     3  C   -0.477824
     4  H    0.154987
     5  H    0.148086
     6  H    0.151648
     7  H    0.151512
     8  H    0.156567
     9  H    0.158652
    10  H    0.159744
    11  C   -0.297759
    12  C   -0.302040
    13  C   -0.475604
    14  H    0.149748
    15  H    0.149709
    16  H    0.153800
    17  H    0.151392
    18  H    0.155323
    19  H    0.155392
    20  H    0.160311
    21  C   -0.297691
    22  C   -0.302065
    23  C   -0.475530
    24  H    0.149555
    25  H    0.149388
    26  H    0.153828
    27  H    0.151305
    28  H    0.155229
    29  H    0.155284
    30  H    0.160055
    31  C   -0.304146
    32  C   -0.299444
    33  C   -0.478424
    34  H    0.156793
    35  H    0.147898
    36  H    0.151184
    37  H    0.151221
    38  H    0.154848
    39  H    0.160723
    40  H    0.158935
 Sum of Mulliken charges =  -0.00000

 Dipole moment (field-independent basis, Debye):
    X=             -0.0363    Y=             -0.0137    Z=             -0.0063  Tot=              0.0393
 Quadrupole moment (field-independent basis, Debye-Ang):
   XX=            -85.2695   YY=            -86.5008   ZZ=            -83.1544
   XY=              0.0590   XZ=             -0.6840   YZ=             -0.0960

 Normal termination of Gaussian 16 at Thu May  6 05:32:29 2021.
