 Gaussian 16, Revision A.03,
 Gaussian 16:  EM64L-G16RevA.03 25-Dec-2016

 -------------
 #p 6-31g* mp2
 -------------

 ------------------------------------------------------
 Input file generated by CHIRIPA (05-May-2021 14:51:09)
 ------------------------------------------------------
 Symbolic Z-matrix:
 Charge =  0 Multiplicity = 1

                         Standard orientation:
 ---------------------------------------------------------------------
 Center     Atomic      Atomic             Coordinates (Angstroms)
 Number     Number       Type             X           Y           Z
 ---------------------------------------------------------------------
      1          6           0        5.121712   -0.492243   -0.267557
      2          6           0        6.499888   -0.495196    0.394716
      3          6           0        7.361223   -1.682007   -0.038154
      4          1           0        4.603793   -1.430486   -0.025885
      5          1           0        5.247165   -0.476652   -1.359076
      6          1           0        6.371865   -0.509379    1.484682
      7          1           0        7.014511    0.443246    0.151598
      8          1           0        7.518437   -1.669067   -1.121536
      9          1           0        6.872140   -2.627104    0.219122
     10          1           0        8.342020   -1.664434    0.447221
     11          6           0        4.248953    0.688134    0.155208
     12          6           0        2.870776    0.691088   -0.507065
     13          6           0        2.009441    1.877899   -0.074195
     14          1           0        4.123500    0.672544    1.246727
     15          1           0        4.766872    1.626377   -0.086463
     16          1           0        2.356154   -0.247354   -0.263946
     17          1           0        2.998799    0.705270   -1.597030
     18          1           0        2.498524    2.822995   -0.331471
     19          1           0        1.852227    1.864958    1.009187
     20          1           0        1.028644    1.860325   -0.559570
     21          6           0       -5.337514   -0.314031    0.389939
     22          6           0       -6.486646   -0.515733   -0.598392
     23          6           0       -7.784643   -0.947901    0.084416
     24          1           0       -5.169282   -1.248536    0.942517
     25          1           0       -5.630600    0.440223    1.133306
     26          1           0       -6.190953   -1.268377   -1.340491
     27          1           0       -6.652035    0.419304   -1.148818
     28          1           0       -8.106366   -0.195472    0.811704
     29          1           0       -7.642665   -1.892742    0.618942
     30          1           0       -8.592810   -1.086361   -0.640535
     31          6           0       -4.033150    0.118140   -0.277590
     32          6           0       -2.884019    0.319841    0.710741
     33          6           0       -1.586021    0.752009    0.027933
     34          1           0       -3.740064   -0.636114   -1.020957
     35          1           0       -4.201382    1.052644   -0.830169
     36          1           0       -2.718629   -0.615195    1.261166
     37          1           0       -3.179712    1.072485    1.452839
     38          1           0       -1.728000    1.696851   -0.506593
     39          1           0       -1.264297   -0.000419   -0.699355
     40          1           0       -0.777855    0.890471    0.752884
 ---------------------------------------------------------------------

 SCF Done:  E(RHF) =  -470.732620363     A.U. after   11 cycles
 E2 =    -0.1582618334D+01 EUMP2 =    -0.47231523869718D+03

 The electronic state is 1-A.
 Alpha  occ. eigenvalues --  -11.21597 -11.21581 -11.21576 -11.21529 -11.21396
 Alpha  occ. eigenvalues --  -11.21363 -11.21336 -11.21302 -11.21068 -11.21053
 Alpha  occ. eigenvalues --  -11.21028 -11.20910  -1.08424  -1.08381  -1.03545
 Alpha  occ. eigenvalues --   -1.03454  -0.96047  -0.95858  -0.87114  -0.86832
 Alpha  occ. eigenvalues --   -0.79653  -0.79482  -0.78237  -0.78197  -0.65053
 Alpha  occ. eigenvalues --   -0.65017  -0.60925  -0.60891  -0.59586  -0.59090
 Alpha  occ. eigenvalues --   -0.57593  -0.57522  -0.55266  -0.55222  -0.53048
 Alpha  occ. eigenvalues --   -0.52442  -0.52376  -0.52115  -0.49920  -0.49856
 Alpha  occ. eigenvalues --   -0.47931  -0.47825  -0.46630  -0.46568  -0.45779
 Alpha  occ. eigenvalues --   -0.45737  -0.45704  -0.45665  -0.43949  -0.43495
 Alpha virt. eigenvalues --    0.22277   0.22989   0.23600   0.24849   0.26569
 Alpha virt. eigenvalues --    0.26654   0.26926   0.27387   0.27634   0.28950
 Alpha virt. eigenvalues --    0.29726   0.31231   0.31386   0.32030   0.32282

 Mulliken charges:
               1
     1  C   -0.298194
     2  C   -0.299595
     3  C   -0.475669
     4  H    0.149455
     5  H    0.149427
     6  H    0.151833
     7  H    0.151903
     8  H    0.155139
     9  H    0.155092
    10  H    0.160157
    11  C   -0.298242
    12  C   -0.299910
    13  C   -0.482105
    14  H    0.149240
    15  H    0.149585
    16  H    0.152012
    17  H    0.151595
    18  H    0.153996
    19  H    0.152915
    20  H    0.171810
    21  C   -0.298254
    22  C   -0.299599
    23  C   -0.475693
    24  H    0.149566
    25  H    0.149512
    26  H    0.151891
    27  H    0.151930
    28  H    0.155179
    29  H    0.155147
    30  H    0.160236
    31  C   -0.298481
    32  C   -0.300659
    33  C   -0.479568
    34  H    0.149392
    35  H    0.149590
    36  H    0.151647
    37  H    0.151954
    38  H    0.154334
    39  H    0.154947
    40  H    0.166488
 Sum of Mulliken charges =  -0.00000

 Dipole moment (field-independent basis, Debye):
    X=             -0.0231    Y=              0.0090    Z=             -0.0051  Tot=              0.0253
 Quadrupole moment (field-independent basis, Debye-Ang):
   XX=            -86.4381   YY=            -84.2658   ZZ=            -84.3524
   XY=              0.1746   XZ=              0.1579   YZ=             -0.4101

 Normal termination of Gaussian 16 at Wed May  5 21:19:53 2021.
