 Gaussian 16, Revision A.03,
 Gaussian 16:  EM64L-G16RevA.03 25-Dec-2016

 -------------
 #p 6-31g* mp2
 -------------

 ------------------------------------------------------
 Input file generated by CHIRIPA (05-May-2021 14:53:14)
 ------------------------------------------------------
 Symbolic Z-matrix:
 Charge =  0 Multiplicity = 1

                         Standard orientation:
 ---------------------------------------------------------------------
 Center     Atomic      Atomic             Coordinates (Angstroms)
 Number     Number       Type             X           Y           Z
 ---------------------------------------------------------------------
      1          6           0       -5.760485   -0.436181   -0.131212
      2          6           0       -6.709551    0.753954   -0.275563
      3          6           0       -8.141347    0.331563   -0.606230
      4          1           0       -5.766818   -1.017255   -1.063552
      5          1           0       -6.137820   -1.103795    0.655747
      6          1           0       -6.329796    1.419830   -1.061064
      7          1           0       -6.700811    1.332369    0.657161
      8          1           0       -8.543753   -0.314758    0.180496
      9          1           0       -8.170630   -0.226801   -1.547492
     10          1           0       -8.802836    1.197901   -0.704967
     11          6           0       -4.325393   -0.030012    0.199341
     12          6           0       -3.376327   -1.220147    0.343693
     13          6           0       -1.944531   -0.797756    0.674360
     14          1           0       -3.948057    0.637602   -0.587618
     15          1           0       -4.319059    0.551062    1.131682
     16          1           0       -3.385066   -1.798562   -0.589032
     17          1           0       -3.756081   -1.886022    1.129194
     18          1           0       -1.915247   -0.239392    1.615621
     19          1           0       -1.542124   -0.151434   -0.112367
     20          1           0       -1.283041   -1.664094    0.773097
     21          6           0        1.666630    1.197819    0.382005
     22          6           0        1.809397   -0.191653    0.307811
     23          6           0        3.064090   -0.765421    0.081791
     24          6           0        4.159557    0.083912   -0.066117
     25          6           0        4.049554    1.471880    0.002668
     26          6           0        2.785192    2.023695    0.229465
     27          1           0        0.688199    1.635009    0.557885
     28          1           0        0.942463   -0.835489    0.425900
     29          1           0        3.203062   -1.837924    0.019821
     30          1           0        4.932258    2.087871   -0.119016
     31          1           0        2.677299    3.103111    0.286610
     32          7           0        5.492963   -0.511890   -0.305806
     33          8           0        6.442450    0.258169   -0.432763
     34          8           0        5.563349   -1.737658   -0.362180
 ---------------------------------------------------------------------

 SCF Done:  E(RHF) =  -669.535299361     A.U. after   15 cycles
 E2 =    -0.2091398375D+01 EUMP2 =    -0.67162669773650D+03

 The electronic state is 1-A.
 Alpha  occ. eigenvalues --  -20.60675 -20.60670 -15.85726 -11.31063 -11.27630
 Alpha  occ. eigenvalues --  -11.27603 -11.27334 -11.26646 -11.26531 -11.22621
 Alpha  occ. eigenvalues --  -11.22516 -11.22228 -11.22157 -11.22023 -11.21523
 Alpha  occ. eigenvalues --   -1.59751  -1.39305  -1.19224  -1.09223  -1.08623
 Alpha  occ. eigenvalues --   -1.04627  -1.04367  -0.96865  -0.95465  -0.87912
 Alpha  occ. eigenvalues --   -0.86009  -0.82299  -0.80463  -0.78986  -0.77350
 Alpha  occ. eigenvalues --   -0.71945  -0.71074  -0.70333  -0.65846  -0.64872
 Alpha  occ. eigenvalues --   -0.64651  -0.62037  -0.61730  -0.60239  -0.58437
 Alpha  occ. eigenvalues --   -0.56140  -0.55125  -0.53684  -0.53278  -0.52956
 Alpha  occ. eigenvalues --   -0.52572  -0.50780  -0.48762  -0.48701  -0.48698
 Alpha  occ. eigenvalues --   -0.47447  -0.46541  -0.46426  -0.44717  -0.44600
 Alpha  occ. eigenvalues --   -0.37204  -0.36225
 Alpha virt. eigenvalues --    0.05171   0.11399   0.16673   0.20325   0.22266
 Alpha virt. eigenvalues --    0.23756   0.25712   0.25949   0.26228   0.27502
 Alpha virt. eigenvalues --    0.29223   0.29454   0.30641   0.31574   0.32196

 Mulliken charges:
               1
     1  C   -0.299085
     2  C   -0.300160
     3  C   -0.476141
     4  H    0.151309
     5  H    0.151149
     6  H    0.152197
     7  H    0.152248
     8  H    0.156070
     9  H    0.156136
    10  H    0.161675
    11  C   -0.299719
    12  C   -0.298988
    13  C   -0.485907
    14  H    0.149362
    15  H    0.149962
    16  H    0.155843
    17  H    0.156237
    18  H    0.158018
    19  H    0.153395
    20  H    0.158891
    21  C   -0.175844
    22  C   -0.224749
    23  C   -0.173174
    24  C    0.158936
    25  C   -0.171664
    26  C   -0.218460
    27  H    0.226812
    28  H    0.236313
    29  H    0.275266
    30  H    0.275002
    31  H    0.222714
    32  N    0.487987
    33  O   -0.460872
    34  O   -0.460759
 Sum of Mulliken charges =  -0.00000

 Dipole moment (field-independent basis, Debye):
    X=             -5.0389    Y=              2.0568    Z=              0.8495  Tot=              5.5084
 Quadrupole moment (field-independent basis, Debye-Ang):
   XX=           -133.8512   YY=            -90.2986   ZZ=            -94.8012
   XY=             10.5078   XZ=              3.3029   YZ=             -0.3251

 Normal termination of Gaussian 16 at Wed May  5 18:37:14 2021.
