 Gaussian 16, Revision A.03,
 Gaussian 16:  EM64L-G16RevA.03 25-Dec-2016

 -------------
 #p 6-31g* mp2
 -------------

 ------------------------------------------------------
 Input file generated by CHIRIPA (05-May-2021 14:55:24)
 ------------------------------------------------------
 Symbolic Z-matrix:
 Charge =  0 Multiplicity = 1

                         Standard orientation:
 ---------------------------------------------------------------------
 Center     Atomic      Atomic             Coordinates (Angstroms)
 Number     Number       Type             X           Y           Z
 ---------------------------------------------------------------------
      1          6           0        4.688738    1.082291    0.516136
      2          6           0        3.408244    1.500862    0.892507
      3          6           0        2.290923    0.709452    0.609995
      4          6           0        2.491486   -0.500172   -0.053235
      5          6           0        3.754543   -0.944586   -0.441142
      6          6           0        4.857503   -0.136947   -0.148316
      7          1           0        5.551121    1.703381    0.739605
      8          1           0        3.274180    2.447264    1.408642
      9          1           0        1.288375    1.009335    0.889969
     10          1           0        3.856592   -1.893010   -0.954462
     11          1           0        5.850774   -0.464547   -0.441805
     12          7           0        1.316230   -1.346592   -0.357778
     13          8           0        1.519599   -2.408049   -0.943088
     14          8           0        0.213949   -0.932533   -0.005402
     15          6           0       -2.867060    0.968696   -0.034518
     16          6           0       -3.318614    2.354819   -0.495764
     17          6           0       -2.167109    3.358149   -0.567587
     18          1           0       -2.391484    1.054448    0.952103
     19          1           0       -2.095742    0.594442   -0.721831
     20          1           0       -4.089842    2.725760    0.191424
     21          1           0       -3.793341    2.265729   -1.481316
     22          1           0       -1.399299    3.013874   -1.267974
     23          1           0       -1.697483    3.476519    0.414270
     24          1           0       -2.512269    4.342325   -0.899432
     25          6           0       -4.007007   -0.045377    0.042308
     26          6           0       -3.555453   -1.431500    0.503554
     27          6           0       -4.706958   -2.434830    0.575376
     28          1           0       -4.778324    0.328877    0.729621
     29          1           0       -4.482582   -0.131129   -0.944313
     30          1           0       -3.080726   -1.342410    1.489106
     31          1           0       -2.784225   -1.802441   -0.183634
     32          1           0       -5.176583   -2.553199   -0.406480
     33          1           0       -5.474767   -2.090555    1.275764
     34          1           0       -4.361797   -3.419006    0.907222
 ---------------------------------------------------------------------

 SCF Done:  E(RHF) =  -669.536055231     A.U. after   15 cycles
 E2 =    -0.2091805382D+01 EUMP2 =    -0.67162786061271D+03

 The electronic state is 1-A.
 Alpha  occ. eigenvalues --  -20.60954 -20.60944 -15.85974 -11.31282 -11.27847
 Alpha  occ. eigenvalues --  -11.27833 -11.27581 -11.26850 -11.26837 -11.20930
 Alpha  occ. eigenvalues --  -11.20746 -11.20309 -11.20224 -11.20137 -11.19968
 Alpha  occ. eigenvalues --   -1.60013  -1.39568  -1.19450  -1.08859  -1.07397
 Alpha  occ. eigenvalues --   -1.04842  -1.02602  -0.95704  -0.95096  -0.86244
 Alpha  occ. eigenvalues --   -0.86129  -0.82540  -0.78653  -0.77630  -0.77079
 Alpha  occ. eigenvalues --   -0.72187  -0.71325  -0.70557  -0.65106  -0.64845
 Alpha  occ. eigenvalues --   -0.64035  -0.62188  -0.60011  -0.58489  -0.56668
 Alpha  occ. eigenvalues --   -0.55349  -0.54409  -0.53177  -0.52933  -0.51836
 Alpha  occ. eigenvalues --   -0.51526  -0.49092  -0.48975  -0.48955  -0.46967
 Alpha  occ. eigenvalues --   -0.45683  -0.45051  -0.44702  -0.44394  -0.42815
 Alpha  occ. eigenvalues --   -0.37430  -0.36443
 Alpha virt. eigenvalues --    0.04913   0.11210   0.16394   0.21116   0.23569
 Alpha virt. eigenvalues --    0.24896   0.26885   0.27591   0.27923   0.28803
 Alpha virt. eigenvalues --    0.29184   0.31062   0.32035   0.32418   0.32530

 Mulliken charges:
               1
     1  C   -0.170540
     2  C   -0.218629
     3  C   -0.171290
     4  C    0.157410
     5  C   -0.170691
     6  C   -0.218662
     7  H    0.225987
     8  H    0.224126
     9  H    0.277097
    10  H    0.275690
    11  H    0.223725
    12  N    0.491701
    13  O   -0.459534
    14  O   -0.462404
    15  C   -0.299975
    16  C   -0.298898
    17  C   -0.474481
    18  H    0.144717
    19  H    0.167520
    20  H    0.148691
    21  H    0.150793
    22  H    0.154232
    23  H    0.148237
    24  H    0.157858
    25  C   -0.298744
    26  C   -0.301120
    27  C   -0.475710
    28  H    0.143117
    29  H    0.146152
    30  H    0.150055
    31  H    0.172541
    32  H    0.152110
    33  H    0.149505
    34  H    0.159416
 Sum of Mulliken charges =  -0.00000

 Dipole moment (field-independent basis, Debye):
    X=              4.4412    Y=              2.8080    Z=              0.9993  Tot=              5.3486
 Quadrupole moment (field-independent basis, Debye-Ang):
   XX=            -74.5063   YY=            -97.1167   ZZ=            -93.8344
   XY=              2.7780   XZ=              1.2263   YZ=              1.5126

 Normal termination of Gaussian 16 at Thu May  6 01:34:40 2021.
