 Gaussian 16, Revision A.03,
 Gaussian 16:  EM64L-G16RevA.03 25-Dec-2016

 -------------
 #p 6-31g* mp2
 -------------

 ------------------------------------------------------
 Input file generated by CHIRIPA (05-May-2021 14:55:22)
 ------------------------------------------------------
 Symbolic Z-matrix:
 Charge =  0 Multiplicity = 1

                         Standard orientation:
 ---------------------------------------------------------------------
 Center     Atomic      Atomic             Coordinates (Angstroms)
 Number     Number       Type             X           Y           Z
 ---------------------------------------------------------------------
      1          6           0       -3.429484   -2.024769    0.486030
      2          6           0       -3.497330   -1.076054    1.511632
      3          6           0       -3.112281    0.247939    1.280708
      4          6           0       -2.662236    0.590121    0.006478
      5          6           0       -2.583199   -0.332143   -1.035861
      6          6           0       -2.973439   -1.650445   -0.782207
      7          1           0       -3.730615   -3.051068    0.674246
      8          1           0       -3.851101   -1.363914    2.497547
      9          1           0       -3.154711    1.002664    2.056600
     10          1           0       -2.226329   -0.015207   -2.008287
     11          1           0       -2.919691   -2.385105   -1.580600
     12          7           0       -2.251855    1.988762   -0.250022
     13          8           0       -1.858922    2.264910   -1.381385
     14          8           0       -2.330900    2.782384    0.685153
     15          6           0        4.013992    0.086363   -0.182604
     16          6           0        5.276217   -0.080305    0.664151
     17          6           0        6.306581    1.020970    0.412477
     18          1           0        4.291644    0.094727   -1.245516
     19          1           0        3.564463    1.066057    0.030748
     20          1           0        5.722469   -1.059967    0.450288
     21          1           0        4.995506   -0.088466    1.725165
     22          1           0        5.884120    2.004040    0.644212
     23          1           0        6.615213    1.027019   -0.637908
     24          1           0        7.200849    0.882344    1.028047
     25          6           0        2.974482   -1.006961    0.057797
     26          6           0        1.712256   -0.840293   -0.788958
     27          6           0        0.681892   -1.941568   -0.537284
     28          1           0        3.424010   -1.986655   -0.155555
     29          1           0        2.696829   -1.015326    1.120709
     30          1           0        1.992967   -0.832132   -1.849972
     31          1           0        1.266005    0.139368   -0.575095
     32          1           0        0.373261   -1.947618    0.513101
     33          1           0        1.104354   -2.924638   -0.769019
     34          1           0       -0.212376   -1.802943   -1.152854
 ---------------------------------------------------------------------

 SCF Done:  E(RHF) =  -669.533819774     A.U. after   15 cycles
 E2 =    -0.2093318392D+01 EUMP2 =    -0.67162713816629D+03

 The electronic state is 1-A.
 Alpha  occ. eigenvalues --  -20.60819 -20.60813 -15.85869 -11.31228 -11.27787
 Alpha  occ. eigenvalues --  -11.27777 -11.27518 -11.26810 -11.26778 -11.21503
 Alpha  occ. eigenvalues --  -11.21441 -11.21288 -11.21169 -11.21067 -11.20881
 Alpha  occ. eigenvalues --   -1.59893  -1.39446  -1.19405  -1.08793  -1.08300
 Alpha  occ. eigenvalues --   -1.04827  -1.03424  -0.95897  -0.95626  -0.86915
 Alpha  occ. eigenvalues --   -0.86203  -0.82473  -0.79489  -0.78100  -0.77520
 Alpha  occ. eigenvalues --   -0.72086  -0.71218  -0.70506  -0.65060  -0.64929
 Alpha  occ. eigenvalues --   -0.64813  -0.62175  -0.60828  -0.59327  -0.57531
 Alpha  occ. eigenvalues --   -0.55297  -0.55207  -0.53444  -0.52902  -0.52369
 Alpha  occ. eigenvalues --   -0.52178  -0.49805  -0.48845  -0.48843  -0.47811
 Alpha  occ. eigenvalues --   -0.46511  -0.45650  -0.45563  -0.44846  -0.43707
 Alpha  occ. eigenvalues --   -0.37372  -0.36256
 Alpha virt. eigenvalues --    0.05004   0.11174   0.16409   0.21148   0.23000
 Alpha virt. eigenvalues --    0.24384   0.26722   0.26780   0.27603   0.28127
 Alpha virt. eigenvalues --    0.28608   0.30749   0.31459   0.31920   0.32519

 Mulliken charges:
               1
     1  C   -0.170302
     2  C   -0.218730
     3  C   -0.171883
     4  C    0.159778
     5  C   -0.170914
     6  C   -0.215664
     7  H    0.225953
     8  H    0.223579
     9  H    0.275554
    10  H    0.276102
    11  H    0.224179
    12  N    0.487729
    13  O   -0.460269
    14  O   -0.460402
    15  C   -0.299025
    16  C   -0.299549
    17  C   -0.475833
    18  H    0.149805
    19  H    0.153677
    20  H    0.150496
    21  H    0.151478
    22  H    0.156987
    23  H    0.155164
    24  H    0.159419
    25  C   -0.298142
    26  C   -0.300924
    27  C   -0.476014
    28  H    0.147697
    29  H    0.148808
    30  H    0.151600
    31  H    0.156873
    32  H    0.154692
    33  H    0.150973
    34  H    0.157107
 Sum of Mulliken charges =  -0.00000

 Dipole moment (field-independent basis, Debye):
    X=             -1.5173    Y=             -4.8653    Z=              0.9160  Tot=              5.1780
 Quadrupole moment (field-independent basis, Debye-Ang):
   XX=            -88.1449   YY=           -101.3195   ZZ=            -89.8195
   XY=             11.6598   XZ=             -3.9387   YZ=              2.2064

 Normal termination of Gaussian 16 at Thu May  6 14:11:49 2021.
