 Gaussian 16, Revision A.03,
 Gaussian 16:  EM64L-G16RevA.03 25-Dec-2016

 -------------
 #p 6-31g* mp2
 -------------

 ------------------------------------------------------
 Input file generated by CHIRIPA (05-May-2021 14:55:24)
 ------------------------------------------------------
 Symbolic Z-matrix:
 Charge =  0 Multiplicity = 1

                         Standard orientation:
 ---------------------------------------------------------------------
 Center     Atomic      Atomic             Coordinates (Angstroms)
 Number     Number       Type             X           Y           Z
 ---------------------------------------------------------------------
      1          6           0       -2.800284    2.542770   -0.053519
      2          6           0       -4.124185    2.142388    0.155052
      3          6           0       -4.475621    0.790734    0.091228
      4          6           0       -3.473239   -0.137947   -0.184584
      5          6           0       -2.145446    0.229649   -0.397019
      6          6           0       -1.816874    1.586808   -0.328404
      7          1           0       -2.536161    3.594905   -0.002079
      8          1           0       -4.890004    2.882602    0.368710
      9          1           0       -5.492813    0.453141    0.248611
     10          1           0       -1.404051   -0.531396   -0.608116
     11          1           0       -0.787905    1.894854   -0.490812
     12          7           0       -3.833186   -1.571796   -0.254687
     13          8           0       -2.931504   -2.370410   -0.499271
     14          8           0       -5.010179   -1.869883   -0.063722
     15          6           0        3.633132    0.070064    0.173226
     16          6           0        2.751555   -0.624844    1.211450
     17          6           0        1.280488   -0.222573    1.102208
     18          1           0        3.539361    1.158279    0.291296
     19          1           0        3.260534   -0.168467   -0.832592
     20          1           0        3.126540   -0.386193    2.214968
     21          1           0        2.847584   -1.711532    1.091020
     22          1           0        0.884186   -0.476041    0.113624
     23          1           0        1.164727    0.856829    1.243958
     24          1           0        0.668380   -0.731004    1.853661
     25          6           0        5.106492   -0.321888    0.269731
     26          6           0        5.988069    0.373021   -0.768494
     27          6           0        7.459136   -0.029251   -0.659251
     28          1           0        5.479089   -0.083357    1.275548
     29          1           0        5.200263   -1.410103    0.151660
     30          1           0        5.892040    1.459708   -0.648063
     31          1           0        5.613084    0.134369   -1.772011
     32          1           0        7.574897   -1.108653   -0.801001
     33          1           0        7.855438    0.224217    0.329334
     34          1           0        8.071243    0.479180   -1.410705
 ---------------------------------------------------------------------

 SCF Done:  E(RHF) =  -669.535153843     A.U. after   15 cycles
 E2 =    -0.2091678895D+01 EUMP2 =    -0.67162683273879D+03

 The electronic state is 1-A.
 Alpha  occ. eigenvalues --  -20.60702 -20.60697 -15.85754 -11.31085 -11.27669
 Alpha  occ. eigenvalues --  -11.27619 -11.27406 -11.26684 -11.26634 -11.22055
 Alpha  occ. eigenvalues --  -11.21890 -11.21840 -11.21797 -11.21692 -11.21291
 Alpha  occ. eigenvalues --   -1.59778  -1.39332  -1.19263  -1.08827  -1.08667
 Alpha  occ. eigenvalues --   -1.04667  -1.03940  -0.96421  -0.95504  -0.87448
 Alpha  occ. eigenvalues --   -0.86063  -0.82340  -0.80024  -0.78635  -0.77374
 Alpha  occ. eigenvalues --   -0.71974  -0.71100  -0.70387  -0.65460  -0.64917
 Alpha  occ. eigenvalues --   -0.64673  -0.62066  -0.61315  -0.59766  -0.58004
 Alpha  occ. eigenvalues --   -0.55740  -0.55171  -0.53190  -0.52969  -0.52777
 Alpha  occ. eigenvalues --   -0.52741  -0.50347  -0.48732  -0.48728  -0.48324
 Alpha  occ. eigenvalues --   -0.47029  -0.46179  -0.46085  -0.44744  -0.44180
 Alpha  occ. eigenvalues --   -0.37253  -0.36240
 Alpha virt. eigenvalues --    0.05129   0.11370   0.16584   0.20427   0.22634
 Alpha virt. eigenvalues --    0.23908   0.25566   0.26066   0.27280   0.27806
 Alpha virt. eigenvalues --    0.29190   0.30179   0.31434   0.31530   0.32279

 Mulliken charges:
               1
     1  C   -0.171397
     2  C   -0.218778
     3  C   -0.170969
     4  C    0.158608
     5  C   -0.173195
     6  C   -0.219280
     7  H    0.225030
     8  H    0.222958
     9  H    0.275172
    10  H    0.279478
    11  H    0.225257
    12  N    0.488057
    13  O   -0.460748
    14  O   -0.460793
    15  C   -0.299004
    16  C   -0.300411
    17  C   -0.479010
    18  H    0.146666
    19  H    0.149130
    20  H    0.154130
    21  H    0.157339
    22  H    0.147974
    23  H    0.150699
    24  H    0.169270
    25  C   -0.298642
    26  C   -0.299909
    27  C   -0.475971
    28  H    0.150337
    29  H    0.152006
    30  H    0.150938
    31  H    0.152304
    32  H    0.156412
    33  H    0.155528
    34  H    0.160812
 Sum of Mulliken charges =  -0.00000

 Dipole moment (field-independent basis, Debye):
    X=              1.4239    Y=              4.9845    Z=              0.3166  Tot=              5.1936
 Quadrupole moment (field-independent basis, Debye-Ang):
   XX=            -99.9273   YY=            -95.9404   ZZ=            -94.9875
   XY=            -19.0253   XZ=             -1.9638   YZ=             -0.2878

 Normal termination of Gaussian 16 at Thu May  6 16:00:55 2021.
