 Gaussian 16, Revision A.03,
 Gaussian 16:  EM64L-G16RevA.03 25-Dec-2016

 -------------
 #p 6-31g* mp2
 -------------

 ------------------------------------------------------
 Input file generated by CHIRIPA (05-May-2021 14:51:11)
 ------------------------------------------------------
 Symbolic Z-matrix:
 Charge =  0 Multiplicity = 1

                         Standard orientation:
 ---------------------------------------------------------------------
 Center     Atomic      Atomic             Coordinates (Angstroms)
 Number     Number       Type             X           Y           Z
 ---------------------------------------------------------------------
      1          6           0        2.563942   -0.608888   -0.408400
      2          6           0        2.648676   -2.083054   -0.011364
      3          6           0        1.580350   -2.940529   -0.690490
      4          1           0        1.566782   -0.224050   -0.154398
      5          1           0        2.663196   -0.523912   -1.499420
      6          1           0        2.550678   -2.165107    1.078719
      7          1           0        3.645814   -2.464377   -0.266165
      8          1           0        1.679461   -2.888388   -1.779553
      9          1           0        0.578102   -2.587418   -0.427028
     10          1           0        1.659270   -3.990698   -0.392537
     11          6           0        3.625454    0.261154    0.262381
     12          6           0        3.540721    1.735321   -0.134656
     13          6           0        4.609046    2.592795    0.544470
     14          1           0        3.526200    0.176178    1.353400
     15          1           0        4.622614   -0.123684    0.008379
     16          1           0        2.543582    2.116643    0.120146
     17          1           0        3.638719    1.817373   -1.224738
     18          1           0        5.611294    2.239684    0.281008
     19          1           0        4.509935    2.540655    1.633534
     20          1           0        4.530126    3.642964    0.246517
     21          6           0       -3.129935   -0.453318    0.507555
     22          6           0       -2.578669   -1.701210   -0.182993
     23          6           0       -2.656013   -2.947777    0.698981
     24          1           0       -2.572631   -0.280746    1.438456
     25          1           0       -4.174260   -0.634297    0.797434
     26          1           0       -1.536123   -1.517434   -0.472717
     27          1           0       -3.137225   -1.870721   -1.112454
     28          1           0       -3.693547   -3.158867    0.977489
     29          1           0       -2.083348   -2.803573    1.620861
     30          1           0       -2.256693   -3.828107    0.185733
     31          6           0       -3.059461    0.801052   -0.361536
     32          6           0       -3.610727    2.048943    0.329013
     33          6           0       -3.533383    3.295511   -0.552962
     34          1           0       -2.015137    0.982030   -0.651414
     35          1           0       -3.616766    0.628479   -1.292436
     36          1           0       -3.052172    2.218454    1.258474
     37          1           0       -4.653273    1.865168    0.618737
     38          1           0       -4.106048    3.151306   -1.474841
     39          1           0       -2.495850    3.506600   -0.831469
     40          1           0       -3.932704    4.175840   -0.039713
 ---------------------------------------------------------------------

 SCF Done:  E(RHF) =  -470.733309302     A.U. after   11 cycles
 E2 =    -0.1582879224D+01 EUMP2 =    -0.47231618852528D+03

 The electronic state is 1-A.
 Alpha  occ. eigenvalues --  -11.21636 -11.21622 -11.21618 -11.21609 -11.21447
 Alpha  occ. eigenvalues --  -11.21424 -11.21386 -11.21365 -11.21097 -11.21080
 Alpha  occ. eigenvalues --  -11.21076 -11.21049  -1.08469  -1.08444  -1.03576
 Alpha  occ. eigenvalues --   -1.03524  -0.96026  -0.95969  -0.87020  -0.87006
 Alpha  occ. eigenvalues --   -0.79661  -0.79568  -0.78307  -0.78232  -0.65175
 Alpha  occ. eigenvalues --   -0.65015  -0.61120  -0.60805  -0.59382  -0.59349
 Alpha  occ. eigenvalues --   -0.57682  -0.57539  -0.55409  -0.55156  -0.52710
 Alpha  occ. eigenvalues --   -0.52667  -0.52426  -0.52411  -0.49982  -0.49905
 Alpha  occ. eigenvalues --   -0.48044  -0.47842  -0.46805  -0.46501  -0.45947
 Alpha  occ. eigenvalues --   -0.45780  -0.45767  -0.45509  -0.43820  -0.43788
 Alpha virt. eigenvalues --    0.20631   0.23256   0.23452   0.24952   0.25527
 Alpha virt. eigenvalues --    0.26954   0.27058   0.27127   0.28549   0.29032
 Alpha virt. eigenvalues --    0.30624   0.31426   0.31630   0.31776   0.32254

 Mulliken charges:
               1
     1  C   -0.298696
     2  C   -0.299315
     3  C   -0.484207
     4  H    0.148589
     5  H    0.149847
     6  H    0.151757
     7  H    0.152115
     8  H    0.155108
     9  H    0.164211
    10  H    0.160459
    11  C   -0.298314
    12  C   -0.299596
    13  C   -0.475732
    14  H    0.149525
    15  H    0.149982
    16  H    0.151496
    17  H    0.152095
    18  H    0.155309
    19  H    0.155200
    20  H    0.160372
    21  C   -0.297645
    22  C   -0.306723
    23  C   -0.475984
    24  H    0.149077
    25  H    0.149730
    26  H    0.156879
    27  H    0.152600
    28  H    0.155346
    29  H    0.154744
    30  H    0.161653
    31  C   -0.298603
    32  C   -0.299641
    33  C   -0.475741
    34  H    0.149580
    35  H    0.149948
    36  H    0.151713
    37  H    0.152033
    38  H    0.155286
    39  H    0.155270
    40  H    0.160276
 Sum of Mulliken charges =  -0.00000

 Dipole moment (field-independent basis, Debye):
    X=             -0.0056    Y=             -0.0110    Z=             -0.0102  Tot=              0.0160
 Quadrupole moment (field-independent basis, Debye-Ang):
   XX=            -83.9317   YY=            -86.2225   ZZ=            -84.4730
   XY=             -0.3981   XZ=             -0.4295   YZ=              0.4177

 Normal termination of Gaussian 16 at Wed May  5 15:13:15 2021.
