 Gaussian 16, Revision A.03,
 Gaussian 16:  EM64L-G16RevA.03 25-Dec-2016

 -------------
 #p 6-31g* mp2
 -------------

 ------------------------------------------------------
 Input file generated by CHIRIPA (05-May-2021 14:55:20)
 ------------------------------------------------------
 Symbolic Z-matrix:
 Charge =  0 Multiplicity = 1

                         Standard orientation:
 ---------------------------------------------------------------------
 Center     Atomic      Atomic             Coordinates (Angstroms)
 Number     Number       Type             X           Y           Z
 ---------------------------------------------------------------------
      1          6           0       -5.373499    0.280083    0.397637
      2          6           0       -4.436361    1.050974    1.093353
      3          6           0       -3.068249    0.893490    0.852486
      4          6           0       -2.670625   -0.048367   -0.095190
      5          6           0       -3.579992   -0.831400   -0.804557
      6          6           0       -4.943083   -0.656991   -0.547431
      7          1           0       -6.434331    0.408994    0.591064
      8          1           0       -4.767741    1.779479    1.827868
      9          1           0       -2.321283    1.477074    1.376785
     10          1           0       -3.219239   -1.549592   -1.530831
     11          1           0       -5.668627   -1.257060   -1.089232
     12          7           0       -1.224924   -0.224047   -0.358792
     13          8           0       -0.900296   -1.060592   -1.198700
     14          8           0       -0.443786    0.478127    0.279497
     15          6           0        3.454122    0.647776   -0.284322
     16          6           0        4.174110    1.933014    0.125271
     17          6           0        3.624167    3.170583   -0.584501
     18          1           0        3.540477    0.517264   -1.371729
     19          1           0        2.382145    0.750765   -0.066024
     20          1           0        5.244621    1.827104   -0.092458
     21          1           0        4.086195    2.060381    1.211855
     22          1           0        2.561379    3.304100   -0.358105
     23          1           0        3.726387    3.069498   -1.669828
     24          1           0        4.153160    4.078026   -0.276973
     25          6           0        3.992647   -0.598080    0.416791
     26          6           0        3.272657   -1.883316    0.007197
     27          6           0        3.822600   -3.120887    0.716970
     28          1           0        5.064624   -0.701068    0.198493
     29          1           0        3.906291   -0.467567    1.504198
     30          1           0        3.360574   -2.010684   -1.079386
     31          1           0        2.202147   -1.777408    0.224927
     32          1           0        3.720381   -3.019802    1.802297
     33          1           0        4.885390   -3.254404    0.490574
     34          1           0        3.293609   -4.028330    0.409442
 ---------------------------------------------------------------------

 SCF Done:  E(RHF) =  -669.536830855     A.U. after   15 cycles
 E2 =    -0.2091645861D+01 EUMP2 =    -0.67162847671543D+03

 The electronic state is 1-A.
 Alpha  occ. eigenvalues --  -20.61140 -20.61128 -15.86141 -11.31403 -11.27955
 Alpha  occ. eigenvalues --  -11.27950 -11.27680 -11.26946 -11.26936 -11.20316
 Alpha  occ. eigenvalues --  -11.19998 -11.19965 -11.19904 -11.19872 -11.19560
 Alpha  occ. eigenvalues --   -1.60173  -1.39732  -1.19561  -1.08977  -1.06919
 Alpha  occ. eigenvalues --   -1.04947  -1.02178  -0.95828  -0.94646  -0.86350
 Alpha  occ. eigenvalues --   -0.85675  -0.82665  -0.78214  -0.77725  -0.76682
 Alpha  occ. eigenvalues --   -0.72353  -0.71478  -0.70669  -0.65218  -0.64950
 Alpha  occ. eigenvalues --   -0.63547  -0.62294  -0.59585  -0.58018  -0.56249
 Alpha  occ. eigenvalues --   -0.55454  -0.53945  -0.53282  -0.53037  -0.51406
 Alpha  occ. eigenvalues --   -0.51080  -0.49179  -0.49107  -0.48581  -0.46542
 Alpha  occ. eigenvalues --   -0.45230  -0.45150  -0.44283  -0.43987  -0.42377
 Alpha  occ. eigenvalues --   -0.37537  -0.36544
 Alpha virt. eigenvalues --    0.04793   0.11112   0.16307   0.21246   0.24335
 Alpha virt. eigenvalues --    0.25542   0.27177   0.27973   0.28263   0.29007
 Alpha virt. eigenvalues --    0.29437   0.30868   0.32352   0.32629   0.33053

 Mulliken charges:
               1
     1  C   -0.170327
     2  C   -0.218553
     3  C   -0.170641
     4  C    0.157694
     5  C   -0.170326
     6  C   -0.218621
     7  H    0.226417
     8  H    0.224210
     9  H    0.275768
    10  H    0.276186
    11  H    0.224230
    12  N    0.490348
    13  O   -0.457493
    14  O   -0.461539
    15  C   -0.311975
    16  C   -0.297658
    17  C   -0.475049
    18  H    0.145199
    19  H    0.181778
    20  H    0.146165
    21  H    0.148119
    22  H    0.157976
    23  H    0.153044
    24  H    0.153909
    25  C   -0.296323
    26  C   -0.301789
    27  C   -0.475143
    28  H    0.142112
    29  H    0.145107
    30  H    0.150402
    31  H    0.168061
    32  H    0.151203
    33  H    0.150449
    34  H    0.157059
 Sum of Mulliken charges =  -0.00000

 Dipole moment (field-independent basis, Debye):
    X=             -5.6459    Y=              0.6017    Z=              0.8770  Tot=              5.7452
 Quadrupole moment (field-independent basis, Debye-Ang):
   XX=            -69.4151   YY=            -94.6055   ZZ=            -92.8512
   XY=             -0.4325   XZ=             -2.0394   YZ=              3.4955

 Normal termination of Gaussian 16 at Thu May  6 12:25:31 2021.
