 Gaussian 16, Revision A.03,
 Gaussian 16:  EM64L-G16RevA.03 25-Dec-2016

 -------------
 #p 6-31g* mp2
 -------------

 ------------------------------------------------------
 Input file generated by CHIRIPA (05-May-2021 14:53:14)
 ------------------------------------------------------
 Symbolic Z-matrix:
 Charge =  0 Multiplicity = 1

                         Standard orientation:
 ---------------------------------------------------------------------
 Center     Atomic      Atomic             Coordinates (Angstroms)
 Number     Number       Type             X           Y           Z
 ---------------------------------------------------------------------
      1          6           0       -3.348247    0.773017    0.201964
      2          6           0       -2.113400    1.576056   -0.208237
      3          6           0       -2.174274    3.031899    0.255022
      4          1           0       -4.244853    1.253973   -0.212432
      5          1           0       -3.452455    0.806810    1.295305
      6          1           0       -2.010768    1.539607   -1.300370
      7          1           0       -1.219613    1.093025    0.207025
      8          1           0       -2.252871    3.086157    1.345655
      9          1           0       -3.048523    3.535276   -0.170304
     10          1           0       -1.281654    3.587552   -0.048852
     11          6           0       -3.302147   -0.684283   -0.253972
     12          6           0       -4.536995   -1.487322    0.156229
     13          6           0       -4.476120   -2.943165   -0.307030
     14          1           0       -3.197939   -0.718076   -1.347313
     15          1           0       -2.405541   -1.165239    0.160425
     16          1           0       -5.430782   -1.004291   -0.259032
     17          1           0       -4.639626   -1.450873    1.248362
     18          1           0       -3.601872   -3.446542    0.118297
     19          1           0       -4.397523   -2.997423   -1.397662
     20          1           0       -5.368740   -3.498818   -0.003156
     21          6           0        1.541524    2.251041   -0.140131
     22          6           0        2.086352    1.650133   -1.279689
     23          6           0        2.674119    0.383988   -1.202521
     24          6           0        2.699928   -0.255635    0.035826
     25          6           0        2.165583    0.316861    1.189090
     26          6           0        1.582806    1.583664    1.088455
     27          1           0        1.086870    3.234869   -0.209191
     28          1           0        2.055709    2.166088   -2.235146
     29          1           0        3.103390   -0.104336   -2.068941
     30          1           0        2.211061   -0.222126    2.127622
     31          1           0        1.160470    2.047914    1.975106
     32          7           0        3.319530   -1.596395    0.129942
     33          8           0        3.329662   -2.139085    1.232676
     34          8           0        3.783310   -2.079203   -0.900805
 ---------------------------------------------------------------------

 SCF Done:  E(RHF) =  -669.534417366     A.U. after   15 cycles
 E2 =    -0.2093262590D+01 EUMP2 =    -0.67162767995615D+03

 The electronic state is 1-A.
 Alpha  occ. eigenvalues --  -20.60796 -20.60791 -15.85852 -11.31226 -11.27814
 Alpha  occ. eigenvalues --  -11.27803 -11.27519 -11.26804 -11.26793 -11.22054
 Alpha  occ. eigenvalues --  -11.21962 -11.21772 -11.21761 -11.21605 -11.21133
 Alpha  occ. eigenvalues --   -1.59872  -1.39425  -1.19412  -1.08850  -1.08730
 Alpha  occ. eigenvalues --   -1.04817  -1.03921  -0.96409  -0.95623  -0.87412
 Alpha  occ. eigenvalues --   -0.86208  -0.82464  -0.79980  -0.78552  -0.77507
 Alpha  occ. eigenvalues --   -0.72069  -0.71197  -0.70547  -0.65424  -0.65055
 Alpha  occ. eigenvalues --   -0.64812  -0.62162  -0.61320  -0.59861  -0.58030
 Alpha  occ. eigenvalues --   -0.55683  -0.55320  -0.53212  -0.53017  -0.52900
 Alpha  occ. eigenvalues --   -0.52784  -0.50312  -0.48829  -0.48823  -0.48281
 Alpha  occ. eigenvalues --   -0.46990  -0.46097  -0.46004  -0.44829  -0.44168
 Alpha  occ. eigenvalues --   -0.37304  -0.36404
 Alpha virt. eigenvalues --    0.05007   0.11173   0.16418   0.20138   0.22806
 Alpha virt. eigenvalues --    0.24208   0.26077   0.26405   0.27048   0.27362
 Alpha virt. eigenvalues --    0.28772   0.30119   0.31074   0.31745   0.32408

 Mulliken charges:
               1
     1  C   -0.298241
     2  C   -0.305461
     3  C   -0.477044
     4  H    0.149608
     5  H    0.148608
     6  H    0.150919
     7  H    0.160749
     8  H    0.154455
     9  H    0.159795
    10  H    0.146931
    11  C   -0.298705
    12  C   -0.299915
    13  C   -0.476194
    14  H    0.149927
    15  H    0.151829
    16  H    0.151590
    17  H    0.151879
    18  H    0.157555
    19  H    0.155519
    20  H    0.160817
    21  C   -0.166681
    22  C   -0.219144
    23  C   -0.170342
    24  C    0.158544
    25  C   -0.171734
    26  C   -0.221286
    27  H    0.228783
    28  H    0.223718
    29  H    0.275837
    30  H    0.275685
    31  H    0.224722
    32  N    0.488085
    33  O   -0.460563
    34  O   -0.460247
 Sum of Mulliken charges =  -0.00000

 Dipole moment (field-independent basis, Debye):
    X=             -2.1871    Y=              4.6340    Z=             -0.3515  Tot=              5.1363
 Quadrupole moment (field-independent basis, Debye-Ang):
   XX=           -106.8678   YY=            -99.1906   ZZ=            -89.3145
   XY=             13.4396   XZ=             -1.7818   YZ=             -0.4450

 Normal termination of Gaussian 16 at Wed May  5 17:05:40 2021.
