 Gaussian 16, Revision A.03,
 Gaussian 16:  EM64L-G16RevA.03 25-Dec-2016

 -------------
 #p 6-31g* mp2
 -------------

 ------------------------------------------------------
 Input file generated by CHIRIPA (05-May-2021 14:57:22)
 ------------------------------------------------------
 Symbolic Z-matrix:
 Charge =  0 Multiplicity = 1

                         Standard orientation:
 ---------------------------------------------------------------------
 Center     Atomic      Atomic             Coordinates (Angstroms)
 Number     Number       Type             X           Y           Z
 ---------------------------------------------------------------------
      1          6           0        1.872853    2.148884    0.264473
      2          6           0        2.291961    1.643513   -0.970626
      3          6           0        3.055027    0.473966   -1.037235
      4          6           0        3.382425   -0.167532    0.156323
      5          6           0        2.979860    0.311088    1.402178
      6          6           0        2.217532    1.482234    1.444852
      7          1           0        1.280371    3.058038    0.306920
      8          1           0        2.025760    2.159143   -1.888944
      9          1           0        3.392725    0.060759   -1.979911
     10          1           0        3.260830   -0.225042    2.300531
     11          1           0        1.893435    1.872409    2.405461
     12          7           0        4.189858   -1.406526    0.098476
     13          8           0        4.465120   -1.953006    1.164416
     14          8           0        4.532173   -1.807708   -1.011708
     15          6           0       -5.190309   -1.405695    0.685245
     16          6           0       -4.473165   -1.830648   -0.437983
     17          6           0       -3.395939   -1.080067   -0.918356
     18          6           0       -3.061706    0.095683   -0.248138
     19          6           0       -3.756772    0.545432    0.873423
     20          6           0       -4.830457   -0.221099    1.336215
     21          1           0       -6.025749   -1.994959    1.051581
     22          1           0       -4.750383   -2.750205   -0.945536
     23          1           0       -2.823595   -1.385795   -1.785750
     24          1           0       -3.456749    1.466469    1.358288
     25          1           0       -5.385602    0.111363    2.208756
     26          7           0       -1.923168    0.898732   -0.747382
     27          8           0       -1.648699    1.930873   -0.139114
     28          8           0       -1.326811    0.480817   -1.737504
 ---------------------------------------------------------------------

 SCF Done:  E(RHF) =  -868.340165077     A.U. after   16 cycles
 E2 =    -0.2599286216D+01 EUMP2 =    -0.87093945129295D+03

 The electronic state is 1-A.
 Alpha  occ. eigenvalues --  -20.61556 -20.61519 -20.59893 -20.59882 -15.86555
 Alpha  occ. eigenvalues --  -15.84936 -11.31682 -11.29986 -11.28244 -11.28196
 Alpha  occ. eigenvalues --  -11.27913 -11.27193 -11.27158 -11.26601 -11.26495
 Alpha  occ. eigenvalues --  -11.26067 -11.25495 -11.25326  -1.60588  -1.58975
 Alpha  occ. eigenvalues --   -1.40153  -1.38537  -1.19829  -1.18124  -1.09270
 Alpha  occ. eigenvalues --   -1.07534  -1.05197  -1.03492  -0.96149  -0.94428
 Alpha  occ. eigenvalues --   -0.86607  -0.84884  -0.82994  -0.81291  -0.78065
 Alpha  occ. eigenvalues --   -0.76411  -0.72814  -0.71881  -0.71162  -0.70936
 Alpha  occ. eigenvalues --   -0.70297  -0.69142  -0.65488  -0.65199  -0.63761
 Alpha  occ. eigenvalues --   -0.63482  -0.62550  -0.60868  -0.55707  -0.53884
 Alpha  occ. eigenvalues --   -0.53537  -0.53286  -0.51842  -0.51578  -0.49559
 Alpha  occ. eigenvalues --   -0.49514  -0.47933  -0.47887  -0.45608  -0.44015
 Alpha  occ. eigenvalues --   -0.37796  -0.36789  -0.35967  -0.35090
 Alpha virt. eigenvalues --    0.04448   0.06148   0.10870   0.12584   0.15998
 Alpha virt. eigenvalues --    0.17755   0.21032   0.22763   0.26953   0.27902
 Alpha virt. eigenvalues --    0.28551   0.29687   0.30622   0.32064   0.32370

 Mulliken charges:
               1
     1  C   -0.158669
     2  C   -0.210050
     3  C   -0.171878
     4  C    0.155600
     5  C   -0.174012
     6  C   -0.223181
     7  H    0.233693
     8  H    0.226959
     9  H    0.272184
    10  H    0.269800
    11  H    0.217875
    12  N    0.488287
    13  O   -0.465415
    14  O   -0.463364
    15  C   -0.169841
    16  C   -0.218330
    17  C   -0.169884
    18  C    0.158611
    19  C   -0.170828
    20  C   -0.218436
    21  H    0.227594
    22  H    0.225918
    23  H    0.277108
    24  H    0.273246
    25  H    0.224336
    26  N    0.490890
    27  O   -0.469548
    28  O   -0.458664
 Sum of Mulliken charges =  -0.00000

 Dipole moment (field-independent basis, Debye):
    X=             -7.3214    Y=              1.6604    Z=              1.7669  Tot=              7.7124
 Quadrupole moment (field-independent basis, Debye-Ang):
   XX=           -101.5879   YY=           -105.4149   ZZ=            -98.4744
   XY=             24.1541   XZ=             -5.5443   YZ=              3.8550

 Normal termination of Gaussian 16 at Wed May  5 17:48:35 2021.
