 Gaussian 16, Revision A.03,
 Gaussian 16:  EM64L-G16RevA.03 25-Dec-2016

 -------------
 #p 6-31g* mp2
 -------------

 ------------------------------------------------------
 Input file generated by CHIRIPA (05-May-2021 14:53:13)
 ------------------------------------------------------
 Symbolic Z-matrix:
 Charge =  0 Multiplicity = 1

                         Standard orientation:
 ---------------------------------------------------------------------
 Center     Atomic      Atomic             Coordinates (Angstroms)
 Number     Number       Type             X           Y           Z
 ---------------------------------------------------------------------
      1          6           0       -2.511663    1.070914    0.060349
      2          6           0       -3.129685    2.308267   -0.591566
      3          6           0       -2.261892    3.556839   -0.430947
      4          1           0       -2.347528    1.270225    1.128188
      5          1           0       -1.521263    0.889295   -0.379559
      6          1           0       -4.119208    2.486689   -0.151537
      7          1           0       -3.292544    2.105919   -1.657937
      8          1           0       -1.278175    3.403464   -0.886335
      9          1           0       -2.109536    3.786397    0.628624
     10          1           0       -2.722538    4.429525   -0.904323
     11          6           0       -3.367498   -0.185324   -0.091770
     12          6           0       -2.749476   -1.422676    0.560144
     13          6           0       -3.617269   -2.671248    0.399526
     14          1           0       -4.357897   -0.003705    0.348138
     15          1           0       -3.531632   -0.384635   -1.159609
     16          1           0       -2.586617   -1.220329    1.626516
     17          1           0       -1.759952   -1.601098    0.120116
     18          1           0       -3.769624   -2.900807   -0.660045
     19          1           0       -4.600986   -2.517873    0.854914
     20          1           0       -3.156623   -3.543934    0.872901
     21          6           0        3.338201    1.854814    0.673779
     22          6           0        3.492121    1.371229   -0.629668
     23          6           0        2.919345    0.153085   -1.007296
     24          6           0        2.195844   -0.558694   -0.051678
     25          6           0        2.024737   -0.103407    1.254739
     26          6           0        2.606291    1.117254    1.610172
     27          1           0        3.786557    2.802075    0.958508
     28          1           0        4.060003    1.941895   -1.358980
     29          1           0        3.022840   -0.244691   -2.009534
     30          1           0        1.453070   -0.694759    1.959663
     31          1           0        2.485112    1.490359    2.623164
     32          7           0        1.584825   -1.849620   -0.439707
     33          8           0        0.952126   -2.457716    0.420844
     34          8           0        1.750178   -2.228907   -1.597047
 ---------------------------------------------------------------------

 SCF Done:  E(RHF) =  -669.536282442     A.U. after   15 cycles
 E2 =    -0.2091728118D+01 EUMP2 =    -0.67162801055951D+03

 The electronic state is 1-A.
 Alpha  occ. eigenvalues --  -20.60958 -20.60940 -15.85970 -11.31280 -11.27840
 Alpha  occ. eigenvalues --  -11.27832 -11.27569 -11.26838 -11.26824 -11.21465
 Alpha  occ. eigenvalues --  -11.21138 -11.21095 -11.20852 -11.20687 -11.20205
 Alpha  occ. eigenvalues --   -1.60010  -1.39565  -1.19442  -1.08850  -1.08016
 Alpha  occ. eigenvalues --   -1.04833  -1.03059  -0.95695  -0.95548  -0.86571
 Alpha  occ. eigenvalues --   -0.86235  -0.82528  -0.79166  -0.77793  -0.77568
 Alpha  occ. eigenvalues --   -0.72192  -0.71324  -0.70548  -0.65097  -0.64836
 Alpha  occ. eigenvalues --   -0.64649  -0.62180  -0.60454  -0.58946  -0.57123
 Alpha  occ. eigenvalues --   -0.55339  -0.54857  -0.53166  -0.52925  -0.52232
 Alpha  occ. eigenvalues --   -0.51972  -0.49517  -0.48963  -0.48952  -0.47483
 Alpha  occ. eigenvalues --   -0.46242  -0.45508  -0.45302  -0.44619  -0.43326
 Alpha  occ. eigenvalues --   -0.37417  -0.36429
 Alpha virt. eigenvalues --    0.04920   0.11213   0.16392   0.21330   0.23154
 Alpha virt. eigenvalues --    0.24784   0.26910   0.27111   0.27610   0.28380
 Alpha virt. eigenvalues --    0.28461   0.30904   0.31804   0.31952   0.32580

 Mulliken charges:
               1
     1  C   -0.296773
     2  C   -0.299086
     3  C   -0.475190
     4  H    0.145535
     5  H    0.147237
     6  H    0.151872
     7  H    0.152842
     8  H    0.153579
     9  H    0.152496
    10  H    0.159453
    11  C   -0.298471
    12  C   -0.304759
    13  C   -0.475030
    14  H    0.146706
    15  H    0.150089
    16  H    0.145427
    17  H    0.168676
    18  H    0.155225
    19  H    0.149323
    20  H    0.165388
    21  C   -0.170313
    22  C   -0.218722
    23  C   -0.171240
    24  C    0.157845
    25  C   -0.169784
    26  C   -0.218233
    27  H    0.226117
    28  H    0.223760
    29  H    0.275644
    30  H    0.276459
    31  H    0.223923
    32  N    0.486829
    33  O   -0.457673
    34  O   -0.459152
 Sum of Mulliken charges =  -0.00000

 Dipole moment (field-independent basis, Debye):
    X=              2.3280    Y=              4.4199    Z=              1.3409  Tot=              5.1723
 Quadrupole moment (field-independent basis, Debye-Ang):
   XX=            -85.8193   YY=           -101.3995   ZZ=            -89.9649
   XY=              8.7965   XZ=              0.7159   YZ=             -1.3225

 Normal termination of Gaussian 16 at Thu May  6 04:11:59 2021.
