 Gaussian 16, Revision A.03,
 Gaussian 16:  EM64L-G16RevA.03 25-Dec-2016

 -------------
 #p 6-31g* mp2
 -------------

 ------------------------------------------------------
 Input file generated by CHIRIPA (05-May-2021 14:53:18)
 ------------------------------------------------------
 Symbolic Z-matrix:
 Charge =  0 Multiplicity = 1

                         Standard orientation:
 ---------------------------------------------------------------------
 Center     Atomic      Atomic             Coordinates (Angstroms)
 Number     Number       Type             X           Y           Z
 ---------------------------------------------------------------------
      1          6           0        4.757985    0.040980    0.170069
      2          6           0        5.613119   -0.442841   -1.001532
      3          6           0        7.044391    0.092454   -0.949430
      4          1           0        4.740246    1.139441    0.173767
      5          1           0        5.231607   -0.267154    1.112476
      6          1           0        5.137304   -0.135082   -1.941479
      7          1           0        5.628667   -1.540280   -1.002554
      8          1           0        7.541525   -0.226154   -0.027504
      9          1           0        7.047370    1.187028   -0.971764
     10          1           0        7.638066   -0.265772   -1.796237
     11          6           0        3.324513   -0.485738    0.131954
     12          6           0        2.469380   -0.001917    1.303555
     13          6           0        1.038108   -0.537212    1.251453
     14          1           0        2.850891   -0.177604   -0.810453
     15          1           0        3.342252   -1.584199    0.128256
     16          1           0        2.453831    1.095522    1.304577
     17          1           0        2.945194   -0.309676    2.243502
     18          1           0        1.035129   -1.631786    1.273787
     19          1           0        0.540973   -0.218604    0.329527
     20          1           0        0.444432   -0.178985    2.098261
     21          6           0       -2.203578    2.491990    0.168672
     22          6           0       -2.958806    2.181232   -0.966925
     23          6           0       -3.492070    0.900016   -1.136218
     24          6           0       -3.249421   -0.050387   -0.145690
     25          6           0       -2.501047    0.228593    0.996850
     26          6           0       -1.977508    1.516397    1.145214
     27          1           0       -1.793102    3.489828    0.292054
     28          1           0       -3.135986    2.936892   -1.726946
     29          1           0       -4.080343    0.632406   -2.005551
     30          1           0       -2.341393   -0.545741    1.737348
     31          1           0       -1.391365    1.754901    2.028161
     32          7           0       -3.808817   -1.410241   -0.313834
     33          8           0       -3.580718   -2.229771    0.573283
     34          8           0       -4.464778   -1.630816   -1.329560
 ---------------------------------------------------------------------

 SCF Done:  E(RHF) =  -669.534382416     A.U. after   15 cycles
 E2 =    -0.2092288072D+01 EUMP2 =    -0.67162667048859D+03

 The electronic state is 1-A.
 Alpha  occ. eigenvalues --  -20.60728 -20.60723 -15.85782 -11.31144 -11.27710
 Alpha  occ. eigenvalues --  -11.27689 -11.27459 -11.26737 -11.26705 -11.21998
 Alpha  occ. eigenvalues --  -11.21795 -11.21675 -11.21609 -11.21463 -11.21248
 Alpha  occ. eigenvalues --   -1.59804  -1.39357  -1.19325  -1.08727  -1.08704
 Alpha  occ. eigenvalues --   -1.04738  -1.03820  -0.96281  -0.95551  -0.87305
 Alpha  occ. eigenvalues --   -0.86122  -0.82389  -0.79896  -0.78514  -0.77427
 Alpha  occ. eigenvalues --   -0.72001  -0.71128  -0.70432  -0.65343  -0.64977
 Alpha  occ. eigenvalues --   -0.64735  -0.62119  -0.61218  -0.59651  -0.57886
 Alpha  occ. eigenvalues --   -0.55583  -0.55231  -0.53320  -0.52890  -0.52748
 Alpha  occ. eigenvalues --   -0.52608  -0.50168  -0.48760  -0.48754  -0.48204
 Alpha  occ. eigenvalues --   -0.46910  -0.46057  -0.45975  -0.44763  -0.44098
 Alpha  occ. eigenvalues --   -0.37318  -0.36232
 Alpha virt. eigenvalues --    0.05102   0.11273   0.16551   0.20631   0.22681
 Alpha virt. eigenvalues --    0.23989   0.26042   0.26389   0.27221   0.28157
 Alpha virt. eigenvalues --    0.28541   0.30299   0.31136   0.31628   0.32388

 Mulliken charges:
               1
     1  C   -0.298319
     2  C   -0.299921
     3  C   -0.475809
     4  H    0.148159
     5  H    0.150054
     6  H    0.152036
     7  H    0.153383
     8  H    0.155540
     9  H    0.154501
    10  H    0.161131
    11  C   -0.298937
    12  C   -0.300050
    13  C   -0.476434
    14  H    0.150067
    15  H    0.152526
    16  H    0.147397
    17  H    0.152790
    18  H    0.161405
    19  H    0.161504
    20  H    0.146930
    21  C   -0.172650
    22  C   -0.218843
    23  C   -0.171719
    24  C    0.157129
    25  C   -0.167345
    26  C   -0.215128
    27  H    0.225207
    28  H    0.223105
    29  H    0.275341
    30  H    0.276248
    31  H    0.223475
    32  N    0.488237
    33  O   -0.460283
    34  O   -0.460727
 Sum of Mulliken charges =  -0.00000

 Dipole moment (field-independent basis, Debye):
    X=              2.0376    Y=              4.7280    Z=              0.5507  Tot=              5.1777
 Quadrupole moment (field-independent basis, Debye-Ang):
   XX=           -108.4723   YY=            -94.8808   ZZ=            -91.2123
   XY=            -17.1177   XZ=             -0.0484   YZ=             -2.5791

 Normal termination of Gaussian 16 at Thu May  6 01:14:54 2021.
