 Gaussian 16, Revision A.03,
 Gaussian 16:  EM64L-G16RevA.03 25-Dec-2016

 -------------
 #p 6-31g* mp2
 -------------

 ------------------------------------------------------
 Input file generated by CHIRIPA (05-May-2021 14:57:23)
 ------------------------------------------------------
 Symbolic Z-matrix:
 Charge =  0 Multiplicity = 1

                         Standard orientation:
 ---------------------------------------------------------------------
 Center     Atomic      Atomic             Coordinates (Angstroms)
 Number     Number       Type             X           Y           Z
 ---------------------------------------------------------------------
      1          6           0       -5.131400   -2.107702   -0.004798
      2          6           0       -4.047119   -1.937510   -0.871914
      3          6           0       -3.301152   -0.755266   -0.852409
      4          6           0       -3.668951    0.240576    0.051092
      5          6           0       -4.743926    0.100893    0.927566
      6          6           0       -5.475736   -1.089751    0.890596
      7          1           0       -5.705386   -3.029361   -0.026734
      8          1           0       -3.777416   -2.726365   -1.568343
      9          1           0       -2.457043   -0.597141   -1.512631
     10          1           0       -4.988680    0.905163    1.610694
     11          1           0       -6.317311   -1.219161    1.565170
     12          7           0       -2.886723    1.496612    0.080986
     13          8           0       -3.231100    2.358837    0.886348
     14          8           0       -1.944047    1.595084   -0.701512
     15          6           0        1.945518    1.535681   -0.733313
     16          6           0        3.159912    2.048501   -0.265570
     17          6           0        4.193215    1.188401    0.117915
     18          6           0        3.976950   -0.185275    0.020266
     19          6           0        2.778374   -0.726771   -0.441780
     20          6           0        1.758954    0.152121   -0.819773
     21          1           0        1.148216    2.211127   -1.029079
     22          1           0        3.307610    3.122549   -0.197360
     23          1           0        5.143377    1.558443    0.483536
     24          1           0        2.660754   -1.802113   -0.498562
     25          1           0        0.816889   -0.248968   -1.182660
     26          7           0        5.063513   -1.105772    0.423338
     27          8           0        4.847983   -2.312032    0.327841
     28          8           0        6.110118   -0.603568    0.827127
 ---------------------------------------------------------------------

 SCF Done:  E(RHF) =  -868.340160452     A.U. after   16 cycles
 E2 =    -0.2598681249D+01 EUMP2 =    -0.87093884170154D+03

 The electronic state is 1-A.
 Alpha  occ. eigenvalues --  -20.61885 -20.61822 -20.60264 -20.60256 -15.86884
 Alpha  occ. eigenvalues --  -15.85313 -11.31993 -11.30480 -11.28580 -11.28486
 Alpha  occ. eigenvalues --  -11.28184 -11.27487 -11.27443 -11.27073 -11.27048
 Alpha  occ. eigenvalues --  -11.26519 -11.25942 -11.25925  -1.60904  -1.59344
 Alpha  occ. eigenvalues --   -1.40472  -1.38904  -1.20130  -1.18622  -1.09564
 Alpha  occ. eigenvalues --   -1.08000  -1.05498  -1.04017  -0.96450  -0.94875
 Alpha  occ. eigenvalues --   -0.86907  -0.85389  -0.83299  -0.81740  -0.78383
 Alpha  occ. eigenvalues --   -0.76858  -0.73131  -0.72200  -0.71532  -0.71234
 Alpha  occ. eigenvalues --   -0.70667  -0.69587  -0.65788  -0.65494  -0.64251
 Alpha  occ. eigenvalues --   -0.63994  -0.62859  -0.61386  -0.55988  -0.54328
 Alpha  occ. eigenvalues --   -0.53830  -0.53586  -0.52337  -0.52095  -0.49886
 Alpha  occ. eigenvalues --   -0.49828  -0.48301  -0.48269  -0.45927  -0.44356
 Alpha  occ. eigenvalues --   -0.38076  -0.37087  -0.36507  -0.35649
 Alpha virt. eigenvalues --    0.04126   0.05700   0.10559   0.12032   0.15680
 Alpha virt. eigenvalues --    0.17268   0.20034   0.22178   0.25425   0.27067
 Alpha virt. eigenvalues --    0.28591   0.29249   0.30444   0.31081   0.32630

 Mulliken charges:
               1
     1  C   -0.169567
     2  C   -0.218022
     3  C   -0.171871
     4  C    0.158946
     5  C   -0.169832
     6  C   -0.218097
     7  H    0.228861
     8  H    0.225510
     9  H    0.270146
    10  H    0.277281
    11  H    0.226476
    12  N    0.491825
    13  O   -0.454304
    14  O   -0.474533
    15  C   -0.171973
    16  C   -0.220234
    17  C   -0.171511
    18  C    0.157154
    19  C   -0.172706
    20  C   -0.219897
    21  H    0.245970
    22  H    0.223192
    23  H    0.273171
    24  H    0.270398
    25  H    0.221285
    26  N    0.488386
    27  O   -0.463917
    28  O   -0.462136
 Sum of Mulliken charges =  -0.00000

 Dipole moment (field-independent basis, Debye):
    X=             -7.1453    Y=             -1.0549    Z=             -1.4603  Tot=              7.3689
 Quadrupole moment (field-independent basis, Debye-Ang):
   XX=           -112.2803   YY=           -104.8794   ZZ=           -103.1668
   XY=             31.6147   XZ=             -7.6972   YZ=              2.6135

 Normal termination of Gaussian 16 at Wed May  5 19:22:51 2021.
