 Gaussian 16, Revision A.03,
 Gaussian 16:  EM64L-G16RevA.03 25-Dec-2016

 -------------
 #p 6-31g* mp2
 -------------

 ------------------------------------------------------
 Input file generated by CHIRIPA (05-May-2021 14:57:24)
 ------------------------------------------------------
 Symbolic Z-matrix:
 Charge =  0 Multiplicity = 1

                         Standard orientation:
 ---------------------------------------------------------------------
 Center     Atomic      Atomic             Coordinates (Angstroms)
 Number     Number       Type             X           Y           Z
 ---------------------------------------------------------------------
      1          6           0        1.819187   -1.225742   -0.019437
      2          6           0        2.301690   -0.674102    1.171952
      3          6           0        3.585744   -0.124310    1.230946
      4          6           0        4.363821   -0.143008    0.074427
      5          6           0        3.911425   -0.685268   -1.127480
      6          6           0        2.624175   -1.229557   -1.163334
      7          1           0        0.820461   -1.650696   -0.056276
      8          1           0        1.678741   -0.669762    2.061873
      9          1           0        3.984282    0.309237    2.140134
     10          1           0        4.555755   -0.675078   -1.998200
     11          1           0        2.252077   -1.657287   -2.089959
     12          7           0        5.724884    0.436120    0.124632
     13          8           0        6.390663    0.407390   -0.908107
     14          8           0        6.100133    0.907804    1.195771
     15          6           0       -6.343057   -0.907069    0.378870
     16          6           0       -5.172717   -1.663522    0.258018
     17          6           0       -3.946221   -1.039449    0.011464
     18          6           0       -3.926471    0.349200   -0.109176
     19          6           0       -5.075275    1.130372    0.006183
     20          6           0       -6.290693    0.485009    0.252789
     21          1           0       -7.291525   -1.400133    0.570419
     22          1           0       -5.210385   -2.744784    0.355473
     23          1           0       -3.024977   -1.600804   -0.086552
     24          1           0       -5.006130    2.206584   -0.095817
     25          1           0       -7.198000    1.075024    0.346178
     26          7           0       -2.633898    1.021148   -0.370219
     27          8           0       -2.643173    2.245936   -0.472406
     28          8           0       -1.635979    0.310307   -0.467695
 ---------------------------------------------------------------------

 SCF Done:  E(RHF) =  -868.338767361     A.U. after   16 cycles
 E2 =    -0.2598609341D+01 EUMP2 =    -0.87093737670159D+03

 The electronic state is 1-A.
 Alpha  occ. eigenvalues --  -20.61647 -20.61582 -20.60025 -20.60020 -15.86667
 Alpha  occ. eigenvalues --  -15.85075 -11.31910 -11.30260 -11.28514 -11.28421
 Alpha  occ. eigenvalues --  -11.28149 -11.27457 -11.27406 -11.26847 -11.26841
 Alpha  occ. eigenvalues --  -11.26462 -11.25778 -11.25765  -1.60680  -1.59105
 Alpha  occ. eigenvalues --   -1.40244  -1.38664  -1.20063  -1.18418  -1.09472
 Alpha  occ. eigenvalues --   -1.07820  -1.05451  -1.03814  -0.96333  -0.94690
 Alpha  occ. eigenvalues --   -0.86853  -0.85210  -0.83178  -0.81545  -0.78247
 Alpha  occ. eigenvalues --   -0.76637  -0.72900  -0.71996  -0.71300  -0.71168
 Alpha  occ. eigenvalues --   -0.70425  -0.69474  -0.65718  -0.65446  -0.64071
 Alpha  occ. eigenvalues --   -0.63824  -0.62808  -0.61187  -0.55937  -0.54244
 Alpha  occ. eigenvalues --   -0.53780  -0.53540  -0.52119  -0.51915  -0.49652
 Alpha  occ. eigenvalues --   -0.49608  -0.48062  -0.48040  -0.45677  -0.44111
 Alpha  occ. eigenvalues --   -0.38023  -0.37048  -0.36314  -0.35420
 Alpha virt. eigenvalues --    0.04290   0.05923   0.10609   0.12254   0.15817
 Alpha virt. eigenvalues --    0.17469   0.20546   0.22273   0.26276   0.27188
 Alpha virt. eigenvalues --    0.28184   0.29056   0.30540   0.31290   0.33352

 Mulliken charges:
               1
     1  C   -0.159153
     2  C   -0.217340
     3  C   -0.171355
     4  C    0.157437
     5  C   -0.171303
     6  C   -0.218678
     7  H    0.229568
     8  H    0.220887
     9  H    0.272682
    10  H    0.272698
    11  H    0.220923
    12  N    0.488361
    13  O   -0.462879
    14  O   -0.462838
    15  C   -0.170242
    16  C   -0.218062
    17  C   -0.170568
    18  C    0.158737
    19  C   -0.170441
    20  C   -0.218180
    21  H    0.227917
    22  H    0.224299
    23  H    0.268673
    24  H    0.277503
    25  H    0.225996
    26  N    0.491188
    27  O   -0.454452
    28  O   -0.471378
 Sum of Mulliken charges =  -0.00000

 Dipole moment (field-independent basis, Debye):
    X=             -9.8558    Y=             -4.3344    Z=              0.7349  Tot=             10.7918
 Quadrupole moment (field-independent basis, Debye-Ang):
   XX=           -110.9189   YY=           -102.4477   ZZ=           -101.4674
   XY=             -3.1139   XZ=             -5.1734   YZ=              1.6751

 Normal termination of Gaussian 16 at Thu May  6 08:15:59 2021.
