 Gaussian 16, Revision A.03,
 Gaussian 16:  EM64L-G16RevA.03 25-Dec-2016

 -------------
 #p 6-31g* mp2
 -------------

 ------------------------------------------------------
 Input file generated by CHIRIPA (05-May-2021 14:53:18)
 ------------------------------------------------------
 Symbolic Z-matrix:
 Charge =  0 Multiplicity = 1

                         Standard orientation:
 ---------------------------------------------------------------------
 Center     Atomic      Atomic             Coordinates (Angstroms)
 Number     Number       Type             X           Y           Z
 ---------------------------------------------------------------------
      1          6           0        3.593996    1.238269   -0.168235
      2          6           0        2.092849    1.453843   -0.363357
      3          6           0        1.738716    2.911092   -0.661365
      4          1           0        3.946189    1.877924    0.652585
      5          1           0        4.125233    1.568292   -1.071710
      6          1           0        1.564487    1.122225    0.539682
      7          1           0        1.744152    0.813458   -1.183682
      8          1           0        2.239698    3.250455   -1.573752
      9          1           0        2.059013    3.560976    0.159404
     10          1           0        0.660708    3.042549   -0.797302
     11          6           0        3.963755   -0.213559    0.130430
     12          6           0        5.464902   -0.429133    0.325552
     13          6           0        5.819035   -1.886382    0.623560
     14          1           0        3.432518   -0.543583    1.033905
     15          1           0        3.611562   -0.853215   -0.690390
     16          1           0        5.813599    0.211252    1.145877
     17          1           0        5.993264   -0.097515   -0.577487
     18          1           0        5.498738   -2.536267   -0.197209
     19          1           0        5.318053   -2.225745    1.535947
     20          1           0        6.897043   -2.017839    0.759497
     21          6           0       -5.232467    0.436456    0.697697
     22          6           0       -5.042562   -0.121421   -0.570857
     23          6           0       -3.783512   -0.588271   -0.959951
     24          6           0       -2.731803   -0.481170   -0.051255
     25          6           0       -2.889306    0.069656    1.219600
     26          6           0       -4.157129    0.530050    1.587309
     27          1           0       -6.213935    0.796609    0.991648
     28          1           0       -5.875864   -0.195388   -1.263809
     29          1           0       -3.608518   -1.024575   -1.935877
     30          1           0       -2.039452    0.129890    1.888584
     31          1           0       -4.301680    0.962843    2.573128
     32          7           0       -1.394260   -0.971985   -0.451852
     33          8           0       -0.483893   -0.866231    0.367102
     34          8           0       -1.281587   -1.453147   -1.577207
 ---------------------------------------------------------------------

 SCF Done:  E(RHF) =  -669.535777818     A.U. after   15 cycles
 E2 =    -0.2091441577D+01 EUMP2 =    -0.67162721939506D+03

 The electronic state is 1-A.
 Alpha  occ. eigenvalues --  -20.60921 -20.60895 -15.85937 -11.31279 -11.27846
 Alpha  occ. eigenvalues --  -11.27840 -11.27583 -11.26855 -11.26846 -11.20695
 Alpha  occ. eigenvalues --  -11.20300 -11.20258 -11.20216 -11.20181 -11.20149
 Alpha  occ. eigenvalues --   -1.59968  -1.39525  -1.19449  -1.08850  -1.07323
 Alpha  occ. eigenvalues --   -1.04848  -1.02507  -0.95690  -0.95009  -0.86248
 Alpha  occ. eigenvalues --   -0.86025  -0.82527  -0.78540  -0.77580  -0.77077
 Alpha  occ. eigenvalues --   -0.72160  -0.71278  -0.70558  -0.65105  -0.64851
 Alpha  occ. eigenvalues --   -0.63963  -0.62196  -0.59912  -0.58370  -0.56599
 Alpha  occ. eigenvalues --   -0.55351  -0.54315  -0.53179  -0.52941  -0.51738
 Alpha  occ. eigenvalues --   -0.51420  -0.48976  -0.48938  -0.48908  -0.46880
 Alpha  occ. eigenvalues --   -0.45579  -0.45063  -0.44569  -0.44375  -0.42748
 Alpha  occ. eigenvalues --   -0.37426  -0.36450
 Alpha virt. eigenvalues --    0.04936   0.11204   0.16413   0.21309   0.23895
 Alpha virt. eigenvalues --    0.25186   0.27206   0.27682   0.28082   0.28749
 Alpha virt. eigenvalues --    0.28986   0.30873   0.32108   0.32462   0.32681

 Mulliken charges:
               1
     1  C   -0.298911
     2  C   -0.301231
     3  C   -0.475260
     4  H    0.143661
     5  H    0.145106
     6  H    0.162891
     7  H    0.161392
     8  H    0.152147
     9  H    0.149840
    10  H    0.154131
    11  C   -0.297191
    12  C   -0.299114
    13  C   -0.474861
    14  H    0.153133
    15  H    0.155725
    16  H    0.148284
    17  H    0.149340
    18  H    0.156257
    19  H    0.154789
    20  H    0.156411
    21  C   -0.170663
    22  C   -0.218521
    23  C   -0.170858
    24  C    0.158358
    25  C   -0.170706
    26  C   -0.218475
    27  H    0.225952
    28  H    0.223775
    29  H    0.275791
    30  H    0.275264
    31  H    0.223768
    32  N    0.489264
    33  O   -0.459217
    34  O   -0.460272
 Sum of Mulliken charges =  -0.00000

 Dipole moment (field-independent basis, Debye):
    X=             -4.9759    Y=              1.5360    Z=              1.4117  Tot=              5.3955
 Quadrupole moment (field-independent basis, Debye-Ang):
   XX=            -70.1734   YY=            -98.5987   ZZ=            -90.1332
   XY=             -2.0102   XZ=             -2.1172   YZ=              1.2284

 Normal termination of Gaussian 16 at Thu May  6 02:50:27 2021.
