 Gaussian 16, Revision A.03,
 Gaussian 16:  EM64L-G16RevA.03 25-Dec-2016

 -------------
 #p 6-31g* mp2
 -------------

 ------------------------------------------------------
 Input file generated by CHIRIPA (05-May-2021 14:55:22)
 ------------------------------------------------------
 Symbolic Z-matrix:
 Charge =  0 Multiplicity = 1

                         Standard orientation:
 ---------------------------------------------------------------------
 Center     Atomic      Atomic             Coordinates (Angstroms)
 Number     Number       Type             X           Y           Z
 ---------------------------------------------------------------------
      1          6           0        1.246162    1.035474    1.882416
      2          6           0        1.846764   -0.190495    2.187045
      3          6           0        2.700371   -0.810356    1.269616
      4          6           0        2.932256   -0.173342    0.051530
      5          6           0        2.348820    1.048202   -0.281219
      6          6           0        1.498662    1.649826    0.651426
      7          1           0        0.584400    1.509913    2.601007
      8          1           0        1.652490   -0.669915    3.142273
      9          1           0        3.178535   -1.759389    1.479649
     10          1           0        2.561668    1.501826   -1.241604
     11          1           0        1.033611    2.601938    0.412143
     12          7           0        3.834106   -0.819908   -0.927765
     13          8           0        4.022199   -0.238195   -1.994005
     14          8           0        4.335807   -1.896156   -0.610553
     15          6           0       -3.244381    0.711032    0.028407
     16          6           0       -2.910880    1.781651   -1.011082
     17          6           0       -2.274005    3.027024   -0.393645
     18          1           0       -3.922955    1.137402    0.779868
     19          1           0       -2.325861    0.428459    0.561200
     20          1           0       -3.829514    2.061123   -1.542705
     21          1           0       -2.233174    1.352627   -1.760260
     22          1           0       -1.342806    2.768689    0.120880
     23          1           0       -2.948216    3.481211    0.339672
     24          1           0       -2.043777    3.779375   -1.154449
     25          6           0       -3.881687   -0.540075   -0.573508
     26          6           0       -4.215189   -1.610693    0.465981
     27          6           0       -4.852064   -2.856066   -0.151456
     28          1           0       -4.800207   -0.257501   -1.106302
     29          1           0       -3.203114   -0.966445   -1.324968
     30          1           0       -4.892895   -1.181669    1.215160
     31          1           0       -3.296554   -1.890165    0.997604
     32          1           0       -4.177851   -3.310254   -0.884773
     33          1           0       -5.783262   -2.597731   -0.665981
     34          1           0       -5.082291   -3.608417    0.609348
 ---------------------------------------------------------------------

 SCF Done:  E(RHF) =  -669.535599581     A.U. after   15 cycles
 E2 =    -0.2091566517D+01 EUMP2 =    -0.67162716609862D+03

 The electronic state is 1-A.
 Alpha  occ. eigenvalues --  -20.60808 -20.60803 -15.85862 -11.31246 -11.27813
 Alpha  occ. eigenvalues --  -11.27807 -11.27563 -11.26830 -11.26809 -11.22184
 Alpha  occ. eigenvalues --  -11.21951 -11.21915 -11.21899 -11.21743 -11.21325
 Alpha  occ. eigenvalues --   -1.59883  -1.39436  -1.19420  -1.08899  -1.08809
 Alpha  occ. eigenvalues --   -1.04823  -1.04024  -0.96490  -0.95641  -0.87514
 Alpha  occ. eigenvalues --   -0.86220  -0.82470  -0.80095  -0.78696  -0.77517
 Alpha  occ. eigenvalues --   -0.72080  -0.71207  -0.70518  -0.65547  -0.65069
 Alpha  occ. eigenvalues --   -0.64834  -0.62212  -0.61384  -0.59859  -0.58087
 Alpha  occ. eigenvalues --   -0.55812  -0.55301  -0.53194  -0.53161  -0.53030
 Alpha  occ. eigenvalues --   -0.52780  -0.50415  -0.48840  -0.48833  -0.48404
 Alpha  occ. eigenvalues --   -0.47110  -0.46244  -0.46146  -0.44837  -0.44265
 Alpha  occ. eigenvalues --   -0.37390  -0.36414
 Alpha virt. eigenvalues --    0.05007   0.11088   0.16470   0.20377   0.22638
 Alpha virt. eigenvalues --    0.23949   0.25736   0.26454   0.27031   0.28083
 Alpha virt. eigenvalues --    0.28703   0.30425   0.31117   0.31528   0.31635

 Mulliken charges:
               1
     1  C   -0.172147
     2  C   -0.218817
     3  C   -0.170915
     4  C    0.158574
     5  C   -0.172026
     6  C   -0.220063
     7  H    0.226850
     8  H    0.223836
     9  H    0.275838
    10  H    0.276077
    11  H    0.227739
    12  N    0.488027
    13  O   -0.460196
    14  O   -0.460263
    15  C   -0.299623
    16  C   -0.299020
    17  C   -0.479900
    18  H    0.148663
    19  H    0.148297
    20  H    0.154814
    21  H    0.154859
    22  H    0.146239
    23  H    0.156930
    24  H    0.162162
    25  C   -0.298859
    26  C   -0.299792
    27  C   -0.476093
    28  H    0.150623
    29  H    0.152454
    30  H    0.151191
    31  H    0.150945
    32  H    0.157081
    33  H    0.155872
    34  H    0.160645
 Sum of Mulliken charges =  -0.00000

 Dipole moment (field-independent basis, Debye):
    X=             -3.2398    Y=              2.2194    Z=              3.4014  Tot=              5.1953
 Quadrupole moment (field-independent basis, Debye-Ang):
   XX=           -113.1439   YY=            -93.7823   ZZ=            -92.7777
   XY=              5.8700   XZ=             10.4865   YZ=             -3.5404

 Normal termination of Gaussian 16 at Thu May  6 15:52:20 2021.
