 Gaussian 16, Revision A.03,
 Gaussian 16:  EM64L-G16RevA.03 25-Dec-2016

 -------------
 #p 6-31g* mp2
 -------------

 ------------------------------------------------------
 Input file generated by CHIRIPA (05-May-2021 14:55:23)
 ------------------------------------------------------
 Symbolic Z-matrix:
 Charge =  0 Multiplicity = 1

                         Standard orientation:
 ---------------------------------------------------------------------
 Center     Atomic      Atomic             Coordinates (Angstroms)
 Number     Number       Type             X           Y           Z
 ---------------------------------------------------------------------
      1          6           0       -1.387055   -2.692562   -0.621160
      2          6           0       -0.600631   -1.545011   -0.766712
      3          6           0       -1.116902   -0.285389   -0.448334
      4          6           0       -2.429483   -0.209635    0.015003
      5          6           0       -3.237992   -1.334515    0.170719
      6          6           0       -2.700909   -2.583843   -0.153733
      7          1           0       -0.977920   -3.667069   -0.870843
      8          1           0        0.420054   -1.626432   -1.129503
      9          1           0       -0.530116    0.619288   -0.551575
     10          1           0       -4.251996   -1.221614    0.534679
     11          1           0       -3.313966   -3.473340   -0.039705
     12          7           0       -2.987052    1.118422    0.355271
     13          8           0       -4.146364    1.158368    0.761519
     14          8           0       -2.254206    2.094260    0.209281
     15          6           0        2.644415    1.181518    0.301223
     16          6           0        2.170315    2.096481   -0.828403
     17          6           0        1.476682    3.358699   -0.315106
     18          1           0        1.783379    0.901247    0.923323
     19          1           0        3.331631    1.739828    0.951930
     20          1           0        1.485276    1.536197   -1.477573
     21          1           0        3.032550    2.374451   -1.447999
     22          1           0        2.155399    3.941797    0.315720
     23          1           0        0.599333    3.098781    0.285978
     24          1           0        1.145880    3.998380   -1.139264
     25          6           0        3.339812   -0.084521   -0.196066
     26          6           0        3.813913   -0.999484    0.933562
     27          6           0        4.507546   -2.261701    0.420265
     28          1           0        2.652597   -0.642831   -0.846772
     29          1           0        4.200849    0.195750   -0.818166
     30          1           0        2.951679   -1.277454    1.553158
     31          1           0        4.498952   -0.439200    1.582731
     32          1           0        5.384895   -2.001784   -0.180821
     33          1           0        3.828830   -2.844800   -0.210562
     34          1           0        4.838348   -2.901383    1.244423
 ---------------------------------------------------------------------

 SCF Done:  E(RHF) =  -669.535152507     A.U. after   15 cycles
 E2 =    -0.2093887808D+01 EUMP2 =    -0.67162904031546D+03

 The electronic state is 1-A.
 Alpha  occ. eigenvalues --  -20.60854 -20.60847 -15.85894 -11.31216 -11.27790
 Alpha  occ. eigenvalues --  -11.27750 -11.27525 -11.26800 -11.26773 -11.22179
 Alpha  occ. eigenvalues --  -11.22083 -11.21950 -11.21816 -11.21685 -11.20779
 Alpha  occ. eigenvalues --   -1.59920  -1.39475  -1.19391  -1.08957  -1.08793
 Alpha  occ. eigenvalues --   -1.04792  -1.03914  -0.96324  -0.95634  -0.87327
 Alpha  occ. eigenvalues --   -0.86191  -0.82473  -0.79983  -0.78757  -0.77533
 Alpha  occ. eigenvalues --   -0.72120  -0.71237  -0.70525  -0.65695  -0.65034
 Alpha  occ. eigenvalues --   -0.64840  -0.62170  -0.61196  -0.59719  -0.57931
 Alpha  occ. eigenvalues --   -0.55636  -0.55288  -0.53120  -0.52960  -0.52914
 Alpha  occ. eigenvalues --   -0.52686  -0.50257  -0.48869  -0.48860  -0.48257
 Alpha  occ. eigenvalues --   -0.47029  -0.46288  -0.46202  -0.44879  -0.44183
 Alpha  occ. eigenvalues --   -0.37372  -0.36383
 Alpha virt. eigenvalues --    0.04971   0.11223   0.16425   0.18489   0.22839
 Alpha virt. eigenvalues --    0.23352   0.24976   0.26643   0.27415   0.28298
 Alpha virt. eigenvalues --    0.29897   0.31106   0.31403   0.31701   0.32157

 Mulliken charges:
               1
     1  C   -0.171273
     2  C   -0.227156
     3  C   -0.182137
     4  C    0.157906
     5  C   -0.169908
     6  C   -0.218939
     7  H    0.226275
     8  H    0.230462
     9  H    0.291002
    10  H    0.275653
    11  H    0.223629
    12  N    0.489715
    13  O   -0.459541
    14  O   -0.463580
    15  C   -0.302809
    16  C   -0.305105
    17  C   -0.483814
    18  H    0.150385
    19  H    0.155121
    20  H    0.139913
    21  H    0.155409
    22  H    0.154375
    23  H    0.175835
    24  H    0.163781
    25  C   -0.299976
    26  C   -0.300973
    27  C   -0.474732
    28  H    0.138788
    29  H    0.153750
    30  H    0.153077
    31  H    0.156026
    32  H    0.157443
    33  H    0.148733
    34  H    0.162667
 Sum of Mulliken charges =  -0.00000

 Dipole moment (field-independent basis, Debye):
    X=              1.9938    Y=             -4.5209    Z=             -1.0688  Tot=              5.0553
 Quadrupole moment (field-independent basis, Debye-Ang):
   XX=            -99.6426   YY=            -92.4912   ZZ=            -95.3896
   XY=             14.3027   XZ=              2.1142   YZ=             -0.5615

 Normal termination of Gaussian 16 at Wed May  5 19:04:48 2021.
