 Gaussian 16, Revision A.03,
 Gaussian 16:  EM64L-G16RevA.03 25-Dec-2016

 -------------
 #p 6-31g* mp2
 -------------

 ------------------------------------------------------
 Input file generated by CHIRIPA (05-May-2021 14:57:25)
 ------------------------------------------------------
 Symbolic Z-matrix:
 Charge =  0 Multiplicity = 1

                         Standard orientation:
 ---------------------------------------------------------------------
 Center     Atomic      Atomic             Coordinates (Angstroms)
 Number     Number       Type             X           Y           Z
 ---------------------------------------------------------------------
      1          6           0        4.541031    2.159788    0.733820
      2          6           0        4.743099    0.957258    1.419102
      3          6           0        4.128291   -0.220286    0.983271
      4          6           0        3.314117   -0.158793   -0.146609
      5          6           0        3.093225    1.023865   -0.850752
      6          6           0        3.718189    2.189202   -0.396926
      7          1           0        5.022574    3.069791    1.079374
      8          1           0        5.381607    0.931437    2.297559
      9          1           0        4.267460   -1.164880    1.494928
     10          1           0        2.451229    1.018235   -1.723236
     11          1           0        3.559451    3.121673   -0.931102
     12          7           0        2.657871   -1.398944   -0.617529
     13          8           0        1.945226   -1.318284   -1.615662
     14          8           0        2.868576   -2.428152    0.020413
     15          6           0       -5.239576    1.704171    0.028490
     16          6           0       -4.066613    1.895968   -0.709001
     17          6           0       -3.053046    0.933158   -0.693977
     18          6           0       -3.246584   -0.214761    0.072912
     19          6           0       -4.403846   -0.434767    0.818319
     20          6           0       -5.404158    0.541465    0.788456
     21          1           0       -6.021792    2.457319    0.011055
     22          1           0       -3.936062    2.797968   -1.300099
     23          1           0       -2.134927    1.056128   -1.255539
     24          1           0       -4.505177   -1.344172    1.398088
     25          1           0       -6.314044    0.389839    1.362183
     26          7           0       -2.180582   -1.241150    0.096672
     27          8           0       -2.375411   -2.243816    0.780295
     28          8           0       -1.170404   -1.023533   -0.568777
 ---------------------------------------------------------------------

 SCF Done:  E(RHF) =  -868.335308395     A.U. after   16 cycles
 E2 =    -0.2600597665D+01 EUMP2 =    -0.87093590605976D+03

 The electronic state is 1-A.
 Alpha  occ. eigenvalues --  -20.60087 -20.60051 -20.59615 -20.59522 -15.85132
 Alpha  occ. eigenvalues --  -15.84633 -11.30809 -11.30433 -11.27426 -11.27408
 Alpha  occ. eigenvalues --  -11.27218 -11.27069 -11.27046 -11.26900 -11.26512
 Alpha  occ. eigenvalues --  -11.26488 -11.26200 -11.26167  -1.59151  -1.58612
 Alpha  occ. eigenvalues --   -1.38696  -1.38164  -1.19013  -1.18649  -1.08350
 Alpha  occ. eigenvalues --   -1.07964  -1.04463  -1.04126  -0.95130  -0.94726
 Alpha  occ. eigenvalues --   -0.85846  -0.85502  -0.81961  -0.81566  -0.76961
 Alpha  occ. eigenvalues --   -0.76532  -0.71375  -0.70834  -0.70504  -0.70125
 Alpha  occ. eigenvalues --   -0.69887  -0.69767  -0.64655  -0.64470  -0.64298
 Alpha  occ. eigenvalues --   -0.64144  -0.61809  -0.61473  -0.54954  -0.54624
 Alpha  occ. eigenvalues --   -0.52776  -0.52561  -0.52423  -0.52232  -0.48130
 Alpha  occ. eigenvalues --   -0.48089  -0.47617  -0.47579  -0.44045  -0.43436
 Alpha  occ. eigenvalues --   -0.37012  -0.36652  -0.36082  -0.35751
 Alpha virt. eigenvalues --    0.05579   0.06033   0.11569   0.11901   0.17017
 Alpha virt. eigenvalues --    0.17435   0.21645   0.21956   0.27510   0.27815
 Alpha virt. eigenvalues --    0.28522   0.28939   0.31113   0.31505   0.32712

 Mulliken charges:
               1
     1  C   -0.172419
     2  C   -0.218645
     3  C   -0.171211
     4  C    0.161780
     5  C   -0.170569
     6  C   -0.219094
     7  H    0.222106
     8  H    0.221043
     9  H    0.275768
    10  H    0.274147
    11  H    0.218942
    12  N    0.490481
    13  O   -0.450268
    14  O   -0.461534
    15  C   -0.171780
    16  C   -0.218506
    17  C   -0.171506
    18  C    0.158979
    19  C   -0.171321
    20  C   -0.218497
    21  H    0.223794
    22  H    0.220847
    23  H    0.274700
    24  H    0.275834
    25  H    0.222278
    26  N    0.487306
    27  O   -0.460611
    28  O   -0.452042
 Sum of Mulliken charges =  -0.00000

 Dipole moment (field-independent basis, Debye):
    X=             -1.4952    Y=              7.7166    Z=              1.4719  Tot=              7.9967
 Quadrupole moment (field-independent basis, Debye-Ang):
   XX=            -65.4265   YY=           -106.2228   ZZ=           -101.5214
   XY=              3.4212   XZ=              4.9851   YZ=             -4.7397

 Normal termination of Gaussian 16 at Thu May  6 19:43:03 2021.
