 Gaussian 16, Revision A.03,
 Gaussian 16:  EM64L-G16RevA.03 25-Dec-2016

 -------------
 #p 6-31g* mp2
 -------------

 ------------------------------------------------------
 Input file generated by CHIRIPA (05-May-2021 14:57:21)
 ------------------------------------------------------
 Symbolic Z-matrix:
 Charge =  0 Multiplicity = 1

                         Standard orientation:
 ---------------------------------------------------------------------
 Center     Atomic      Atomic             Coordinates (Angstroms)
 Number     Number       Type             X           Y           Z
 ---------------------------------------------------------------------
      1          6           0        1.265197    2.417661    0.640440
      2          6           0        2.628078    2.581866    0.371899
      3          6           0        3.423002    1.482099    0.035515
      4          6           0        2.819538    0.226848   -0.023377
      5          6           0        1.464463    0.030979    0.238723
      6          6           0        0.688756    1.144985    0.573113
      7          1           0        0.655145    3.277517    0.900977
      8          1           0        3.078445    3.569064    0.423429
      9          1           0        4.480566    1.580749   -0.177192
     10          1           0        1.043915   -0.965533    0.179378
     11          1           0       -0.369416    1.014476    0.781161
     12          7           0        3.650917   -0.944963   -0.378437
     13          8           0        3.095288   -2.040351   -0.423586
     14          8           0        4.842439   -0.745853   -0.604861
     15          6           0       -1.462720   -2.456742    0.819029
     16          6           0       -1.567501   -2.229498   -0.557162
     17          6           0       -2.241057   -1.104304   -1.041733
     18          6           0       -2.800443   -0.223070   -0.117718
     19          6           0       -2.712965   -0.421941    1.259267
     20          6           0       -2.034778   -1.553830    1.721260
     21          1           0       -0.937687   -3.333421    1.186686
     22          1           0       -1.124210   -2.929013   -1.260168
     23          1           0       -2.337101   -0.904082   -2.101971
     24          1           0       -3.165159    0.293261    1.935597
     25          1           0       -1.954969   -1.727764    2.790570
     26          7           0       -3.515957    0.971666   -0.618762
     27          8           0       -4.000081    1.732929    0.215948
     28          8           0       -3.579106    1.124214   -1.836702
 ---------------------------------------------------------------------

 SCF Done:  E(RHF) =  -868.337675721     A.U. after   16 cycles
 E2 =    -0.2603876251D+01 EUMP2 =    -0.87094155197207D+03

 The electronic state is 1-A.
 Alpha  occ. eigenvalues --  -20.61663 -20.61636 -20.60990 -20.60952 -15.86704
 Alpha  occ. eigenvalues --  -15.86016 -11.32154 -11.31149 -11.28711 -11.28647
 Alpha  occ. eigenvalues --  -11.28344 -11.27730 -11.27710 -11.27612 -11.27612
 Alpha  occ. eigenvalues --  -11.27356 -11.26672 -11.26520  -1.60734  -1.60047
 Alpha  occ. eigenvalues --   -1.40279  -1.39610  -1.20375  -1.19300  -1.09702
 Alpha  occ. eigenvalues --   -1.08735  -1.05724  -1.04669  -0.96511  -0.95608
 Alpha  occ. eigenvalues --   -0.87080  -0.86086  -0.83304  -0.82456  -0.78365
 Alpha  occ. eigenvalues --   -0.77554  -0.72902  -0.72246  -0.72090  -0.71366
 Alpha  occ. eigenvalues --   -0.71325  -0.70409  -0.65938  -0.65619  -0.64949
 Alpha  occ. eigenvalues --   -0.64710  -0.63007  -0.62147  -0.56102  -0.55290
 Alpha  occ. eigenvalues --   -0.53888  -0.53721  -0.53024  -0.52736  -0.49678
 Alpha  occ. eigenvalues --   -0.49660  -0.49012  -0.48966  -0.45655  -0.45066
 Alpha  occ. eigenvalues --   -0.38321  -0.37445  -0.37269  -0.36136
 Alpha virt. eigenvalues --    0.04070   0.04987   0.10103   0.11384   0.15599
 Alpha virt. eigenvalues --    0.16526   0.20731   0.21874   0.26631   0.27516
 Alpha virt. eigenvalues --    0.27703   0.28678   0.30487   0.31396   0.31875

 Mulliken charges:
               1
     1  C   -0.172508
     2  C   -0.218934
     3  C   -0.171050
     4  C    0.158439
     5  C   -0.180284
     6  C   -0.225965
     7  H    0.229831
     8  H    0.223804
     9  H    0.274707
    10  H    0.275411
    11  H    0.232226
    12  N    0.488368
    13  O   -0.467386
    14  O   -0.459177
    15  C   -0.179818
    16  C   -0.222905
    17  C   -0.169841
    18  C    0.156863
    19  C   -0.190787
    20  C   -0.212681
    21  H    0.237171
    22  H    0.236178
    23  H    0.280762
    24  H    0.277239
    25  H    0.229290
    26  N    0.487968
    27  O   -0.461303
    28  O   -0.455618
 Sum of Mulliken charges =  -0.00000

 Dipole moment (field-independent basis, Debye):
    X=             -0.6942    Y=             -0.2488    Z=              2.9427  Tot=              3.0337
 Quadrupole moment (field-independent basis, Debye-Ang):
   XX=           -133.1407   YY=            -99.0456   ZZ=           -101.3856
   XY=             25.3023   XZ=             -2.8976   YZ=              1.4500

 Normal termination of Gaussian 16 at Thu May  6 11:12:07 2021.
