 Gaussian 16, Revision A.03,
 Gaussian 16:  EM64L-G16RevA.03 25-Dec-2016

 -------------
 #p 6-31g* mp2
 -------------

 ------------------------------------------------------
 Input file generated by CHIRIPA (05-May-2021 14:55:24)
 ------------------------------------------------------
 Symbolic Z-matrix:
 Charge =  0 Multiplicity = 1

                         Standard orientation:
 ---------------------------------------------------------------------
 Center     Atomic      Atomic             Coordinates (Angstroms)
 Number     Number       Type             X           Y           Z
 ---------------------------------------------------------------------
      1          6           0       -5.819654   -0.410746   -1.197683
      2          6           0       -5.228509    0.851078   -1.319618
      3          6           0       -4.074028    1.167090   -0.597220
      4          6           0       -3.534899    0.192970    0.241660
      5          6           0       -4.100577   -1.073081    0.384536
      6          6           0       -5.254797   -1.367112   -0.347494
      7          1           0       -6.716381   -0.647694   -1.762601
      8          1           0       -5.664997    1.595772   -1.979129
      9          1           0       -3.595829    2.136131   -0.672744
     10          1           0       -3.642414   -1.794700    1.049946
     11          1           0       -5.711733   -2.347881   -0.250820
     12          7           0       -2.312839    0.515883    1.011529
     13          8           0       -1.857326   -0.359818    1.743849
     14          8           0       -1.833643    1.638569    0.868054
     15          6           0        4.134235   -0.522457   -0.359450
     16          6           0        2.924539   -0.106173    0.478004
     17          6           0        1.635180   -0.801987    0.040752
     18          1           0        3.935164   -0.298253   -1.416355
     19          1           0        4.262415   -1.611541   -0.289721
     20          1           0        2.799508    0.981971    0.407827
     21          1           0        3.126590   -0.331218    1.533061
     22          1           0        1.735369   -1.888735    0.127600
     23          1           0        1.406429   -0.568085   -1.004026
     24          1           0        0.783139   -0.489860    0.652687
     25          6           0        5.430715    0.164697    0.065624
     26          6           0        6.640411   -0.251588   -0.771830
     27          6           0        7.929770    0.444226   -0.334579
     28          1           0        5.302535    1.253780   -0.004106
     29          1           0        5.629786   -0.059507    1.122529
     30          1           0        6.438360   -0.026543   -1.826887
     31          1           0        6.765442   -1.339733   -0.701654
     32          1           0        8.158522    0.210323    0.710201
     33          1           0        7.829581    1.530974   -0.421426
     34          1           0        8.781810    0.132099   -0.946513
 ---------------------------------------------------------------------

 SCF Done:  E(RHF) =  -669.536540280     A.U. after   15 cycles
 E2 =    -0.2090973732D+01 EUMP2 =    -0.67162751401119D+03

 The electronic state is 1-A.
 Alpha  occ. eigenvalues --  -20.60978 -20.60964 -15.85987 -11.31293 -11.27852
 Alpha  occ. eigenvalues --  -11.27848 -11.27590 -11.26855 -11.26845 -11.21059
 Alpha  occ. eigenvalues --  -11.20694 -11.20610 -11.20546 -11.20459 -11.19680
 Alpha  occ. eigenvalues --   -1.60023  -1.39579  -1.19458  -1.08866  -1.07639
 Alpha  occ. eigenvalues --   -1.04851  -1.02671  -0.95711  -0.95117  -0.86252
 Alpha  occ. eigenvalues --   -0.86142  -0.82545  -0.78769  -0.77601  -0.77428
 Alpha  occ. eigenvalues --   -0.72203  -0.71336  -0.70568  -0.65113  -0.64855
 Alpha  occ. eigenvalues --   -0.64281  -0.62198  -0.60082  -0.58507  -0.56696
 Alpha  occ. eigenvalues --   -0.55358  -0.54434  -0.53186  -0.52943  -0.51778
 Alpha  occ. eigenvalues --   -0.51554  -0.49105  -0.48966  -0.48949  -0.47057
 Alpha  occ. eigenvalues --   -0.45829  -0.45006  -0.44959  -0.44890  -0.42881
 Alpha  occ. eigenvalues --   -0.37434  -0.36450
 Alpha virt. eigenvalues --    0.04888   0.11206   0.16387   0.21340   0.23605
 Alpha virt. eigenvalues --    0.25243   0.27259   0.27393   0.28195   0.28264
 Alpha virt. eigenvalues --    0.28927   0.30877   0.32189   0.32437   0.32525

 Mulliken charges:
               1
     1  C   -0.170467
     2  C   -0.218648
     3  C   -0.170734
     4  C    0.159452
     5  C   -0.170429
     6  C   -0.218624
     7  H    0.226005
     8  H    0.223798
     9  H    0.275831
    10  H    0.276074
    11  H    0.223873
    12  N    0.488273
    13  O   -0.459717
    14  O   -0.459223
    15  C   -0.297379
    16  C   -0.298233
    17  C   -0.486690
    18  H    0.146833
    19  H    0.146909
    20  H    0.153990
    21  H    0.152015
    22  H    0.148280
    23  H    0.146492
    24  H    0.186424
    25  C   -0.297675
    26  C   -0.298921
    27  C   -0.475274
    28  H    0.149284
    29  H    0.149264
    30  H    0.150579
    31  H    0.150729
    32  H    0.154834
    33  H    0.154776
    34  H    0.158298
 Sum of Mulliken charges =  -0.00000

 Dipole moment (field-independent basis, Debye):
    X=             -4.6391    Y=             -1.0711    Z=             -2.6144  Tot=              5.4318
 Quadrupole moment (field-independent basis, Debye-Ang):
   XX=            -66.8441   YY=            -90.7954   ZZ=            -95.6063
   XY=              2.9713   XZ=              8.9914   YZ=             -3.6125

 Normal termination of Gaussian 16 at Thu May  6 17:38:56 2021.
