 Gaussian 16, Revision A.03,
 Gaussian 16:  EM64L-G16RevA.03 25-Dec-2016

 -------------
 #p 6-31g* mp2
 -------------

 ------------------------------------------------------
 Input file generated by CHIRIPA (05-May-2021 14:51:07)
 ------------------------------------------------------
 Symbolic Z-matrix:
 Charge =  0 Multiplicity = 1

                         Standard orientation:
 ---------------------------------------------------------------------
 Center     Atomic      Atomic             Coordinates (Angstroms)
 Number     Number       Type             X           Y           Z
 ---------------------------------------------------------------------
      1          6           0       -2.635152    0.047974   -0.279853
      2          6           0       -3.900799    0.804989    0.123942
      3          6           0       -3.920894    2.242733   -0.395944
      4          1           0       -1.756229    0.588235    0.097715
      5          1           0       -2.552614    0.043841   -1.375556
      6          1           0       -3.981653    0.806500    1.218509
      7          1           0       -4.776819    0.262760   -0.254466
      8          1           0       -3.864900    2.257874   -1.489213
      9          1           0       -3.065216    2.804704   -0.007868
     10          1           0       -4.834409    2.765455   -0.095755
     11          6           0       -2.600364   -1.390788    0.232477
     12          6           0       -1.334717   -2.147802   -0.171318
     13          6           0       -1.314622   -3.585547    0.348568
     14          1           0       -2.682902   -1.386655    1.328180
     15          1           0       -3.479287   -1.931049   -0.145091
     16          1           0       -0.458697   -1.605574    0.207091
     17          1           0       -1.253863   -2.149314   -1.265885
     18          1           0       -2.170301   -4.147518   -0.039508
     19          1           0       -1.370616   -3.600688    1.441837
     20          1           0       -0.401108   -4.108269    0.048379
     21          6           0        2.557178   -0.072210    0.187381
     22          6           0        3.646795   -0.926607   -0.461252
     23          6           0        3.512157   -2.411945   -0.124442
     24          1           0        2.594179   -0.207389    1.277016
     25          1           0        1.572989   -0.435493   -0.139410
     26          1           0        4.628675   -0.560944   -0.134421
     27          1           0        3.607320   -0.789231   -1.549455
     28          1           0        2.546334   -2.798345   -0.465735
     29          1           0        3.573492   -2.568761    0.957338
     30          1           0        4.301140   -3.004190   -0.598373
     31          6           0        2.678339    1.415024   -0.140006
     32          6           0        1.588721    2.269421    0.508628
     33          6           0        1.723359    3.754759    0.171818
     34          1           0        3.662527    1.778307    0.186786
     35          1           0        2.641337    1.550203   -1.229640
     36          1           0        1.628197    2.132045    1.596830
     37          1           0        0.606842    1.903758    0.181797
     38          1           0        1.662024    3.911574   -0.909962
     39          1           0        2.689182    4.141158    0.513111
     40          1           0        0.934377    4.347004    0.645749
 ---------------------------------------------------------------------

 SCF Done:  E(RHF) =  -470.733293889     A.U. after   11 cycles
 E2 =    -0.1583953951D+01 EUMP2 =    -0.47231724784020D+03

 The electronic state is 1-A.
 Alpha  occ. eigenvalues --  -11.21632 -11.21622 -11.21604 -11.21602 -11.21431
 Alpha  occ. eigenvalues --  -11.21407 -11.21370 -11.21343 -11.21091 -11.21086
 Alpha  occ. eigenvalues --  -11.21080 -11.21075  -1.08473  -1.08425  -1.03563
 Alpha  occ. eigenvalues --   -1.03527  -0.95995  -0.95989  -0.87033  -0.86985
 Alpha  occ. eigenvalues --   -0.79672  -0.79558  -0.78416  -0.78127  -0.65215
 Alpha  occ. eigenvalues --   -0.64948  -0.61031  -0.60867  -0.59418  -0.59304
 Alpha  occ. eigenvalues --   -0.57614  -0.57596  -0.55304  -0.55257  -0.52696
 Alpha  occ. eigenvalues --   -0.52680  -0.52503  -0.52341  -0.50017  -0.49863
 Alpha  occ. eigenvalues --   -0.48052  -0.47835  -0.46812  -0.46590  -0.46261
 Alpha  occ. eigenvalues --   -0.45781  -0.45750  -0.45065  -0.43803  -0.43790
 Alpha virt. eigenvalues --    0.20490   0.22124   0.23434   0.24418   0.25285
 Alpha virt. eigenvalues --    0.26390   0.26896   0.27089   0.28641   0.29382
 Alpha virt. eigenvalues --    0.30618   0.31125   0.31614   0.31789   0.31801

 Mulliken charges:
               1
     1  C   -0.304887
     2  C   -0.299327
     3  C   -0.475931
     4  H    0.155196
     5  H    0.149157
     6  H    0.152127
     7  H    0.152150
     8  H    0.155103
     9  H    0.155287
    10  H    0.160408
    11  C   -0.297217
    12  C   -0.309221
    13  C   -0.475902
    14  H    0.149710
    15  H    0.149809
    16  H    0.161067
    17  H    0.150902
    18  H    0.155188
    19  H    0.155491
    20  H    0.160896
    21  C   -0.307739
    22  C   -0.298935
    23  C   -0.477429
    24  H    0.148805
    25  H    0.158965
    26  H    0.151958
    27  H    0.151945
    28  H    0.156614
    29  H    0.155154
    30  H    0.160325
    31  C   -0.297150
    32  C   -0.305893
    33  C   -0.475371
    34  H    0.149639
    35  H    0.149812
    36  H    0.151590
    37  H    0.156746
    38  H    0.155576
    39  H    0.155368
    40  H    0.160015
 Sum of Mulliken charges =  -0.00000

 Dipole moment (field-independent basis, Debye):
    X=             -0.0026    Y=             -0.0014    Z=              0.0018  Tot=              0.0034
 Quadrupole moment (field-independent basis, Debye-Ang):
   XX=            -84.2478   YY=            -87.0240   ZZ=            -83.4729
   XY=              0.4379   XZ=              0.7922   YZ=              0.8419

 Normal termination of Gaussian 16 at Wed May  5 18:05:01 2021.
