 Gaussian 16, Revision A.03,
 Gaussian 16:  EM64L-G16RevA.03 25-Dec-2016

 -------------
 #p 6-31g* mp2
 -------------

 ------------------------------------------------------
 Input file generated by CHIRIPA (05-May-2021 14:53:15)
 ------------------------------------------------------
 Symbolic Z-matrix:
 Charge =  0 Multiplicity = 1

                         Standard orientation:
 ---------------------------------------------------------------------
 Center     Atomic      Atomic             Coordinates (Angstroms)
 Number     Number       Type             X           Y           Z
 ---------------------------------------------------------------------
      1          6           0        4.718633    0.114600   -0.368320
      2          6           0        5.400181    0.961416    0.707031
      3          6           0        6.834131    1.342997    0.338281
      4          1           0        5.309638   -0.795753   -0.538365
      5          1           0        4.719060    0.669264   -1.316868
      6          1           0        5.397235    0.405887    1.653602
      7          1           0        4.807383    1.869767    0.874673
      8          1           0        6.852244    1.919014   -0.592567
      9          1           0        7.445448    0.446817    0.190788
     10          1           0        7.302427    1.948095    1.120850
     11          6           0        3.284527   -0.274805   -0.014155
     12          6           0        2.602978   -1.121620   -1.089507
     13          6           0        1.169028   -1.503201   -0.720756
     14          1           0        3.284099   -0.829468    0.934392
     15          1           0        2.693522    0.635548    0.155890
     16          1           0        3.195777   -2.029972   -1.257148
     17          1           0        2.605924   -0.566092   -2.036077
     18          1           0        0.557712   -0.607021   -0.573263
     19          1           0        1.150916   -2.079218    0.210092
     20          1           0        0.700732   -2.108300   -1.503325
     21          6           0       -2.149370   -2.154537    0.853714
     22          6           0       -2.409813   -1.168564    1.811078
     23          6           0       -2.950974    0.063583    1.432254
     24          6           0       -3.220674    0.276923    0.081314
     25          6           0       -2.972339   -0.685485   -0.896126
     26          6           0       -2.430968   -1.910282   -0.494456
     27          1           0       -1.728902   -3.108844    1.156867
     28          1           0       -2.192125   -1.355479    2.858799
     29          1           0       -3.162438    0.844487    2.152594
     30          1           0       -3.199927   -0.469903   -1.933019
     31          1           0       -2.229736   -2.674158   -1.240141
     32          7           0       -3.793687    1.577450   -0.331823
     33          8           0       -4.022356    1.740704   -1.528358
     34          8           0       -4.003297    2.408925    0.548718
 ---------------------------------------------------------------------

 SCF Done:  E(RHF) =  -669.535131691     A.U. after   15 cycles
 E2 =    -0.2092058637D+01 EUMP2 =    -0.67162719032735D+03

 The electronic state is 1-A.
 Alpha  occ. eigenvalues --  -20.60757 -20.60752 -15.85811 -11.31168 -11.27728
 Alpha  occ. eigenvalues --  -11.27716 -11.27456 -11.26741 -11.26726 -11.21910
 Alpha  occ. eigenvalues --  -11.21768 -11.21659 -11.21568 -11.21508 -11.21202
 Alpha  occ. eigenvalues --   -1.59834  -1.39387  -1.19337  -1.08740  -1.08669
 Alpha  occ. eigenvalues --   -1.04738  -1.03789  -0.96252  -0.95566  -0.87276
 Alpha  occ. eigenvalues --   -0.86129  -0.82400  -0.79858  -0.78482  -0.77451
 Alpha  occ. eigenvalues --   -0.72028  -0.71158  -0.70440  -0.65304  -0.64987
 Alpha  occ. eigenvalues --   -0.64744  -0.62090  -0.61185  -0.59632  -0.57863
 Alpha  occ. eigenvalues --   -0.55552  -0.55224  -0.53415  -0.52922  -0.52750
 Alpha  occ. eigenvalues --   -0.52455  -0.50176  -0.48787  -0.48784  -0.48161
 Alpha  occ. eigenvalues --   -0.46878  -0.46024  -0.45943  -0.44795  -0.44059
 Alpha  occ. eigenvalues --   -0.37261  -0.36305
 Alpha virt. eigenvalues --    0.05073   0.11281   0.16546   0.20977   0.22687
 Alpha virt. eigenvalues --    0.24079   0.26353   0.26578   0.27106   0.27738
 Alpha virt. eigenvalues --    0.28670   0.29863   0.31241   0.31760   0.32077

 Mulliken charges:
               1
     1  C   -0.298441
     2  C   -0.299887
     3  C   -0.475858
     4  H    0.149204
     5  H    0.150887
     6  H    0.151015
     7  H    0.153196
     8  H    0.156060
     9  H    0.154872
    10  H    0.160825
    11  C   -0.298481
    12  C   -0.301321
    13  C   -0.472385
    14  H    0.147407
    15  H    0.151765
    16  H    0.150646
    17  H    0.153882
    18  H    0.162462
    19  H    0.148205
    20  H    0.152253
    21  C   -0.167503
    22  C   -0.219002
    23  C   -0.171503
    24  C    0.157910
    25  C   -0.172705
    26  C   -0.213199
    27  H    0.225496
    28  H    0.223229
    29  H    0.275401
    30  H    0.275373
    31  H    0.223264
    32  N    0.488058
    33  O   -0.460557
    34  O   -0.460566
 Sum of Mulliken charges =  -0.00000

 Dipole moment (field-independent basis, Debye):
    X=              2.0322    Y=             -4.5539    Z=              1.4613  Tot=              5.1964
 Quadrupole moment (field-independent basis, Debye-Ang):
   XX=           -109.6162   YY=            -96.9536   ZZ=            -89.9026
   XY=             15.0546   XZ=             -4.2329   YZ=              1.2822

 Normal termination of Gaussian 16 at Thu May  6 20:24:04 2021.
