 Gaussian 16, Revision A.03,
 Gaussian 16:  EM64L-G16RevA.03 25-Dec-2016

 -------------
 #p 6-31g* mp2
 -------------

 ------------------------------------------------------
 Input file generated by CHIRIPA (05-May-2021 14:57:22)
 ------------------------------------------------------
 Symbolic Z-matrix:
 Charge =  0 Multiplicity = 1

                         Standard orientation:
 ---------------------------------------------------------------------
 Center     Atomic      Atomic             Coordinates (Angstroms)
 Number     Number       Type             X           Y           Z
 ---------------------------------------------------------------------
      1          6           0       -1.560588    1.322838   -1.390571
      2          6           0       -2.495111    2.146391   -0.754216
      3          6           0       -3.573413    1.591309   -0.058733
      4          6           0       -3.687046    0.202477   -0.019711
      5          6           0       -2.772417   -0.644598   -0.643577
      6          6           0       -1.701975   -0.067577   -1.333322
      7          1           0       -0.725990    1.762561   -1.928610
      8          1           0       -2.387827    3.226532   -0.797010
      9          1           0       -4.311413    2.205451    0.442868
     10          1           0       -2.905904   -1.717898   -0.583359
     11          1           0       -0.977734   -0.709615   -1.826585
     12          7           0       -4.824436   -0.396777    0.713528
     13          8           0       -4.902139   -1.623242    0.733082
     14          8           0       -5.616682    0.371340    1.254803
     15          6           0        5.479049    1.102311    0.831726
     16          6           0        5.324100    0.720769   -0.505039
     17          6           0        4.231219   -0.056839   -0.899350
     18          6           0        3.308224   -0.436931    0.073738
     19          6           0        3.434945   -0.072713    1.413357
     20          6           0        4.535640    0.705051    1.784977
     21          1           0        6.331060    1.706436    1.129223
     22          1           0        6.055196    1.027833   -1.247504
     23          1           0        4.086858   -0.366263   -1.927375
     24          1           0        2.689637   -0.394117    2.130735
     25          1           0        4.653417    0.999888    2.823844
     26          7           0        2.147103   -1.260233   -0.331691
     27          8           0        1.347888   -1.582171    0.544807
     28          8           0        2.058218   -1.568011   -1.518286
 ---------------------------------------------------------------------

 SCF Done:  E(RHF) =  -868.339910315     A.U. after   16 cycles
 E2 =    -0.2599062287D+01 EUMP2 =    -0.87093897260218D+03

 The electronic state is 1-A.
 Alpha  occ. eigenvalues --  -20.61754 -20.61703 -20.60017 -20.59999 -15.86734
 Alpha  occ. eigenvalues --  -15.85053 -11.31888 -11.30274 -11.28444 -11.28399
 Alpha  occ. eigenvalues --  -11.28121 -11.27395 -11.27364 -11.26872 -11.26689
 Alpha  occ. eigenvalues --  -11.26540 -11.25925 -11.25590  -1.60792  -1.59088
 Alpha  occ. eigenvalues --   -1.40345  -1.38644  -1.20038  -1.18416  -1.09474
 Alpha  occ. eigenvalues --   -1.07855  -1.05402  -1.03767  -0.96342  -0.94717
 Alpha  occ. eigenvalues --   -0.86809  -0.85186  -0.83175  -0.81531  -0.78252
 Alpha  occ. eigenvalues --   -0.76589  -0.72953  -0.72102  -0.71278  -0.71133
 Alpha  occ. eigenvalues --   -0.70406  -0.69563  -0.65687  -0.65397  -0.64064
 Alpha  occ. eigenvalues --   -0.63745  -0.62746  -0.61099  -0.55906  -0.54335
 Alpha  occ. eigenvalues --   -0.53751  -0.53484  -0.52142  -0.51846  -0.49732
 Alpha  occ. eigenvalues --   -0.49696  -0.48040  -0.48019  -0.45789  -0.44081
 Alpha  occ. eigenvalues --   -0.38008  -0.36998  -0.36432  -0.35342
 Alpha virt. eigenvalues --    0.04230   0.05902   0.10660   0.12277   0.15772
 Alpha virt. eigenvalues --    0.17435   0.20850   0.22438   0.26781   0.27710
 Alpha virt. eigenvalues --    0.28524   0.29150   0.30454   0.31925   0.32068

 Mulliken charges:
               1
     1  C   -0.175304
     2  C   -0.218771
     3  C   -0.173726
     4  C    0.157648
     5  C   -0.169220
     6  C   -0.219613
     7  H    0.221131
     8  H    0.218008
     9  H    0.271622
    10  H    0.278138
    11  H    0.243019
    12  N    0.488029
    13  O   -0.460070
    14  O   -0.464355
    15  C   -0.170050
    16  C   -0.218761
    17  C   -0.172150
    18  C    0.157300
    19  C   -0.170410
    20  C   -0.218765
    21  H    0.227916
    22  H    0.224993
    23  H    0.274874
    24  H    0.278238
    25  H    0.226208
    26  N    0.487713
    27  O   -0.455647
    28  O   -0.467997
 Sum of Mulliken charges =  -0.00000

 Dipole moment (field-independent basis, Debye):
    X=              8.5032    Y=              4.8215    Z=             -1.0771  Tot=              9.8342
 Quadrupole moment (field-independent basis, Debye-Ang):
   XX=           -107.6769   YY=           -103.4937   ZZ=           -100.4598
   XY=              0.0952   XZ=             12.8405   YZ=              0.3865

 Normal termination of Gaussian 16 at Fri May  7 06:21:04 2021.
