 Gaussian 16, Revision A.03,
 Gaussian 16:  EM64L-G16RevA.03 25-Dec-2016

 -------------
 #p 6-31g* mp2
 -------------

 ------------------------------------------------------
 Input file generated by CHIRIPA (05-May-2021 14:55:25)
 ------------------------------------------------------
 Symbolic Z-matrix:
 Charge =  0 Multiplicity = 1

                         Standard orientation:
 ---------------------------------------------------------------------
 Center     Atomic      Atomic             Coordinates (Angstroms)
 Number     Number       Type             X           Y           Z
 ---------------------------------------------------------------------
      1          6           0        1.441846   -1.711616    1.949232
      2          6           0        2.007759   -0.460542    2.215836
      3          6           0        2.320513    0.414414    1.171238
      4          6           0        2.052799    0.004122   -0.133859
      5          6           0        1.489655   -1.235826   -0.431665
      6          6           0        1.185053   -2.094589    0.628661
      7          1           0        1.202057   -2.385013    2.766810
      8          1           0        2.208286   -0.160462    3.240427
      9          1           0        2.759232    1.388714    1.349238
     10          1           0        1.301323   -1.506964   -1.463379
     11          1           0        0.745621   -3.065586    0.418636
     12          7           0        2.379583    0.921828   -1.248054
     13          8           0        2.133964    0.536725   -2.389107
     14          8           0        2.875147    2.008852   -0.959208
     15          6           0       -2.347529   -0.537241    0.047735
     16          6           0       -2.856122   -1.489842   -1.034794
     17          6           0       -2.425599   -2.937719   -0.797952
     18          1           0       -1.251169   -0.592935    0.090611
     19          1           0       -2.716162   -0.874976    1.026224
     20          1           0       -2.487782   -1.149620   -2.011109
     21          1           0       -3.951387   -1.431732   -1.075227
     22          1           0       -2.805738   -3.300456    0.162525
     23          1           0       -1.333818   -3.016742   -0.778674
     24          1           0       -2.799971   -3.601494   -1.583514
     25          6           0       -2.769759    0.913886   -0.175155
     26          6           0       -2.261166    1.866487    0.907375
     27          6           0       -2.691692    3.314364    0.670533
     28          1           0       -2.401127    1.251620   -1.153645
     29          1           0       -3.866119    0.969580   -0.218030
     30          1           0       -1.165903    1.808376    0.947808
     31          1           0       -2.629508    1.526265    1.883689
     32          1           0       -3.783472    3.393387    0.651254
     33          1           0       -2.311551    3.677101   -0.289945
     34          1           0       -2.317318    3.978139    1.456094
 ---------------------------------------------------------------------

 SCF Done:  E(RHF) =  -669.534103651     A.U. after   15 cycles
 E2 =    -0.2094941857D+01 EUMP2 =    -0.67162904550813D+03

 The electronic state is 1-A.
 Alpha  occ. eigenvalues --  -20.60874 -20.60869 -15.85929 -11.31325 -11.27883
 Alpha  occ. eigenvalues --  -11.27852 -11.27583 -11.26893 -11.26844 -11.21851
 Alpha  occ. eigenvalues --  -11.21668 -11.21575 -11.21383 -11.21318 -11.20954
 Alpha  occ. eigenvalues --   -1.59951  -1.39502  -1.19496  -1.08871  -1.08511
 Alpha  occ. eigenvalues --   -1.04906  -1.03679  -0.96138  -0.95704  -0.87167
 Alpha  occ. eigenvalues --   -0.86278  -0.82544  -0.79751  -0.78312  -0.77582
 Alpha  occ. eigenvalues --   -0.72143  -0.71279  -0.70573  -0.65226  -0.65091
 Alpha  occ. eigenvalues --   -0.64890  -0.62290  -0.61059  -0.59511  -0.57743
 Alpha  occ. eigenvalues --   -0.55511  -0.55323  -0.53331  -0.53039  -0.52824
 Alpha  occ. eigenvalues --   -0.52489  -0.50086  -0.48905  -0.48898  -0.48063
 Alpha  occ. eigenvalues --   -0.46780  -0.45823  -0.45705  -0.44899  -0.43887
 Alpha  occ. eigenvalues --   -0.37453  -0.36365
 Alpha virt. eigenvalues --    0.04923   0.11090   0.16316   0.20427   0.22890
 Alpha virt. eigenvalues --    0.24072   0.25851   0.26694   0.27440   0.28193
 Alpha virt. eigenvalues --    0.28755   0.30344   0.31403   0.31641   0.32583

 Mulliken charges:
               1
     1  C   -0.170234
     2  C   -0.217376
     3  C   -0.171918
     4  C    0.161758
     5  C   -0.177564
     6  C   -0.215956
     7  H    0.226626
     8  H    0.224310
     9  H    0.276278
    10  H    0.276196
    11  H    0.227234
    12  N    0.487898
    13  O   -0.460387
    14  O   -0.459907
    15  C   -0.307059
    16  C   -0.300322
    17  C   -0.476411
    18  H    0.160815
    19  H    0.144687
    20  H    0.155598
    21  H    0.153578
    22  H    0.154139
    23  H    0.143551
    24  H    0.163148
    25  C   -0.299073
    26  C   -0.299800
    27  C   -0.476023
    28  H    0.153983
    29  H    0.148810
    30  H    0.151476
    31  H    0.148597
    32  H    0.154322
    33  H    0.159683
    34  H    0.159345
 Sum of Mulliken charges =  -0.00000

 Dipole moment (field-independent basis, Debye):
    X=             -1.0668    Y=             -3.1817    Z=              3.9218  Tot=              5.1616
 Quadrupole moment (field-independent basis, Debye-Ang):
   XX=            -99.0387   YY=            -94.1492   ZZ=            -93.6301
   XY=             -5.0808   XZ=              9.3886   YZ=              2.7143

 Normal termination of Gaussian 16 at Wed May  5 17:40:19 2021.
