 Gaussian 16, Revision A.03,
 Gaussian 16:  EM64L-G16RevA.03 25-Dec-2016

 -------------
 #p 6-31g* mp2
 -------------

 ------------------------------------------------------
 Input file generated by CHIRIPA (05-May-2021 14:53:17)
 ------------------------------------------------------
 Symbolic Z-matrix:
 Charge =  0 Multiplicity = 1

                         Standard orientation:
 ---------------------------------------------------------------------
 Center     Atomic      Atomic             Coordinates (Angstroms)
 Number     Number       Type             X           Y           Z
 ---------------------------------------------------------------------
      1          6           0        3.743239    1.094503    0.115199
      2          6           0        2.650044    1.677609   -0.780846
      3          6           0        2.350131    3.144172   -0.469336
      4          1           0        3.438258    1.192681    1.166053
      5          1           0        4.659423    1.689844   -0.001298
      6          1           0        1.736604    1.080509   -0.663734
      7          1           0        2.957577    1.577858   -1.829697
      8          1           0        3.246591    3.757882   -0.604690
      9          1           0        2.018681    3.257707    0.567897
     10          1           0        1.565780    3.540847   -1.121488
     11          6           0        4.054303   -0.370887   -0.184133
     12          6           0        5.147498   -0.953994    0.711912
     13          6           0        5.447411   -2.420557    0.400402
     14          1           0        3.138119   -0.966228   -0.067635
     15          1           0        4.359283   -0.469065   -1.234987
     16          1           0        4.839964   -0.854243    1.760763
     17          1           0        6.060937   -0.356893    0.594801
     18          1           0        5.778861   -2.534092   -0.636831
     19          1           0        4.550951   -3.034267    0.535756
     20          1           0        6.231761   -2.817232    1.052554
     21          6           0       -5.529101    0.032443    0.343815
     22          6           0       -5.051618   -0.739288   -0.720591
     23          6           0       -3.677816   -0.920664   -0.905851
     24          6           0       -2.805849   -0.313125   -0.003708
     25          6           0       -3.250728    0.461515    1.066482
     26          6           0       -4.628720    0.629329    1.232388
     27          1           0       -6.597930    0.168073    0.480212
     28          1           0       -5.748544   -1.204025   -1.412227
     29          1           0       -3.280943   -1.513042   -1.721325
     30          1           0       -2.531531    0.912268    1.739530
     31          1           0       -4.996686    1.229196    2.059917
     32          7           0       -1.349249   -0.497961   -0.189590
     33          8           0       -0.601702    0.047851    0.619051
     34          8           0       -0.982694   -1.185147   -1.140405
 ---------------------------------------------------------------------

 SCF Done:  E(RHF) =  -669.536756119     A.U. after   15 cycles
 E2 =    -0.2091260514D+01 EUMP2 =    -0.67162801663229D+03

 The electronic state is 1-A.
 Alpha  occ. eigenvalues --  -20.61101 -20.61086 -15.86102 -11.31376 -11.27929
 Alpha  occ. eigenvalues --  -11.27925 -11.27658 -11.26923 -11.26914 -11.20528
 Alpha  occ. eigenvalues --  -11.20140 -11.20034 -11.19974 -11.19919 -11.19856
 Alpha  occ. eigenvalues --   -1.60141  -1.39698  -1.19536  -1.08951  -1.07088
 Alpha  occ. eigenvalues --   -1.04923  -1.02275  -0.95800  -0.94774  -0.86326
 Alpha  occ. eigenvalues --   -0.85798  -0.82635  -0.78337  -0.77695  -0.76871
 Alpha  occ. eigenvalues --   -0.72318  -0.71446  -0.70644  -0.65192  -0.64927
 Alpha  occ. eigenvalues --   -0.63702  -0.62270  -0.59661  -0.58153  -0.56378
 Alpha  occ. eigenvalues --   -0.55431  -0.54063  -0.53258  -0.53014  -0.51515
 Alpha  occ. eigenvalues --   -0.51202  -0.49170  -0.49077  -0.48680  -0.46661
 Alpha  occ. eigenvalues --   -0.45379  -0.45073  -0.44454  -0.44196  -0.42519
 Alpha  occ. eigenvalues --   -0.37511  -0.36521
 Alpha virt. eigenvalues --    0.04808   0.11135   0.16315   0.21273   0.24192
 Alpha virt. eigenvalues --    0.25493   0.27199   0.27935   0.28213   0.28902
 Alpha virt. eigenvalues --    0.29204   0.30852   0.32364   0.32593   0.32985

 Mulliken charges:
               1
     1  C   -0.295661
     2  C   -0.310932
     3  C   -0.473742
     4  H    0.149198
     5  H    0.142121
     6  H    0.181319
     7  H    0.145106
     8  H    0.148910
     9  H    0.153660
    10  H    0.154690
    11  C   -0.300865
    12  C   -0.298710
    13  C   -0.475084
    14  H    0.163235
    15  H    0.146010
    16  H    0.150495
    17  H    0.147881
    18  H    0.153480
    19  H    0.156665
    20  H    0.155953
    21  C   -0.170365
    22  C   -0.218621
    23  C   -0.170618
    24  C    0.158370
    25  C   -0.170537
    26  C   -0.218580
    27  H    0.226320
    28  H    0.224122
    29  H    0.276077
    30  H    0.275964
    31  H    0.224153
    32  N    0.488498
    33  O   -0.460071
    34  O   -0.458442
 Sum of Mulliken charges =  -0.00000

 Dipole moment (field-independent basis, Debye):
    X=             -5.5837    Y=              0.4815    Z=              0.6742  Tot=              5.6448
 Quadrupole moment (field-independent basis, Debye-Ang):
   XX=            -67.4295   YY=            -96.0321   ZZ=            -91.4839
   XY=              0.5052   XZ=             -1.4677   YZ=              2.4285

 Normal termination of Gaussian 16 at Thu May  6 02:48:15 2021.
