 Gaussian 16, Revision A.03,
 Gaussian 16:  EM64L-G16RevA.03 25-Dec-2016

 -------------
 #p 6-31g* mp2
 -------------

 ------------------------------------------------------
 Input file generated by CHIRIPA (05-May-2021 14:51:12)
 ------------------------------------------------------
 Symbolic Z-matrix:
 Charge =  0 Multiplicity = 1

                         Standard orientation:
 ---------------------------------------------------------------------
 Center     Atomic      Atomic             Coordinates (Angstroms)
 Number     Number       Type             X           Y           Z
 ---------------------------------------------------------------------
      1          6           0       -2.303470    1.063150    0.307666
      2          6           0       -1.817011    2.252660   -0.520833
      3          6           0       -0.538671    2.878663    0.037523
      4          1           0       -2.475465    1.390783    1.342083
      5          1           0       -1.509815    0.304284    0.348020
      6          1           0       -2.611861    3.008462   -0.560767
      7          1           0       -1.646338    1.922202   -1.553443
      8          1           0        0.271779    2.143009    0.061719
      9          1           0       -0.699230    3.235441    1.060035
     10          1           0       -0.208654    3.727142   -0.569957
     11          6           0       -3.580532    0.426648   -0.237957
     12          6           0       -4.066991   -0.762862    0.590541
     13          6           0       -5.345331   -1.388864    0.032186
     14          1           0       -4.374187    1.185515   -0.278311
     15          1           0       -3.408537    0.099016   -1.272375
     16          1           0       -4.237665   -0.432403    1.623151
     17          1           0       -3.272142   -1.518663    0.630476
     18          1           0       -5.184772   -1.745642   -0.990327
     19          1           0       -6.155781   -0.653210    0.007989
     20          1           0       -5.675348   -2.237343    0.639665
     21          6           0        2.507095   -1.362232   -0.149697
     22          6           0        1.007963   -1.068906   -0.082263
     23          6           0        0.151012   -2.313787   -0.314002
     24          1           0        2.745633   -1.795956   -1.130477
     25          1           0        2.758241   -2.126019    0.599270
     26          1           0        0.759959   -0.304896   -0.830194
     27          1           0        0.772998   -0.635653    0.898398
     28          1           0        0.369548   -3.077601    0.439279
     29          1           0        0.356436   -2.744965   -1.299135
     30          1           0       -0.917192   -2.081324   -0.261463
     31          6           0        3.376907   -0.127567    0.079989
     32          6           0        4.876040   -0.420892    0.012555
     33          6           0        5.732990    0.823988    0.244292
     34          1           0        3.125762    0.636220   -0.668978
     35          1           0        3.138369    0.306157    1.060768
     36          1           0        5.111005   -0.854146   -0.968107
     37          1           0        5.124043   -1.184903    0.760484
     38          1           0        5.527566    1.255167    1.229426
     39          1           0        5.514454    1.587802   -0.508987
     40          1           0        6.801194    0.591525    0.191755
 ---------------------------------------------------------------------

 SCF Done:  E(RHF) =  -470.732277930     A.U. after   11 cycles
 E2 =    -0.1585006340D+01 EUMP2 =    -0.47231728427052D+03

 The electronic state is 1-A.
 Alpha  occ. eigenvalues --  -11.21715 -11.21641 -11.21589 -11.21531 -11.21475
 Alpha  occ. eigenvalues --  -11.21412 -11.21338 -11.21221 -11.21183 -11.21089
 Alpha  occ. eigenvalues --  -11.21054 -11.20959  -1.08528  -1.08359  -1.03626
 Alpha  occ. eigenvalues --   -1.03471  -0.96069  -0.95912  -0.87072  -0.86940
 Alpha  occ. eigenvalues --   -0.79758  -0.79501  -0.78429  -0.78086  -0.65153
 Alpha  occ. eigenvalues --   -0.65056  -0.61037  -0.60862  -0.59434  -0.59284
 Alpha  occ. eigenvalues --   -0.57749  -0.57485  -0.55333  -0.55205  -0.52793
 Alpha  occ. eigenvalues --   -0.52606  -0.52487  -0.52329  -0.49991  -0.49866
 Alpha  occ. eigenvalues --   -0.48178  -0.47751  -0.46711  -0.46628  -0.46030
 Alpha  occ. eigenvalues --   -0.45778  -0.45701  -0.45275  -0.43851  -0.43721
 Alpha virt. eigenvalues --    0.20457   0.22559   0.23424   0.24533   0.25966
 Alpha virt. eigenvalues --    0.26224   0.26480   0.27233   0.28952   0.29197
 Alpha virt. eigenvalues --    0.30604   0.30875   0.31767   0.31937   0.32670

 Mulliken charges:
               1
     1  C   -0.311005
     2  C   -0.298515
     3  C   -0.481097
     4  H    0.148627
     5  H    0.165122
     6  H    0.151569
     7  H    0.150564
     8  H    0.160980
     9  H    0.154517
    10  H    0.159366
    11  C   -0.297414
    12  C   -0.304651
    13  C   -0.475363
    14  H    0.149468
    15  H    0.149001
    16  H    0.152171
    17  H    0.155134
    18  H    0.155165
    19  H    0.155263
    20  H    0.160208
    21  C   -0.297440
    22  C   -0.305718
    23  C   -0.483767
    24  H    0.149791
    25  H    0.149921
    26  H    0.154754
    27  H    0.154131
    28  H    0.156232
    29  H    0.155960
    30  H    0.166282
    31  C   -0.299697
    32  C   -0.299704
    33  C   -0.475772
    34  H    0.150233
    35  H    0.150332
    36  H    0.152020
    37  H    0.152098
    38  H    0.155450
    39  H    0.155436
    40  H    0.160347
 Sum of Mulliken charges =  -0.00000

 Dipole moment (field-independent basis, Debye):
    X=              0.0693    Y=             -0.0475    Z=              0.0124  Tot=              0.0849
 Quadrupole moment (field-independent basis, Debye-Ang):
   XX=            -85.9354   YY=            -85.4375   ZZ=            -83.5225
   XY=             -1.4220   XZ=             -0.6931   YZ=             -0.0973

 Normal termination of Gaussian 16 at Wed May  5 21:33:19 2021.
