 Gaussian 16, Revision A.03,
 Gaussian 16:  EM64L-G16RevA.03 25-Dec-2016

 -------------
 #p 6-31g* mp2
 -------------

 ------------------------------------------------------
 Input file generated by CHIRIPA (05-May-2021 14:57:22)
 ------------------------------------------------------
 Symbolic Z-matrix:
 Charge =  0 Multiplicity = 1

                         Standard orientation:
 ---------------------------------------------------------------------
 Center     Atomic      Atomic             Coordinates (Angstroms)
 Number     Number       Type             X           Y           Z
 ---------------------------------------------------------------------
      1          6           0        2.079879    2.592786    0.270226
      2          6           0        2.223931    1.809958    1.420422
      3          6           0        2.754319    0.518998    1.338808
      4          6           0        3.132047    0.040336    0.085216
      5          6           0        3.000993    0.795927   -1.078914
      6          6           0        2.468185    2.084169   -0.973578
      7          1           0        1.666921    3.594579    0.342840
      8          1           0        1.923214    2.202359    2.387704
      9          1           0        2.876842   -0.108536    2.213226
     10          1           0        3.309681    0.377390   -2.029154
     11          1           0        2.357466    2.689871   -1.868514
     12          7           0        3.694826   -1.324907   -0.013742
     13          8           0        4.020076   -1.723500   -1.129973
     14          8           0        3.800026   -1.970539    1.026801
     15          6           0       -0.594633   -0.812428   -0.401950
     16          6           0       -1.040908    0.504599   -0.552936
     17          6           0       -2.393160    0.819277   -0.388798
     18          6           0       -3.275636   -0.212455   -0.072481
     19          6           0       -2.861696   -1.534307    0.084519
     20          6           0       -1.504847   -1.825892   -0.084264
     21          1           0        0.457613   -1.047908   -0.531261
     22          1           0       -0.336280    1.293702   -0.799637
     23          1           0       -2.765734    1.830348   -0.499891
     24          1           0       -3.587876   -2.299491    0.330638
     25          1           0       -1.161104   -2.849607    0.033601
     26          7           0       -4.709637    0.108457    0.103744
     27          8           0       -5.467029   -0.818595    0.382253
     28          8           0       -5.049063    1.280964   -0.039979
 ---------------------------------------------------------------------

 SCF Done:  E(RHF) =  -868.336886957     A.U. after   16 cycles
 E2 =    -0.2603524527D+01 EUMP2 =    -0.87094041148457D+03

 The electronic state is 1-A.
 Alpha  occ. eigenvalues --  -20.61994 -20.61989 -20.60806 -20.60794 -15.87048
 Alpha  occ. eigenvalues --  -15.85852 -11.32512 -11.31158 -11.29109 -11.29028
 Alpha  occ. eigenvalues --  -11.28776 -11.28101 -11.28006 -11.27728 -11.27679
 Alpha  occ. eigenvalues --  -11.27340 -11.26646 -11.26609  -1.61084  -1.59880
 Alpha  occ. eigenvalues --   -1.40623  -1.39436  -1.20730  -1.19305  -1.10088
 Alpha  occ. eigenvalues --   -1.08699  -1.06084  -1.04699  -0.96884  -0.95555
 Alpha  occ. eigenvalues --   -0.87466  -0.86089  -0.83675  -0.82395  -0.78719
 Alpha  occ. eigenvalues --   -0.77465  -0.73238  -0.72490  -0.72071  -0.71737
 Alpha  occ. eigenvalues --   -0.71204  -0.70394  -0.66318  -0.66019  -0.64947
 Alpha  occ. eigenvalues --   -0.64736  -0.63380  -0.62089  -0.56536  -0.55313
 Alpha  occ. eigenvalues --   -0.54390  -0.54114  -0.53024  -0.52668  -0.50017
 Alpha  occ. eigenvalues --   -0.49999  -0.48835  -0.48823  -0.45987  -0.44855
 Alpha  occ. eigenvalues --   -0.38673  -0.37864  -0.37115  -0.36282
 Alpha virt. eigenvalues --    0.03725   0.05057   0.09824   0.11350   0.15206
 Alpha virt. eigenvalues --    0.16603   0.20266   0.21613   0.26226   0.27030
 Alpha virt. eigenvalues --    0.27691   0.27877   0.30013   0.31057   0.31670

 Mulliken charges:
               1
     1  C   -0.177109
     2  C   -0.213013
     3  C   -0.170352
     4  C    0.148549
     5  C   -0.175564
     6  C   -0.226431
     7  H    0.231715
     8  H    0.230674
     9  H    0.280303
    10  H    0.279968
    11  H    0.229302
    12  N    0.487656
    13  O   -0.457685
    14  O   -0.456624
    15  C   -0.173994
    16  C   -0.223357
    17  C   -0.174975
    18  C    0.158643
    19  C   -0.171753
    20  C   -0.220057
    21  H    0.228249
    22  H    0.224991
    23  H    0.271635
    24  H    0.275725
    25  H    0.227911
    26  N    0.488020
    27  O   -0.459870
    28  O   -0.462559
 Sum of Mulliken charges =  -0.00000

 Dipole moment (field-independent basis, Debye):
    X=              3.4532    Y=              3.7107    Z=             -0.1176  Tot=              5.0703
 Quadrupole moment (field-independent basis, Debye-Ang):
   XX=           -151.3018   YY=            -99.3659   ZZ=           -100.0817
   XY=             19.2895   XZ=              2.0038   YZ=             -0.9243

 Normal termination of Gaussian 16 at Thu May  6 00:12:06 2021.
