 Gaussian 16, Revision A.03,
 Gaussian 16:  EM64L-G16RevA.03 25-Dec-2016

 -------------
 #p 6-31g* mp2
 -------------

 ------------------------------------------------------
 Input file generated by CHIRIPA (05-May-2021 14:57:22)
 ------------------------------------------------------
 Symbolic Z-matrix:
 Charge =  0 Multiplicity = 1

                         Standard orientation:
 ---------------------------------------------------------------------
 Center     Atomic      Atomic             Coordinates (Angstroms)
 Number     Number       Type             X           Y           Z
 ---------------------------------------------------------------------
      1          6           0       -2.268151    2.511816   -1.081993
      2          6           0       -3.211309    2.490007   -0.049279
      3          6           0       -3.625565    1.276793    0.508439
      4          6           0       -3.073569    0.099010    0.007023
      5          6           0       -2.132107    0.087955   -1.020993
      6          6           0       -1.732505    1.312834   -1.563705
      7          1           0       -1.952038    3.458801   -1.509414
      8          1           0       -3.628993    3.419599    0.326811
      9          1           0       -4.354165    1.230981    1.308728
     10          1           0       -1.733592   -0.855075   -1.374970
     11          1           0       -0.999872    1.326739   -2.365641
     12          7           0       -3.504367   -1.191541    0.589511
     13          8           0       -3.002985   -2.215351    0.130094
     14          8           0       -4.335252   -1.154826    1.494453
     15          6           0        4.705876    1.320121    0.984409
     16          6           0        3.597396    0.968363    1.761621
     17          6           0        2.647317    0.065190    1.275639
     18          6           0        2.837899   -0.469467    0.002411
     19          6           0        3.931753   -0.138759   -0.795966
     20          6           0        4.869229    0.766414   -0.289658
     21          1           0        5.439025    2.022504    1.369826
     22          1           0        3.467960    1.396805    2.751433
     23          1           0        1.779857   -0.224563    1.856134
     24          1           0        4.033658   -0.582433   -1.778914
     25          1           0        5.729113    1.037767   -0.895471
     26          7           0        1.838763   -1.426674   -0.522836
     27          8           0        2.029564   -1.883710   -1.647714
     28          8           0        0.883759   -1.701773    0.200300
 ---------------------------------------------------------------------

 SCF Done:  E(RHF) =  -868.337838527     A.U. after   16 cycles
 E2 =    -0.2599862214D+01 EUMP2 =    -0.87093770074060D+03

 The electronic state is 1-A.
 Alpha  occ. eigenvalues --  -20.61119 -20.61073 -20.59891 -20.59805 -15.86127
 Alpha  occ. eigenvalues --  -15.84906 -11.31474 -11.30396 -11.28056 -11.28015
 Alpha  occ. eigenvalues --  -11.27782 -11.27100 -11.27057 -11.27030 -11.26891
 Alpha  occ. eigenvalues --  -11.26878 -11.26146 -11.26039  -1.60175  -1.58926
 Alpha  occ. eigenvalues --   -1.39722  -1.38469  -1.19648  -1.18626  -1.09048
 Alpha  occ. eigenvalues --   -1.08014  -1.05042  -1.04045  -0.95881  -0.94810
 Alpha  occ. eigenvalues --   -0.86440  -0.85438  -0.82705  -0.81637  -0.77760
 Alpha  occ. eigenvalues --   -0.76634  -0.72327  -0.71518  -0.71125  -0.70748
 Alpha  occ. eigenvalues --   -0.70250  -0.69740  -0.65295  -0.65039  -0.64280
 Alpha  occ. eigenvalues --   -0.64062  -0.62383  -0.61359  -0.55544  -0.54595
 Alpha  occ. eigenvalues --   -0.53383  -0.53128  -0.52392  -0.52136  -0.49112
 Alpha  occ. eigenvalues --   -0.49082  -0.47917  -0.47853  -0.45129  -0.43841
 Alpha  occ. eigenvalues --   -0.37636  -0.36666  -0.36644  -0.35651
 Alpha virt. eigenvalues --    0.04729   0.05900   0.11006   0.11995   0.16247
 Alpha virt. eigenvalues --    0.17315   0.21170   0.22066   0.27088   0.27916
 Alpha virt. eigenvalues --    0.28103   0.29034   0.30745   0.31582   0.32306

 Mulliken charges:
               1
     1  C   -0.171751
     2  C   -0.220526
     3  C   -0.172307
     4  C    0.155474
     5  C   -0.165819
     6  C   -0.224238
     7  H    0.221263
     8  H    0.219286
     9  H    0.273038
    10  H    0.291036
    11  H    0.222435
    12  N    0.487490
    13  O   -0.449939
    14  O   -0.467411
    15  C   -0.170895
    16  C   -0.218978
    17  C   -0.170601
    18  C    0.157012
    19  C   -0.172240
    20  C   -0.218913
    21  H    0.226193
    22  H    0.224658
    23  H    0.278450
    24  H    0.275214
    25  H    0.223730
    26  N    0.485603
    27  O   -0.462637
    28  O   -0.454627
 Sum of Mulliken charges =  -0.00000

 Dipole moment (field-independent basis, Debye):
    X=              5.2378    Y=              7.6287    Z=             -0.1841  Tot=              9.2556
 Quadrupole moment (field-independent basis, Debye-Ang):
   XX=            -92.6615   YY=           -107.3524   ZZ=           -100.0511
   XY=             -7.0689   XZ=              7.3248   YZ=              1.3030

 Normal termination of Gaussian 16 at Thu May  6 17:53:42 2021.
