 Gaussian 16, Revision A.03,
 Gaussian 16:  EM64L-G16RevA.03 25-Dec-2016

 -------------
 #p 6-31g* mp2
 -------------

 ------------------------------------------------------
 Input file generated by CHIRIPA (05-May-2021 14:55:23)
 ------------------------------------------------------
 Symbolic Z-matrix:
 Charge =  0 Multiplicity = 1

                         Standard orientation:
 ---------------------------------------------------------------------
 Center     Atomic      Atomic             Coordinates (Angstroms)
 Number     Number       Type             X           Y           Z
 ---------------------------------------------------------------------
      1          6           0       -3.394025   -2.411620   -0.475535
      2          6           0       -3.980807   -1.279520   -1.050478
      3          6           0       -3.541853    0.001603   -0.703215
      4          6           0       -2.509326    0.114380    0.226547
      5          6           0       -1.904600   -0.994305    0.816813
      6          6           0       -2.359618   -2.265656    0.454636
      7          1           0       -3.741254   -3.403031   -0.751091
      8          1           0       -4.784318   -1.389858   -1.773140
      9          1           0       -3.978384    0.895025   -1.132931
     10          1           0       -1.105493   -0.852496    1.534265
     11          1           0       -1.902057   -3.143079    0.902756
     12          7           0       -2.036122    1.465475    0.602074
     13          8           0       -1.124882    1.537969    1.423673
     14          8           0       -2.585425    2.426387    0.067703
     15          6           0        3.380199    0.896372   -0.143240
     16          6           0        2.165273    1.663869   -0.665630
     17          6           0        2.317178    3.178655   -0.523708
     18          1           0        3.541617    1.152786    0.912762
     19          1           0        4.276059    1.228421   -0.685987
     20          1           0        1.271756    1.329478   -0.123019
     21          1           0        2.006612    1.405451   -1.720459
     22          1           0        3.191650    3.531898   -1.079693
     23          1           0        2.452619    3.455493    0.526824
     24          1           0        1.437432    3.707665   -0.903251
     25          6           0        3.243329   -0.619134   -0.278280
     26          6           0        4.458255   -1.386629    0.244111
     27          6           0        4.306349   -2.901415    0.102188
     28          1           0        2.347469   -0.951181    0.264467
     29          1           0        3.081911   -0.875548   -1.334282
     30          1           0        4.616914   -1.128213    1.298939
     31          1           0        5.351771   -1.052239   -0.298502
     32          1           0        4.170909   -3.178255   -0.948344
     33          1           0        3.431877   -3.254660    0.658172
     34          1           0        5.186096   -3.430427    0.481731
 ---------------------------------------------------------------------

 SCF Done:  E(RHF) =  -669.536363940     A.U. after   15 cycles
 E2 =    -0.2091492234D+01 EUMP2 =    -0.67162785617361D+03

 The electronic state is 1-A.
 Alpha  occ. eigenvalues --  -20.60975 -20.60970 -15.85987 -11.31287 -11.27852
 Alpha  occ. eigenvalues --  -11.27844 -11.27580 -11.26853 -11.26843 -11.21435
 Alpha  occ. eigenvalues --  -11.21111 -11.21074 -11.20802 -11.20667 -11.20040
 Alpha  occ. eigenvalues --   -1.60023  -1.39582  -1.19453  -1.08861  -1.07973
 Alpha  occ. eigenvalues --   -1.04847  -1.03004  -0.95708  -0.95477  -0.86498
 Alpha  occ. eigenvalues --   -0.86249  -0.82545  -0.79125  -0.77759  -0.77588
 Alpha  occ. eigenvalues --   -0.72215  -0.71330  -0.70564  -0.65112  -0.64852
 Alpha  occ. eigenvalues --   -0.64600  -0.62198  -0.60388  -0.58894  -0.57065
 Alpha  occ. eigenvalues --   -0.55353  -0.54776  -0.53175  -0.52941  -0.52155
 Alpha  occ. eigenvalues --   -0.51908  -0.49440  -0.48983  -0.48967  -0.47439
 Alpha  occ. eigenvalues --   -0.46207  -0.45477  -0.45260  -0.44627  -0.43269
 Alpha  occ. eigenvalues --   -0.37427  -0.36445
 Alpha virt. eigenvalues --    0.04897   0.11184   0.16365   0.21136   0.23175
 Alpha virt. eigenvalues --    0.24874   0.26137   0.27410   0.27681   0.28375
 Alpha virt. eigenvalues --    0.28907   0.30911   0.31836   0.32048   0.32644

 Mulliken charges:
               1
     1  C   -0.170523
     2  C   -0.218493
     3  C   -0.170754
     4  C    0.158881
     5  C   -0.171138
     6  C   -0.218210
     7  H    0.226067
     8  H    0.223821
     9  H    0.275767
    10  H    0.275445
    11  H    0.223948
    12  N    0.488077
    13  O   -0.459005
    14  O   -0.458205
    15  C   -0.297688
    16  C   -0.307090
    17  C   -0.473584
    18  H    0.151269
    19  H    0.147186
    20  H    0.164662
    21  H    0.145277
    22  H    0.148397
    23  H    0.158581
    24  H    0.165831
    25  C   -0.296261
    26  C   -0.299384
    27  C   -0.474650
    28  H    0.144033
    29  H    0.147820
    30  H    0.152480
    31  H    0.152472
    32  H    0.154312
    33  H    0.150697
    34  H    0.159965
 Sum of Mulliken charges =  -0.00000

 Dipole moment (field-independent basis, Debye):
    X=             -1.8793    Y=             -4.6620    Z=             -1.2614  Tot=              5.1824
 Quadrupole moment (field-independent basis, Debye-Ang):
   XX=            -84.7176   YY=            -96.7070   ZZ=            -93.2101
   XY=             10.5204   XZ=              5.3204   YZ=             -2.5735

 Normal termination of Gaussian 16 at Thu May  6 04:42:35 2021.
