 Gaussian 16, Revision A.03,
 Gaussian 16:  EM64L-G16RevA.03 25-Dec-2016

 -------------
 #p 6-31g* mp2
 -------------

 ------------------------------------------------------
 Input file generated by CHIRIPA (05-May-2021 14:51:12)
 ------------------------------------------------------
 Symbolic Z-matrix:
 Charge =  0 Multiplicity = 1

                         Standard orientation:
 ---------------------------------------------------------------------
 Center     Atomic      Atomic             Coordinates (Angstroms)
 Number     Number       Type             X           Y           Z
 ---------------------------------------------------------------------
      1          6           0       -2.176437   -1.527476    0.318913
      2          6           0       -0.753513   -1.479094    0.876525
      3          6           0       -0.218774   -2.861189    1.252905
      4          1           0       -2.839741   -1.988557    1.063478
      5          1           0       -2.194841   -2.181632   -0.563774
      6          1           0       -0.737517   -0.824126    1.757080
      7          1           0       -0.093556   -1.017900    0.130622
      8          1           0       -0.205851   -3.520384    0.378893
      9          1           0       -0.853471   -3.325509    2.014592
     10          1           0        0.799755   -2.803307    1.649274
     11          6           0       -2.724903   -0.153479   -0.061937
     12          6           0       -4.147827   -0.201861   -0.619550
     13          6           0       -4.682566    1.180234   -0.995929
     14          1           0       -2.706500    0.500677    0.820750
     15          1           0       -2.061600    0.307602   -0.806502
     16          1           0       -4.807785   -0.663055    0.126354
     17          1           0       -4.163823   -0.856829   -1.500104
     18          1           0       -4.047869    1.644554   -1.757617
     19          1           0       -4.695490    1.839429   -0.121918
     20          1           0       -5.701095    1.122352   -1.392298
     21          6           0        2.256490    1.333635    0.421532
     22          6           0        1.296824    2.425024   -0.053754
     23          6           0        0.917620    3.403909    1.057903
     24          1           0        1.794372    0.784770    1.253481
     25          1           0        3.164926    1.803427    0.823319
     26          1           0        0.391050    1.953270   -0.455795
     27          1           0        1.761202    2.971230   -0.884794
     28          1           0        1.808955    3.901201    1.453913
     29          1           0        0.431018    2.877455    1.885349
     30          1           0        0.230999    4.175682    0.696269
     31          6           0        2.644851    0.347320   -0.678508
     32          6           0        3.604517   -0.744068   -0.203221
     33          6           0        3.983721   -1.722954   -1.314879
     34          1           0        1.736415   -0.122473   -1.080295
     35          1           0        3.106969    0.896186   -1.510457
     36          1           0        3.140139   -1.290274    0.627819
     37          1           0        4.510291   -0.272314    0.198820
     38          1           0        4.470323   -1.196501   -2.142325
     39          1           0        3.092385   -2.220246   -1.710888
     40          1           0        4.670342   -2.494727   -0.953245
 ---------------------------------------------------------------------

 SCF Done:  E(RHF) =  -470.733078059     A.U. after   11 cycles
 E2 =    -0.1584606697D+01 EUMP2 =    -0.47231768475515D+03

 The electronic state is 1-A.
 Alpha  occ. eigenvalues --  -11.21671 -11.21651 -11.21598 -11.21553 -11.21479
 Alpha  occ. eigenvalues --  -11.21420 -11.21377 -11.21302 -11.21159 -11.21101
 Alpha  occ. eigenvalues --  -11.21069 -11.21035  -1.08525  -1.08387  -1.03599
 Alpha  occ. eigenvalues --   -1.03503  -0.96048  -0.95953  -0.87060  -0.86971
 Alpha  occ. eigenvalues --   -0.79692  -0.79546  -0.78344  -0.78208  -0.65324
 Alpha  occ. eigenvalues --   -0.64895  -0.61055  -0.60843  -0.59407  -0.59319
 Alpha  occ. eigenvalues --   -0.57658  -0.57563  -0.55347  -0.55234  -0.52738
 Alpha  occ. eigenvalues --   -0.52651  -0.52481  -0.52370  -0.50029  -0.49860
 Alpha  occ. eigenvalues --   -0.48000  -0.47894  -0.46797  -0.46538  -0.46148
 Alpha  occ. eigenvalues --   -0.45877  -0.45640  -0.45290  -0.43848  -0.43756
 Alpha virt. eigenvalues --    0.19499   0.22291   0.23568   0.24325   0.25091
 Alpha virt. eigenvalues --    0.26045   0.27070   0.27885   0.28682   0.29805
 Alpha virt. eigenvalues --    0.30032   0.31200   0.31817   0.31878   0.32546

 Mulliken charges:
               1
     1  C   -0.297854
     2  C   -0.308859
     3  C   -0.477251
     4  H    0.150049
     5  H    0.149525
     6  H    0.151794
     7  H    0.160992
     8  H    0.155393
     9  H    0.155766
    10  H    0.161369
    11  C   -0.300675
    12  C   -0.299688
    13  C   -0.475816
    14  H    0.149967
    15  H    0.151064
    16  H    0.152239
    17  H    0.152063
    18  H    0.155315
    19  H    0.155418
    20  H    0.160442
    21  C   -0.300588
    22  C   -0.302468
    23  C   -0.475404
    24  H    0.153098
    25  H    0.149424
    26  H    0.154601
    27  H    0.151486
    28  H    0.154903
    29  H    0.155001
    30  H    0.160184
    31  C   -0.301566
    32  C   -0.301870
    33  C   -0.475516
    34  H    0.151013
    35  H    0.150103
    36  H    0.153817
    37  H    0.152135
    38  H    0.155119
    39  H    0.154967
    40  H    0.160311
 Sum of Mulliken charges =  -0.00000

 Dipole moment (field-independent basis, Debye):
    X=             -0.0281    Y=             -0.0162    Z=              0.0069  Tot=              0.0332
 Quadrupole moment (field-independent basis, Debye-Ang):
   XX=            -84.3846   YY=            -85.9308   ZZ=            -84.4099
   XY=              1.1946   XZ=             -0.4515   YZ=             -0.3039

 Normal termination of Gaussian 16 at Thu May  6 00:42:49 2021.
