 Gaussian 16, Revision A.03,
 Gaussian 16:  EM64L-G16RevA.03 25-Dec-2016

 -------------
 #p 6-31g* mp2
 -------------

 ------------------------------------------------------
 Input file generated by CHIRIPA (05-May-2021 14:57:24)
 ------------------------------------------------------
 Symbolic Z-matrix:
 Charge =  0 Multiplicity = 1

                         Standard orientation:
 ---------------------------------------------------------------------
 Center     Atomic      Atomic             Coordinates (Angstroms)
 Number     Number       Type             X           Y           Z
 ---------------------------------------------------------------------
      1          6           0        1.870591    1.818711    1.971967
      2          6           0        1.509280    0.514385    2.325107
      3          6           0        1.638404   -0.531523    1.406437
      4          6           0        2.134555   -0.236021    0.137658
      5          6           0        2.503066    1.053060   -0.244131
      6          6           0        2.365458    2.083419    0.690734
      7          1           0        1.766990    2.625158    2.691901
      8          1           0        1.124673    0.305871    3.319413
      9          1           0        1.366213   -1.550511    1.653403
     10          1           0        2.883437    1.229958   -1.242851
     11          1           0        2.646846    3.095409    0.413711
     12          7           0        2.275743   -1.335046   -0.843469
     13          8           0        2.715407   -1.048571   -1.954894
     14          8           0        1.944069   -2.462127   -0.482474
     15          6           0       -2.664232   -1.942892    1.139062
     16          6           0       -3.176623   -0.682702    1.464487
     17          6           0       -2.876841    0.431232    0.674658
     18          6           0       -2.057829    0.248026   -0.438420
     19          6           0       -1.532046   -0.994612   -0.788698
     20          6           0       -1.845023   -2.094556    0.015488
     21          1           0       -2.902234   -2.802788    1.758197
     22          1           0       -3.813092   -0.561949    2.336479
     23          1           0       -3.260040    1.418227    0.903607
     24          1           0       -0.900325   -1.083703   -1.664146
     25          1           0       -1.445680   -3.072040   -0.239650
     26          7           0       -1.733480    1.419893   -1.282176
     27          8           0       -1.009613    1.232077   -2.257563
     28          8           0       -2.209262    2.504028   -0.952149
 ---------------------------------------------------------------------

 SCF Done:  E(RHF) =  -868.339512289     A.U. after   16 cycles
 E2 =    -0.2602616304D+01 EUMP2 =    -0.87094212859247D+03

 The electronic state is 1-A.
 Alpha  occ. eigenvalues --  -20.61002 -20.60919 -20.60790 -20.60764 -15.85982
 Alpha  occ. eigenvalues --  -15.85821 -11.31115 -11.31085 -11.27719 -11.27714
 Alpha  occ. eigenvalues --  -11.27582 -11.27566 -11.27398 -11.27377 -11.26752
 Alpha  occ. eigenvalues --  -11.26666 -11.26539 -11.26536  -1.60039  -1.59854
 Alpha  occ. eigenvalues --   -1.39592  -1.39408  -1.19305  -1.19237  -1.08711
 Alpha  occ. eigenvalues --   -1.08692  -1.04660  -1.04608  -0.95582  -0.95538
 Alpha  occ. eigenvalues --   -0.86056  -0.86032  -0.82427  -0.82342  -0.77509
 Alpha  occ. eigenvalues --   -0.77389  -0.72213  -0.72049  -0.71421  -0.71146
 Alpha  occ. eigenvalues --   -0.70375  -0.70359  -0.64934  -0.64902  -0.64639
 Alpha  occ. eigenvalues --   -0.64607  -0.61980  -0.61956  -0.55175  -0.55151
 Alpha  occ. eigenvalues --   -0.53352  -0.52736  -0.52704  -0.52622  -0.48986
 Alpha  occ. eigenvalues --   -0.48944  -0.48806  -0.48795  -0.45051  -0.44834
 Alpha  occ. eigenvalues --   -0.37443  -0.37190  -0.36338  -0.35967
 Alpha virt. eigenvalues --    0.04989   0.05085   0.11277   0.11525   0.16495
 Alpha virt. eigenvalues --    0.16651   0.21404   0.21732   0.27325   0.27564
 Alpha virt. eigenvalues --    0.28340   0.28558   0.31072   0.31216   0.32363

 Mulliken charges:
               1
     1  C   -0.169988
     2  C   -0.219654
     3  C   -0.167788
     4  C    0.153179
     5  C   -0.164205
     6  C   -0.218064
     7  H    0.226096
     8  H    0.220307
     9  H    0.270239
    10  H    0.280458
    11  H    0.227486
    12  N    0.486414
    13  O   -0.453388
    14  O   -0.470693
    15  C   -0.175273
    16  C   -0.219937
    17  C   -0.172774
    18  C    0.161717
    19  C   -0.179134
    20  C   -0.218846
    21  H    0.225091
    22  H    0.221001
    23  H    0.272898
    24  H    0.283420
    25  H    0.236214
    26  N    0.488062
    27  O   -0.458745
    28  O   -0.464092
 Sum of Mulliken charges =  -0.00000

 Dipole moment (field-independent basis, Debye):
    X=             -1.4836    Y=             -0.1715    Z=              6.2248  Tot=              6.4014
 Quadrupole moment (field-independent basis, Debye-Ang):
   XX=           -101.4731   YY=           -105.4874   ZZ=           -103.2571
   XY=             16.9488   XZ=             -1.6992   YZ=              1.9432

 Normal termination of Gaussian 16 at Thu May  6 18:01:52 2021.
