 Gaussian 16, Revision A.03,
 Gaussian 16:  EM64L-G16RevA.03 25-Dec-2016

 -------------
 #p 6-31g* mp2
 -------------

 ------------------------------------------------------
 Input file generated by CHIRIPA (05-May-2021 14:55:25)
 ------------------------------------------------------
 Symbolic Z-matrix:
 Charge =  0 Multiplicity = 1

                         Standard orientation:
 ---------------------------------------------------------------------
 Center     Atomic      Atomic             Coordinates (Angstroms)
 Number     Number       Type             X           Y           Z
 ---------------------------------------------------------------------
      1          6           0       -3.545543    1.003170    0.520911
      2          6           0       -2.574024    0.711242    1.483952
      3          6           0       -1.617111   -0.280604    1.249201
      4          6           0       -1.661274   -0.963982    0.034980
      5          6           0       -2.616586   -0.696132   -0.944267
      6          6           0       -3.563692    0.299791   -0.687994
      7          1           0       -4.285087    1.775243    0.711630
      8          1           0       -2.557517    1.255885    2.423706
      9          1           0       -0.853843   -0.526903    1.977333
     10          1           0       -2.607624   -1.256031   -1.871548
     11          1           0       -4.317018    0.524378   -1.437730
     12          7           0       -0.653424   -2.016163   -0.224933
     13          8           0       -0.713790   -2.603891   -1.302694
     14          8           0        0.177811   -2.233211    0.654030
     15          6           0        2.247904    1.755375   -0.249318
     16          6           0        0.783580    2.195150   -0.267679
     17          6           0        0.617518    3.685018   -0.568530
     18          1           0        2.791916    2.345281    0.501020
     19          1           0        2.705389    1.987384   -1.221056
     20          1           0        0.328621    1.961119    0.703330
     21          1           0        0.242950    1.603995   -1.017927
     22          1           0        1.045617    3.930755   -1.545742
     23          1           0        1.131774    4.289908    0.185293
     24          1           0       -0.437026    3.977814   -0.576792
     25          6           0        2.430187    0.268484    0.050107
     26          6           0        3.894511   -0.171291    0.068469
     27          6           0        4.060573   -1.661159    0.369320
     28          1           0        1.972702    0.036474    1.021845
     29          1           0        1.886176   -0.321422   -0.700230
     30          1           0        4.435142    0.419864    0.818716
     31          1           0        4.349470    0.062740   -0.902540
     32          1           0        3.546316   -2.266049   -0.384503
     33          1           0        3.632475   -1.906896    1.346532
     34          1           0        5.115117   -1.953956    0.377581
 ---------------------------------------------------------------------

 SCF Done:  E(RHF) =  -669.534610203     A.U. after   15 cycles
 E2 =    -0.2095538155D+01 EUMP2 =    -0.67163014835787D+03

 The electronic state is 1-A.
 Alpha  occ. eigenvalues --  -20.60896 -20.60863 -15.85893 -11.31229 -11.27826
 Alpha  occ. eigenvalues --  -11.27811 -11.27562 -11.26825 -11.26812 -11.21421
 Alpha  occ. eigenvalues --  -11.21077 -11.20955 -11.20788 -11.20577 -11.19887
 Alpha  occ. eigenvalues --   -1.59943  -1.39499  -1.19421  -1.08818  -1.07905
 Alpha  occ. eigenvalues --   -1.04827  -1.02977  -0.95662  -0.95412  -0.86426
 Alpha  occ. eigenvalues --   -0.86223  -0.82504  -0.79111  -0.77790  -0.77438
 Alpha  occ. eigenvalues --   -0.72133  -0.71241  -0.70538  -0.65080  -0.64844
 Alpha  occ. eigenvalues --   -0.64541  -0.62176  -0.60392  -0.58876  -0.57009
 Alpha  occ. eigenvalues --   -0.55329  -0.54693  -0.53204  -0.52920  -0.52131
 Alpha  occ. eigenvalues --   -0.51793  -0.49361  -0.48900  -0.48891  -0.47356
 Alpha  occ. eigenvalues --   -0.46180  -0.45643  -0.45078  -0.44350  -0.43228
 Alpha  occ. eigenvalues --   -0.37377  -0.36344
 Alpha virt. eigenvalues --    0.04942   0.11177   0.16372   0.21039   0.23218
 Alpha virt. eigenvalues --    0.24858   0.25951   0.27077   0.27698   0.28502
 Alpha virt. eigenvalues --    0.29085   0.30898   0.31816   0.31999   0.32294

 Mulliken charges:
               1
     1  C   -0.170337
     2  C   -0.217817
     3  C   -0.167794
     4  C    0.160601
     5  C   -0.172235
     6  C   -0.218305
     7  H    0.225940
     8  H    0.223584
     9  H    0.275446
    10  H    0.275648
    11  H    0.223674
    12  N    0.487124
    13  O   -0.460928
    14  O   -0.456624
    15  C   -0.298288
    16  C   -0.299503
    17  C   -0.474803
    18  H    0.146384
    19  H    0.148534
    20  H    0.146736
    21  H    0.151055
    22  H    0.155996
    23  H    0.153895
    24  H    0.155002
    25  C   -0.297572
    26  C   -0.300542
    27  C   -0.473901
    28  H    0.151635
    29  H    0.153677
    30  H    0.146559
    31  H    0.148821
    32  H    0.166268
    33  H    0.158870
    34  H    0.153200
 Sum of Mulliken charges =  -0.00000

 Dipole moment (field-independent basis, Debye):
    X=             -3.6706    Y=              3.4591    Z=              0.9322  Tot=              5.1291
 Quadrupole moment (field-independent basis, Debye-Ang):
   XX=            -83.2148   YY=           -103.9382   ZZ=            -89.8604
   XY=             -2.5699   XZ=              0.3743   YZ=              0.5799

 Normal termination of Gaussian 16 at Wed May  5 22:29:44 2021.
