 Gaussian 16, Revision A.03,
 Gaussian 16:  EM64L-G16RevA.03 25-Dec-2016

 -------------
 #p 6-31g* mp2
 -------------

 ------------------------------------------------------
 Input file generated by CHIRIPA (05-May-2021 14:53:11)
 ------------------------------------------------------
 Symbolic Z-matrix:
 Charge =  0 Multiplicity = 1

                         Standard orientation:
 ---------------------------------------------------------------------
 Center     Atomic      Atomic             Coordinates (Angstroms)
 Number     Number       Type             X           Y           Z
 ---------------------------------------------------------------------
      1          6           0        4.196588   -0.486401   -0.497996
      2          6           0        2.974250   -0.471505    0.420510
      3          6           0        1.746321   -1.120375   -0.218984
      4          1           0        3.950548    0.034037   -1.433707
      5          1           0        4.429491   -1.525219   -0.770039
      6          1           0        2.744559    0.566874    0.691853
      7          1           0        3.223288   -0.991872    1.354220
      8          1           0        1.951578   -2.165047   -0.474192
      9          1           0        1.470129   -0.597445   -1.140321
     10          1           0        0.884133   -1.098846    0.454832
     11          6           0        5.432120    0.158759    0.127270
     12          6           0        6.654457    0.143863   -0.791236
     13          6           0        7.882386    0.792734   -0.151743
     14          1           0        5.199217    1.197578    0.399312
     15          1           0        5.678159   -0.361679    1.062980
     16          1           0        6.405419    0.664230   -1.724946
     17          1           0        6.884148   -0.894516   -1.062580
     18          1           0        8.158578    0.269803    0.769595
     19          1           0        7.677129    1.837406    0.103465
     20          1           0        8.744574    0.771204   -0.825559
     21          6           0       -5.926331    0.092939   -1.150161
     22          6           0       -5.303754    1.311479   -0.860195
     23          6           0       -4.103879    1.342876   -0.143355
     24          6           0       -3.551899    0.131373    0.270009
     25          6           0       -4.148089   -1.098715   -0.003359
     26          6           0       -5.347532   -1.106155   -0.721573
     27          1           0       -6.858255    0.077854   -1.707553
     28          1           0       -5.750974    2.244266   -1.191779
     29          1           0       -3.600639    2.272087    0.094831
     30          1           0       -3.678216   -2.012175    0.340482
     31          1           0       -5.828804   -2.053971   -0.945328
     32          7           0       -2.281873    0.151930    1.029622
     33          8           0       -1.815893   -0.929240    1.382566
     34          8           0       -1.776454    1.248826    1.257680
 ---------------------------------------------------------------------

 SCF Done:  E(RHF) =  -669.536536338     A.U. after   15 cycles
 E2 =    -0.2090872554D+01 EUMP2 =    -0.67162740889270D+03

 The electronic state is 1-A.
 Alpha  occ. eigenvalues --  -20.60985 -20.60968 -15.85995 -11.31299 -11.27859
 Alpha  occ. eigenvalues --  -11.27854 -11.27595 -11.26862 -11.26852 -11.21027
 Alpha  occ. eigenvalues --  -11.20654 -11.20584 -11.20496 -11.20399 -11.19603
 Alpha  occ. eigenvalues --   -1.60027  -1.39584  -1.19464  -1.08872  -1.07595
 Alpha  occ. eigenvalues --   -1.04857  -1.02623  -0.95718  -0.95069  -0.86259
 Alpha  occ. eigenvalues --   -0.86094  -0.82552  -0.78723  -0.77607  -0.77380
 Alpha  occ. eigenvalues --   -0.72215  -0.71336  -0.70574  -0.65120  -0.64861
 Alpha  occ. eigenvalues --   -0.64238  -0.62204  -0.60036  -0.58463  -0.56646
 Alpha  occ. eigenvalues --   -0.55363  -0.54388  -0.53191  -0.52949  -0.51728
 Alpha  occ. eigenvalues --   -0.51507  -0.49062  -0.48974  -0.48952  -0.47012
 Alpha  occ. eigenvalues --   -0.45785  -0.45005  -0.44917  -0.44841  -0.42827
 Alpha  occ. eigenvalues --   -0.37440  -0.36456
 Alpha virt. eigenvalues --    0.04889   0.11199   0.16382   0.21334   0.23643
 Alpha virt. eigenvalues --    0.25291   0.27253   0.27434   0.28193   0.28305
 Alpha virt. eigenvalues --    0.28979   0.30884   0.32232   0.32415   0.32558

 Mulliken charges:
               1
     1  C   -0.297283
     2  C   -0.298440
     3  C   -0.487388
     4  H    0.146908
     5  H    0.146656
     6  H    0.155247
     7  H    0.150906
     8  H    0.147292
     9  H    0.146805
    10  H    0.188128
    11  C   -0.297648
    12  C   -0.298887
    13  C   -0.475248
    14  H    0.149451
    15  H    0.149028
    16  H    0.150582
    17  H    0.150645
    18  H    0.154737
    19  H    0.154780
    20  H    0.158201
    21  C   -0.170496
    22  C   -0.218623
    23  C   -0.170726
    24  C    0.158740
    25  C   -0.170485
    26  C   -0.218598
    27  H    0.226022
    28  H    0.223814
    29  H    0.275814
    30  H    0.276079
    31  H    0.223902
    32  N    0.488707
    33  O   -0.459766
    34  O   -0.458855
 Sum of Mulliken charges =  -0.00000

 Dipole moment (field-independent basis, Debye):
    X=             -4.8289    Y=             -0.0328    Z=             -2.5630  Tot=              5.4670
 Quadrupole moment (field-independent basis, Debye-Ang):
   XX=            -65.4788   YY=            -89.2087   ZZ=            -97.0878
   XY=             -0.7858   XZ=              8.6755   YZ=             -1.3024

 Normal termination of Gaussian 16 at Wed May  5 23:18:47 2021.
