 Gaussian 16, Revision A.03,
 Gaussian 16:  EM64L-G16RevA.03 25-Dec-2016

 -------------
 #p 6-31g* mp2
 -------------

 ------------------------------------------------------
 Input file generated by CHIRIPA (05-May-2021 14:57:23)
 ------------------------------------------------------
 Symbolic Z-matrix:
 Charge =  0 Multiplicity = 1

                         Standard orientation:
 ---------------------------------------------------------------------
 Center     Atomic      Atomic             Coordinates (Angstroms)
 Number     Number       Type             X           Y           Z
 ---------------------------------------------------------------------
      1          6           0        1.359429    1.780475   -0.823938
      2          6           0        1.485403    0.626831   -1.604807
      3          6           0        2.416548   -0.360193   -1.268204
      4          6           0        3.209110   -0.160100   -0.139002
      5          6           0        3.107247    0.978370    0.658995
      6          6           0        2.169325    1.952260    0.303484
      7          1           0        0.633461    2.542118   -1.092763
      8          1           0        0.857754    0.490744   -2.480925
      9          1           0        2.534939   -1.262954   -1.855081
     10          1           0        3.746911    1.085825    1.526579
     11          1           0        2.073680    2.847184    0.911766
     12          7           0        4.198459   -1.198066    0.227353
     13          8           0        4.884894   -0.997973    1.227056
     14          8           0        4.268742   -2.192063   -0.492138
     15          6           0       -1.851822    2.190268    0.506451
     16          6           0       -2.441515    1.879385   -0.723238
     17          6           0       -3.105780    0.662683   -0.904722
     18          6           0       -3.161507   -0.223777    0.169695
     19          6           0       -2.583929    0.057090    1.406953
     20          6           0       -1.924783    1.279733    1.565755
     21          1           0       -1.337794    3.137738    0.638622
     22          1           0       -2.386421    2.584601   -1.547665
     23          1           0       -3.571075    0.396531   -1.846041
     24          1           0       -2.655381   -0.666106    2.210259
     25          1           0       -1.467741    1.518499    2.521866
     26          7           0       -3.862025   -1.514990   -0.010427
     27          8           0       -3.897162   -2.278907    0.951776
     28          8           0       -4.362689   -1.738676   -1.110398
 ---------------------------------------------------------------------

 SCF Done:  E(RHF) =  -868.335310338     A.U. after   16 cycles
 E2 =    -0.2602379524D+01 EUMP2 =    -0.87093768986213D+03

 The electronic state is 1-A.
 Alpha  occ. eigenvalues --  -20.61299 -20.61284 -20.61037 -20.61024 -15.86356
 Alpha  occ. eigenvalues --  -15.86094 -11.31895 -11.31555 -11.28543 -11.28458
 Alpha  occ. eigenvalues --  -11.28383 -11.28206 -11.28134 -11.28005 -11.27642
 Alpha  occ. eigenvalues --  -11.27516 -11.27279 -11.27161  -1.60366  -1.60108
 Alpha  occ. eigenvalues --   -1.39915  -1.39659  -1.20114  -1.19768  -1.09523
 Alpha  occ. eigenvalues --   -1.09144  -1.05539  -1.05193  -0.96326  -0.95951
 Alpha  occ. eigenvalues --   -0.86953  -0.86598  -0.83130  -0.82795  -0.78110
 Alpha  occ. eigenvalues --   -0.77813  -0.72574  -0.72312  -0.71693  -0.71466
 Alpha  occ. eigenvalues --   -0.71434  -0.70797  -0.65779  -0.65574  -0.65434
 Alpha  occ. eigenvalues --   -0.65212  -0.62877  -0.62541  -0.56218  -0.55737
 Alpha  occ. eigenvalues --   -0.54041  -0.53645  -0.53307  -0.53274  -0.49345
 Alpha  occ. eigenvalues --   -0.49313  -0.49080  -0.49057  -0.45282  -0.45043
 Alpha  occ. eigenvalues --   -0.38607  -0.37242  -0.37170  -0.36740
 Alpha virt. eigenvalues --    0.04203   0.04937   0.10222   0.10992   0.15595
 Alpha virt. eigenvalues --    0.16464   0.18778   0.22053   0.25590   0.25759
 Alpha virt. eigenvalues --    0.27585   0.29541   0.30115   0.30350   0.32482

 Mulliken charges:
               1
     1  C   -0.160714
     2  C   -0.218040
     3  C   -0.169490
     4  C    0.158357
     5  C   -0.170377
     6  C   -0.222090
     7  H    0.215020
     8  H    0.223658
     9  H    0.278415
    10  H    0.275838
    11  H    0.217175
    12  N    0.488071
    13  O   -0.460501
    14  O   -0.458079
    15  C   -0.170592
    16  C   -0.223660
    17  C   -0.171169
    18  C    0.159546
    19  C   -0.168614
    20  C   -0.214682
    21  H    0.219202
    22  H    0.219968
    23  H    0.276764
    24  H    0.279438
    25  H    0.225284
    26  N    0.487928
    27  O   -0.456922
    28  O   -0.459732
 Sum of Mulliken charges =  -0.00000

 Dipole moment (field-independent basis, Debye):
    X=             -1.1069    Y=              7.9053    Z=             -0.5787  Tot=              8.0034
 Quadrupole moment (field-independent basis, Debye-Ang):
   XX=           -143.2555   YY=           -107.9013   ZZ=            -96.8489
   XY=             -2.0158   XZ=             -3.1469   YZ=              1.5869

 Normal termination of Gaussian 16 at Fri May  7 04:55:58 2021.
