 Gaussian 16, Revision A.03,
 Gaussian 16:  EM64L-G16RevA.03 25-Dec-2016

 -------------
 #p 6-31g* mp2
 -------------

 ------------------------------------------------------
 Input file generated by CHIRIPA (05-May-2021 14:55:23)
 ------------------------------------------------------
 Symbolic Z-matrix:
 Charge =  0 Multiplicity = 1

                         Standard orientation:
 ---------------------------------------------------------------------
 Center     Atomic      Atomic             Coordinates (Angstroms)
 Number     Number       Type             X           Y           Z
 ---------------------------------------------------------------------
      1          6           0       -5.807060   -0.792353    0.401482
      2          6           0       -5.473790    0.534468    0.109936
      3          6           0       -4.152357    0.887464   -0.179470
      4          6           0       -3.185133   -0.116352   -0.168437
      5          6           0       -3.485758   -1.447052    0.118185
      6          6           0       -4.813732   -1.777142    0.404671
      7          1           0       -6.836122   -1.057671    0.625166
      8          1           0       -6.243146    1.301362    0.106733
      9          1           0       -3.866626    1.906918   -0.408576
     10          1           0       -2.696944   -2.189460    0.113721
     11          1           0       -5.069648   -2.808378    0.630733
     12          7           0       -1.782729    0.245225   -0.473272
     13          8           0       -0.949078   -0.657771   -0.457086
     14          8           0       -1.543730    1.424777   -0.722616
     15          6           0        3.893766    0.627101    0.589949
     16          6           0        2.738480    1.254602   -0.190783
     17          6           0        1.788708    2.055413    0.700523
     18          1           0        3.486250   -0.025893    1.373834
     19          1           0        4.453538    1.420710    1.103988
     20          1           0        2.181884    0.460181   -0.704313
     21          1           0        3.148797    1.906028   -0.973023
     22          1           0        2.324364    2.867742    1.202314
     23          1           0        1.351956    1.413679    1.472551
     24          1           0        0.970315    2.495197    0.122004
     25          6           0        4.851874   -0.176685   -0.287368
     26          6           0        6.007160   -0.804186    0.493364
     27          6           0        6.956934   -1.604997   -0.397941
     28          1           0        4.292103   -0.970293   -0.801406
     29          1           0        5.259391    0.476309   -1.071251
     30          1           0        5.596844   -1.455612    1.275604
     31          1           0        6.563758   -0.009766    1.006894
     32          1           0        7.393684   -0.963264   -1.169970
     33          1           0        6.421278   -2.417326   -0.899733
     34          1           0        7.775326   -2.044781    0.180578
 ---------------------------------------------------------------------

 SCF Done:  E(RHF) =  -669.536596168     A.U. after   15 cycles
 E2 =    -0.2091524895D+01 EUMP2 =    -0.67162812106271D+03

 The electronic state is 1-A.
 Alpha  occ. eigenvalues --  -20.61043 -20.61038 -15.86052 -11.31348 -11.27903
 Alpha  occ. eigenvalues --  -11.27899 -11.27635 -11.26903 -11.26893 -11.20774
 Alpha  occ. eigenvalues --  -11.20390 -11.20323 -11.20073 -11.19829 -11.19139
 Alpha  occ. eigenvalues --   -1.60079  -1.39639  -1.19509  -1.08918  -1.07222
 Alpha  occ. eigenvalues --   -1.04900  -1.02235  -0.95767  -0.94702  -0.86302
 Alpha  occ. eigenvalues --   -0.85737  -0.82601  -0.78373  -0.77657  -0.76965
 Alpha  occ. eigenvalues --   -0.72272  -0.71388  -0.70617  -0.65165  -0.64904
 Alpha  occ. eigenvalues --   -0.63861  -0.62247  -0.59637  -0.58145  -0.56279
 Alpha  occ. eigenvalues --   -0.55401  -0.54024  -0.53232  -0.52992  -0.51407
 Alpha  occ. eigenvalues --   -0.51152  -0.49026  -0.48981  -0.48665  -0.46657
 Alpha  occ. eigenvalues --   -0.45429  -0.45053  -0.44528  -0.44369  -0.42465
 Alpha  occ. eigenvalues --   -0.37485  -0.36499
 Alpha virt. eigenvalues --    0.04863   0.11157   0.16363   0.21290   0.23979
 Alpha virt. eigenvalues --    0.25672   0.27214   0.27786   0.28177   0.28682
 Alpha virt. eigenvalues --    0.29289   0.30881   0.32351   0.32590   0.32837

 Mulliken charges:
               1
     1  C   -0.170467
     2  C   -0.218566
     3  C   -0.170593
     4  C    0.158260
     5  C   -0.170628
     6  C   -0.218582
     7  H    0.226187
     8  H    0.224033
     9  H    0.275943
    10  H    0.275783
    11  H    0.223976
    12  N    0.489741
    13  O   -0.460013
    14  O   -0.458858
    15  C   -0.297115
    16  C   -0.301997
    17  C   -0.478042
    18  H    0.147821
    19  H    0.144235
    20  H    0.168475
    21  H    0.144869
    22  H    0.141686
    23  H    0.149837
    24  H    0.180914
    25  C   -0.297620
    26  C   -0.298571
    27  C   -0.475000
    28  H    0.150730
    29  H    0.147383
    30  H    0.150435
    31  H    0.149917
    32  H    0.154073
    33  H    0.154497
    34  H    0.157257
 Sum of Mulliken charges =  -0.00000

 Dipole moment (field-independent basis, Debye):
    X=             -5.4157    Y=             -1.3214    Z=              0.9550  Tot=              5.6557
 Quadrupole moment (field-independent basis, Debye-Ang):
   XX=            -65.2915   YY=            -89.8669   ZZ=            -96.4130
   XY=              3.9649   XZ=             -2.5110   YZ=             -1.2884

 Normal termination of Gaussian 16 at Thu May  6 15:57:07 2021.
