 Gaussian 16, Revision A.03,
 Gaussian 16:  EM64L-G16RevA.03 25-Dec-2016

 -------------
 #p 6-31g* mp2
 -------------

 ------------------------------------------------------
 Input file generated by CHIRIPA (05-May-2021 14:53:18)
 ------------------------------------------------------
 Symbolic Z-matrix:
 Charge =  0 Multiplicity = 1

                         Standard orientation:
 ---------------------------------------------------------------------
 Center     Atomic      Atomic             Coordinates (Angstroms)
 Number     Number       Type             X           Y           Z
 ---------------------------------------------------------------------
      1          6           0       -2.974295    1.236632    0.115900
      2          6           0       -2.050896    1.891044   -0.912237
      3          6           0       -1.404590    3.175820   -0.393170
      4          1           0       -3.756790    1.951833    0.404227
      5          1           0       -2.400269    1.017304    1.026825
      6          1           0       -2.626168    2.107812   -1.821462
      7          1           0       -1.270620    1.174136   -1.198294
      8          1           0       -0.806904    2.972269    0.501224
      9          1           0       -2.170154    3.911250   -0.125486
     10          1           0       -0.748591    3.626999   -1.144145
     11          6           0       -3.627878   -0.048796   -0.388314
     12          6           0       -4.551276   -0.703208    0.639823
     13          6           0       -5.197582   -1.987985    0.120756
     14          1           0       -4.201903    0.170532   -1.299239
     15          1           0       -2.845382   -0.763997   -0.676641
     16          1           0       -5.331552    0.013700    0.925880
     17          1           0       -3.976004   -0.919976    1.549048
     18          1           0       -4.432018   -2.723414   -0.146928
     19          1           0       -5.795268   -1.784433   -0.773637
     20          1           0       -5.853582   -2.439163    0.871731
     21          6           0        0.215000   -1.343668    0.167559
     22          6           0        0.564960   -0.223476    0.928624
     23          6           0        1.871771    0.272617    0.902453
     24          6           0        2.807514   -0.378955    0.100500
     25          6           0        2.489631   -1.497020   -0.669026
     26          6           0        1.176758   -1.975751   -0.627435
     27          1           0       -0.802516   -1.722300    0.193879
     28          1           0       -0.179874    0.269425    1.546942
     29          1           0        2.169866    1.138076    1.481711
     30          1           0        3.254026   -1.967111   -1.275766
     31          1           0        0.907823   -2.845890   -1.219530
     32          7           0        4.194185    0.137045    0.064632
     33          8           0        5.000080   -0.454938   -0.650019
     34          8           0        4.448906    1.123701    0.751849
 ---------------------------------------------------------------------

 SCF Done:  E(RHF) =  -669.534447604     A.U. after   15 cycles
 E2 =    -0.2094216178D+01 EUMP2 =    -0.67162866378227D+03

 The electronic state is 1-A.
 Alpha  occ. eigenvalues --  -20.60795 -20.60790 -15.85849 -11.31240 -11.27807
 Alpha  occ. eigenvalues --  -11.27802 -11.27540 -11.26832 -11.26814 -11.22594
 Alpha  occ. eigenvalues --  -11.22465 -11.22384 -11.22224 -11.21974 -11.21676
 Alpha  occ. eigenvalues --   -1.59870  -1.39422  -1.19420  -1.09406  -1.08800
 Alpha  occ. eigenvalues --   -1.04830  -1.04357  -0.96834  -0.95639  -0.87843
 Alpha  occ. eigenvalues --   -0.86222  -0.82475  -0.80428  -0.79212  -0.77514
 Alpha  occ. eigenvalues --   -0.72068  -0.71193  -0.70568  -0.66201  -0.65063
 Alpha  occ. eigenvalues --   -0.64714  -0.62253  -0.61678  -0.60186  -0.58432
 Alpha  occ. eigenvalues --   -0.56201  -0.55301  -0.53467  -0.53262  -0.53129
 Alpha  occ. eigenvalues --   -0.52915  -0.50782  -0.48843  -0.48820  -0.48719
 Alpha  occ. eigenvalues --   -0.47479  -0.46711  -0.46657  -0.44822  -0.44653
 Alpha  occ. eigenvalues --   -0.37360  -0.36404
 Alpha virt. eigenvalues --    0.04981   0.11146   0.16324   0.18397   0.22284
 Alpha virt. eigenvalues --    0.23617   0.25081   0.25732   0.26756   0.28515
 Alpha virt. eigenvalues --    0.29842   0.30257   0.31141   0.31502   0.31981

 Mulliken charges:
               1
     1  C   -0.300397
     2  C   -0.305425
     3  C   -0.474434
     4  H    0.155126
     5  H    0.139480
     6  H    0.154641
     7  H    0.158293
     8  H    0.148374
     9  H    0.156854
    10  H    0.165902
    11  C   -0.301767
    12  C   -0.300804
    13  C   -0.475061
    14  H    0.155753
    15  H    0.141778
    16  H    0.156755
    17  H    0.147898
    18  H    0.150508
    19  H    0.158560
    20  H    0.163805
    21  C   -0.174898
    22  C   -0.220318
    23  C   -0.171848
    24  C    0.158740
    25  C   -0.170747
    26  C   -0.219588
    27  H    0.230797
    28  H    0.228391
    29  H    0.276200
    30  H    0.275874
    31  H    0.223916
    32  N    0.487974
    33  O   -0.460278
    34  O   -0.460057
 Sum of Mulliken charges =  -0.00000

 Dipole moment (field-independent basis, Debye):
    X=             -4.9924    Y=             -1.7497    Z=              0.0343  Tot=              5.2903
 Quadrupole moment (field-independent basis, Debye-Ang):
   XX=           -121.3391   YY=            -91.4819   ZZ=            -93.0751
   XY=             -5.3930   XZ=             -0.7407   YZ=              1.9077

 Normal termination of Gaussian 16 at Thu May  6 10:44:46 2021.
