 Gaussian 16, Revision A.03,
 Gaussian 16:  EM64L-G16RevA.03 25-Dec-2016

 -------------
 #p 6-31g* mp2
 -------------

 ------------------------------------------------------
 Input file generated by CHIRIPA (05-May-2021 14:53:16)
 ------------------------------------------------------
 Symbolic Z-matrix:
 Charge =  0 Multiplicity = 1

                         Standard orientation:
 ---------------------------------------------------------------------
 Center     Atomic      Atomic             Coordinates (Angstroms)
 Number     Number       Type             X           Y           Z
 ---------------------------------------------------------------------
      1          6           0       -3.487811    0.570542   -0.193039
      2          6           0       -3.994455    2.012713   -0.155111
      3          6           0       -2.915418    3.028450   -0.531610
      4          1           0       -2.633631    0.470607    0.490580
      5          1           0       -3.109497    0.348549   -1.200507
      6          1           0       -4.372973    2.231482    0.851607
      7          1           0       -4.847649    2.109179   -0.838756
      8          1           0       -2.543727    2.838345   -1.543691
      9          1           0       -2.066354    2.961342    0.156276
     10          1           0       -3.299152    4.052890   -0.497973
     11          6           0       -4.555042   -0.456526    0.180965
     12          6           0       -4.048398   -1.898697    0.143037
     13          6           0       -5.127435   -2.914434    0.519536
     14          1           0       -4.933356   -0.234533    1.188433
     15          1           0       -5.409222   -0.356591   -0.502654
     16          1           0       -3.195204   -1.995164    0.826682
     17          1           0       -3.669880   -2.117466   -0.863680
     18          1           0       -5.976499   -2.847327   -0.168350
     19          1           0       -5.499126   -2.724330    1.531617
     20          1           0       -4.743701   -3.938874    0.485900
     21          6           0        0.712717    0.637823   -0.007762
     22          6           0        1.157233   -0.383589   -0.853719
     23          6           0        2.500845   -0.769921   -0.855223
     24          6           0        3.376568   -0.110505    0.005923
     25          6           0        2.964170    0.910768    0.860450
     26          6           0        1.616011    1.280608    0.845119
     27          1           0       -0.332799    0.931529   -0.013133
     28          1           0        0.457966   -0.884541   -1.517132
     29          1           0        2.871873   -1.557474   -1.499829
     30          1           0        3.684869    1.391634    1.510665
     31          1           0        1.273613    2.074184    1.503181
     32          7           0        4.801397   -0.510767    0.013242
     33          8           0        5.552956    0.085804    0.781290
     34          8           0        5.139639   -1.413486   -0.749208
 ---------------------------------------------------------------------

 SCF Done:  E(RHF) =  -669.535452442     A.U. after   15 cycles
 E2 =    -0.2091744888D+01 EUMP2 =    -0.67162719732984D+03

 The electronic state is 1-A.
 Alpha  occ. eigenvalues --  -20.60692 -20.60687 -15.85746 -11.31088 -11.27663
 Alpha  occ. eigenvalues --  -11.27657 -11.27313 -11.26660 -11.26644 -11.22721
 Alpha  occ. eigenvalues --  -11.22656 -11.22452 -11.22327 -11.22297 -11.21731
 Alpha  occ. eigenvalues --   -1.59768  -1.39323  -1.19256  -1.09498  -1.08646
 Alpha  occ. eigenvalues --   -1.04661  -1.04518  -0.96981  -0.95489  -0.87992
 Alpha  occ. eigenvalues --   -0.86054  -0.82334  -0.80596  -0.79336  -0.77382
 Alpha  occ. eigenvalues --   -0.71963  -0.71092  -0.70363  -0.66116  -0.64904
 Alpha  occ. eigenvalues --   -0.64666  -0.62014  -0.61901  -0.60364  -0.58593
 Alpha  occ. eigenvalues --   -0.56283  -0.55171  -0.53623  -0.53418  -0.52983
 Alpha  occ. eigenvalues --   -0.52749  -0.50923  -0.48894  -0.48720  -0.48714
 Alpha  occ. eigenvalues --   -0.47623  -0.46819  -0.46752  -0.44788  -0.44733
 Alpha  occ. eigenvalues --   -0.37220  -0.36272
 Alpha virt. eigenvalues --    0.05143   0.11381   0.16593   0.19387   0.22369
 Alpha virt. eigenvalues --    0.23584   0.24985   0.25829   0.26481   0.27866
 Alpha virt. eigenvalues --    0.29437   0.30314   0.30773   0.31006   0.31550

 Mulliken charges:
               1
     1  C   -0.304717
     2  C   -0.300035
     3  C   -0.478649
     4  H    0.144438
     5  H    0.147612
     6  H    0.155389
     7  H    0.157007
     8  H    0.157136
     9  H    0.146990
    10  H    0.167202
    11  C   -0.297731
    12  C   -0.300951
    13  C   -0.476290
    14  H    0.152615
    15  H    0.153226
    16  H    0.152299
    17  H    0.150302
    18  H    0.156738
    19  H    0.156986
    20  H    0.162789
    21  C   -0.179665
    22  C   -0.222104
    23  C   -0.170700
    24  C    0.158035
    25  C   -0.170671
    26  C   -0.221573
    27  H    0.241406
    28  H    0.223629
    29  H    0.275120
    30  H    0.275138
    31  H    0.222514
    32  N    0.488030
    33  O   -0.460764
    34  O   -0.460755
 Sum of Mulliken charges =  -0.00000

 Dipole moment (field-independent basis, Debye):
    X=             -5.3596    Y=              1.4170    Z=             -0.0340  Tot=              5.5438
 Quadrupole moment (field-independent basis, Debye-Ang):
   XX=           -128.3089   YY=            -93.4180   ZZ=            -91.8171
   XY=              5.4359   XZ=              1.0777   YZ=              3.0017

 Normal termination of Gaussian 16 at Thu May  6 18:54:41 2021.
