 Gaussian 16, Revision A.03,
 Gaussian 16:  EM64L-G16RevA.03 25-Dec-2016

 -------------
 #p 6-31g* mp2
 -------------

 ------------------------------------------------------
 Input file generated by CHIRIPA (05-May-2021 14:53:12)
 ------------------------------------------------------
 Symbolic Z-matrix:
 Charge =  0 Multiplicity = 1

                         Standard orientation:
 ---------------------------------------------------------------------
 Center     Atomic      Atomic             Coordinates (Angstroms)
 Number     Number       Type             X           Y           Z
 ---------------------------------------------------------------------
      1          6           0        4.054415    0.746373   -0.311277
      2          6           0        2.591183    1.101376   -0.044984
      3          6           0        2.198330    2.461503   -0.622490
      4          1           0        4.698182    1.527453    0.115834
      5          1           0        4.234233    0.751279   -1.395267
      6          1           0        2.413839    1.094448    1.038121
      7          1           0        1.950831    0.319263   -0.472611
      8          1           0        2.347016    2.477015   -1.707041
      9          1           0        2.812655    3.256604   -0.187725
     10          1           0        1.148341    2.695245   -0.420627
     11          6           0        4.462240   -0.610493    0.259967
     12          6           0        5.925472   -0.965496   -0.006325
     13          6           0        6.318325   -2.325624    0.571180
     14          1           0        4.282422   -0.615399    1.343958
     15          1           0        3.818472   -1.391573   -0.167144
     16          1           0        6.565824   -0.183383    0.421301
     17          1           0        6.102815   -0.958568   -1.089431
     18          1           0        5.704000   -3.120724    0.136416
     19          1           0        6.169639   -2.341135    1.655732
     20          1           0        7.368314   -2.559365    0.369317
     21          6           0       -1.776477    1.920565    0.279080
     22          6           0       -2.713684    1.631016    1.276238
     23          6           0       -3.577729    0.540007    1.143303
     24          6           0       -3.476700   -0.243883   -0.005000
     25          6           0       -2.553516    0.018860   -1.015935
     26          6           0       -1.699520    1.114983   -0.861814
     27          1           0       -1.109169    2.770073    0.390576
     28          1           0       -2.775703    2.254909    2.163343
     29          1           0       -4.312618    0.293134    1.899881
     30          1           0       -2.515430   -0.621323   -1.888937
     31          1           0       -0.972652    1.337469   -1.637833
     32          7           0       -4.386106   -1.401592   -0.156947
     33          8           0       -4.277059   -2.076787   -1.178150
     34          8           0       -5.190727   -1.611888    0.748038
 ---------------------------------------------------------------------

 SCF Done:  E(RHF) =  -669.535288803     A.U. after   15 cycles
 E2 =    -0.2091551576D+01 EUMP2 =    -0.67162684037912D+03

 The electronic state is 1-A.
 Alpha  occ. eigenvalues --  -20.60753 -20.60748 -15.85807 -11.31173 -11.27741
 Alpha  occ. eigenvalues --  -11.27737 -11.27473 -11.26755 -11.26738 -11.22425
 Alpha  occ. eigenvalues --  -11.22221 -11.22014 -11.21971 -11.21831 -11.21349
 Alpha  occ. eigenvalues --   -1.59829  -1.39382  -1.19344  -1.09023  -1.08739
 Alpha  occ. eigenvalues --   -1.04748  -1.04166  -0.96639  -0.95575  -0.87656
 Alpha  occ. eigenvalues --   -0.86143  -0.82409  -0.80228  -0.78783  -0.77453
 Alpha  occ. eigenvalues --   -0.72026  -0.71152  -0.70489  -0.65651  -0.65003
 Alpha  occ. eigenvalues --   -0.64768  -0.62115  -0.61546  -0.60052  -0.58228
 Alpha  occ. eigenvalues --   -0.55909  -0.55280  -0.53354  -0.53113  -0.52980
 Alpha  occ. eigenvalues --   -0.52818  -0.50555  -0.48784  -0.48780  -0.48540
 Alpha  occ. eigenvalues --   -0.47246  -0.46335  -0.46233  -0.44788  -0.44413
 Alpha  occ. eigenvalues --   -0.37314  -0.36346
 Alpha virt. eigenvalues --    0.05069   0.11236   0.16526   0.19703   0.22602
 Alpha virt. eigenvalues --    0.23998   0.25941   0.26143   0.26950   0.27059
 Alpha virt. eigenvalues --    0.28686   0.30186   0.30825   0.31528   0.31870

 Mulliken charges:
               1
     1  C   -0.299065
     2  C   -0.299686
     3  C   -0.480127
     4  H    0.150710
     5  H    0.150233
     6  H    0.153785
     7  H    0.152971
     8  H    0.157206
     9  H    0.159932
    10  H    0.148666
    11  C   -0.298854
    12  C   -0.300131
    13  C   -0.476102
    14  H    0.150509
    15  H    0.151188
    16  H    0.152180
    17  H    0.152391
    18  H    0.156369
    19  H    0.155763
    20  H    0.161384
    21  C   -0.173137
    22  C   -0.218696
    23  C   -0.170872
    24  C    0.158470
    25  C   -0.171437
    26  C   -0.219465
    27  H    0.228344
    28  H    0.223513
    29  H    0.275537
    30  H    0.275449
    31  H    0.225848
    32  N    0.488087
    33  O   -0.460532
    34  O   -0.460432
 Sum of Mulliken charges =  -0.00000

 Dipole moment (field-independent basis, Debye):
    X=              3.3748    Y=              4.0208    Z=              0.5626  Tot=              5.2794
 Quadrupole moment (field-independent basis, Debye-Ang):
   XX=           -116.3123   YY=            -98.0278   ZZ=            -90.3720
   XY=            -15.0980   XZ=             -3.9397   YZ=              1.7679

 Normal termination of Gaussian 16 at Thu May  6 16:59:39 2021.
