 Gaussian 16, Revision A.03,
 Gaussian 16:  EM64L-G16RevA.03 25-Dec-2016

 -------------
 #p 6-31g* mp2
 -------------

 ------------------------------------------------------
 Input file generated by CHIRIPA (05-May-2021 14:57:21)
 ------------------------------------------------------
 Symbolic Z-matrix:
 Charge =  0 Multiplicity = 1

                         Standard orientation:
 ---------------------------------------------------------------------
 Center     Atomic      Atomic             Coordinates (Angstroms)
 Number     Number       Type             X           Y           Z
 ---------------------------------------------------------------------
      1          6           0        1.307214   -0.067778    1.231710
      2          6           0        1.768980   -1.233903    0.612481
      3          6           0        3.053907   -1.285485    0.063984
      4          6           0        3.853993   -0.147396    0.152885
      5          6           0        3.422569    1.029194    0.763458
      6          6           0        2.134024    1.058064    1.305093
      7          1           0        0.307646   -0.036529    1.655130
      8          1           0        1.129058   -2.109762    0.554031
      9          1           0        3.436665   -2.175246   -0.421031
     10          1           0        4.083557    1.886325    0.806338
     11          1           0        1.778060    1.965057    1.785404
     12          7           0        5.216203   -0.189982   -0.424152
     13          8           0        5.901592    0.826159   -0.332840
     14          8           0        5.572720   -1.238694   -0.956819
     15          6           0       -1.604800    1.535058   -0.814943
     16          6           0       -1.517978    0.139027   -0.823898
     17          6           0       -2.633399   -0.643744   -0.511404
     18          6           0       -3.825224    0.005544   -0.193176
     19          6           0       -3.943348    1.394439   -0.175608
     20          6           0       -2.815074    2.157212   -0.491397
     21          1           0       -0.733321    2.135366   -1.058976
     22          1           0       -0.579358   -0.346867   -1.074785
     23          1           0       -2.594088   -1.726275   -0.510707
     24          1           0       -4.892657    1.850129    0.078514
     25          1           0       -2.885425    3.241202   -0.483644
     26          7           0       -5.012874   -0.812554    0.139392
     27          8           0       -6.051353   -0.216322    0.416352
     28          8           0       -4.882787   -2.034521    0.116800
 ---------------------------------------------------------------------

 SCF Done:  E(RHF) =  -868.336919828     A.U. after   16 cycles
 E2 =    -0.2601842322D+01 EUMP2 =    -0.87093876214999D+03

 The electronic state is 1-A.
 Alpha  occ. eigenvalues --  -20.61408 -20.61405 -20.61400 -20.61399 -15.86468
 Alpha  occ. eigenvalues --  -15.86463 -11.31972 -11.31945 -11.28613 -11.28604
 Alpha  occ. eigenvalues --  -11.28525 -11.28481 -11.28294 -11.28219 -11.27608
 Alpha  occ. eigenvalues --  -11.27583 -11.27519 -11.27469  -1.60481  -1.60480
 Alpha  occ. eigenvalues --   -1.40031  -1.40029  -1.20207  -1.20112  -1.09593
 Alpha  occ. eigenvalues --   -1.09443  -1.05631  -1.05527  -0.96367  -0.96280
 Alpha  occ. eigenvalues --   -0.87037  -0.86878  -0.83182  -0.83117  -0.78228
 Alpha  occ. eigenvalues --   -0.78145  -0.72679  -0.72674  -0.71811  -0.71809
 Alpha  occ. eigenvalues --   -0.71270  -0.71168  -0.65865  -0.65750  -0.65681
 Alpha  occ. eigenvalues --   -0.65414  -0.62991  -0.62821  -0.56103  -0.55973
 Alpha  occ. eigenvalues --   -0.54181  -0.53779  -0.53689  -0.53410  -0.49450
 Alpha  occ. eigenvalues --   -0.49442  -0.49427  -0.49425  -0.45411  -0.45403
 Alpha  occ. eigenvalues --   -0.38561  -0.37828  -0.37270  -0.36992
 Alpha virt. eigenvalues --    0.04280   0.04374   0.10176   0.10547   0.15719
 Alpha virt. eigenvalues --    0.15914   0.20122   0.21280   0.25540   0.27171
 Alpha virt. eigenvalues --    0.27627   0.28037   0.30296   0.30645   0.31821

 Mulliken charges:
               1
     1  C   -0.172580
     2  C   -0.229021
     3  C   -0.170217
     4  C    0.157781
     5  C   -0.169974
     6  C   -0.224438
     7  H    0.234260
     8  H    0.224614
     9  H    0.278544
    10  H    0.277691
    11  H    0.224758
    12  N    0.488115
    13  O   -0.458935
    14  O   -0.458361
    15  C   -0.176209
    16  C   -0.226848
    17  C   -0.176985
    18  C    0.159620
    19  C   -0.170930
    20  C   -0.218734
    21  H    0.229148
    22  H    0.231000
    23  H    0.274385
    24  H    0.277758
    25  H    0.225555
    26  N    0.487985
    27  O   -0.458099
    28  O   -0.459883
 Sum of Mulliken charges =  -0.00000

 Dipole moment (field-independent basis, Debye):
    X=             -0.5627    Y=              3.0931    Z=              0.8784  Tot=              3.2642
 Quadrupole moment (field-independent basis, Debye-Ang):
   XX=           -172.4871   YY=            -96.9301   ZZ=           -104.6654
   XY=            -11.7174   XZ=             10.7265   YZ=              1.3463

 Normal termination of Gaussian 16 at Thu May  6 14:28:15 2021.
