 Gaussian 16, Revision A.03,
 Gaussian 16:  EM64L-G16RevA.03 25-Dec-2016

 -------------
 #p 6-31g* mp2
 -------------

 ------------------------------------------------------
 Input file generated by CHIRIPA (05-May-2021 14:57:26)
 ------------------------------------------------------
 Symbolic Z-matrix:
 Charge =  0 Multiplicity = 1

                         Standard orientation:
 ---------------------------------------------------------------------
 Center     Atomic      Atomic             Coordinates (Angstroms)
 Number     Number       Type             X           Y           Z
 ---------------------------------------------------------------------
      1          6           0       -2.178169    0.698711    2.073908
      2          6           0       -2.099153    1.404012    0.868575
      3          6           0       -2.869212    1.017086   -0.232264
      4          6           0       -3.711470   -0.084834   -0.092041
      5          6           0       -3.812290   -0.807867    1.095541
      6          6           0       -3.032979   -0.403035    2.183351
      7          1           0       -1.576375    1.006239    2.924006
      8          1           0       -1.436168    2.260033    0.780696
      9          1           0       -2.827537    1.545174   -1.177147
     10          1           0       -4.482358   -1.657075    1.152753
     11          1           0       -3.096387   -0.952660    3.118197
     12          7           0       -4.531594   -0.503934   -1.250553
     13          8           0       -5.265882   -1.478202   -1.101360
     14          8           0       -4.424591    0.149781   -2.285853
     15          6           0        2.528849    2.310875   -0.133786
     16          6           0        3.721316    2.075051   -0.825833
     17          6           0        4.310631    0.807335   -0.813454
     18          6           0        3.677567   -0.206121   -0.095523
     19          6           0        2.489033   -0.002468    0.603906
     20          6           0        1.917589    1.273192    0.577620
     21          1           0        2.077996    3.298752   -0.148803
     22          1           0        4.198252    2.879040   -1.379165
     23          1           0        5.233403    0.597145   -1.340455
     24          1           0        2.037040   -0.823819    1.146588
     25          1           0        0.991463    1.453441    1.115991
     26          7           0        4.291988   -1.552401   -0.075057
     27          8           0        3.714468   -2.428462    0.564961
     28          8           0        5.339459   -1.706060   -0.699422
 ---------------------------------------------------------------------

 SCF Done:  E(RHF) =  -868.336448488     A.U. after   16 cycles
 E2 =    -0.2600326720D+01 EUMP2 =    -0.87093677520873D+03

 The electronic state is 1-A.
 Alpha  occ. eigenvalues --  -20.61220 -20.61210 -20.61109 -20.61101 -15.86279
 Alpha  occ. eigenvalues --  -15.86166 -11.31822 -11.31635 -11.28457 -11.28375
 Alpha  occ. eigenvalues --  -11.28270 -11.28250 -11.28197 -11.28042 -11.27601
 Alpha  occ. eigenvalues --  -11.27426 -11.27340 -11.27239  -1.60288  -1.60180
 Alpha  occ. eigenvalues --   -1.39837  -1.39731  -1.20030  -1.19830  -1.09412
 Alpha  occ. eigenvalues --   -1.09218  -1.05464  -1.05251  -0.96204  -0.96030
 Alpha  occ. eigenvalues --   -0.86898  -0.86637  -0.83030  -0.82861  -0.78053
 Alpha  occ. eigenvalues --   -0.77868  -0.72496  -0.72384  -0.71612  -0.71503
 Alpha  occ. eigenvalues --   -0.71160  -0.70964  -0.65744  -0.65644  -0.65490
 Alpha  occ. eigenvalues --   -0.65132  -0.62862  -0.62529  -0.55999  -0.55793
 Alpha  occ. eigenvalues --   -0.53838  -0.53619  -0.53557  -0.53250  -0.49270
 Alpha  occ. eigenvalues --   -0.49236  -0.49149  -0.49130  -0.45203  -0.45113
 Alpha  occ. eigenvalues --   -0.38056  -0.37831  -0.37087  -0.36796
 Alpha virt. eigenvalues --    0.04500   0.04665   0.10327   0.10875   0.15905
 Alpha virt. eigenvalues --    0.16154   0.18727   0.21952   0.25258   0.26581
 Alpha virt. eigenvalues --    0.27899   0.28608   0.30328   0.30842   0.31742

 Mulliken charges:
               1
     1  C   -0.174717
     2  C   -0.219603
     3  C   -0.169174
     4  C    0.159309
     5  C   -0.168943
     6  C   -0.217639
     7  H    0.224085
     8  H    0.215215
     9  H    0.277065
    10  H    0.278987
    11  H    0.227023
    12  N    0.488118
    13  O   -0.457591
    14  O   -0.459133
    15  C   -0.171996
    16  C   -0.217832
    17  C   -0.170014
    18  C    0.159296
    19  C   -0.170646
    20  C   -0.218523
    21  H    0.222654
    22  H    0.225216
    23  H    0.277532
    24  H    0.275904
    25  H    0.215811
    26  N    0.488121
    27  O   -0.459841
    28  O   -0.458685
 Sum of Mulliken charges =  -0.00000

 Dipole moment (field-independent basis, Debye):
    X=              0.6160    Y=              6.0238    Z=              3.9059  Tot=              7.2057
 Quadrupole moment (field-independent basis, Debye-Ang):
   XX=           -138.1275   YY=           -104.7575   ZZ=           -103.3408
   XY=             15.6103   XZ=            -19.4797   YZ=             -4.6905

 Normal termination of Gaussian 16 at Thu May  6 09:57:45 2021.
