 Gaussian 16, Revision A.03,
 Gaussian 16:  EM64L-G16RevA.03 25-Dec-2016

 -------------
 #p 6-31g* mp2
 -------------

 ------------------------------------------------------
 Input file generated by CHIRIPA (05-May-2021 14:55:20)
 ------------------------------------------------------
 Symbolic Z-matrix:
 Charge =  0 Multiplicity = 1

                         Standard orientation:
 ---------------------------------------------------------------------
 Center     Atomic      Atomic             Coordinates (Angstroms)
 Number     Number       Type             X           Y           Z
 ---------------------------------------------------------------------
      1          6           0        4.579452   -0.321122   -1.509963
      2          6           0        4.812404    0.175456   -0.223237
      3          6           0        3.786701    0.195528    0.726542
      4          6           0        2.534609   -0.290985    0.353903
      5          6           0        2.271313   -0.792071   -0.920019
      6          6           0        3.311884   -0.802452   -1.853642
      7          1           0        5.382018   -0.332950   -2.241499
      8          1           0        5.795813    0.549906    0.046464
      9          1           0        3.939515    0.574374    1.729807
     10          1           0        1.280461   -1.158566   -1.159416
     11          1           0        3.128085   -1.188686   -2.852183
     12          7           0        1.440873   -0.274866    1.350839
     13          8           0        0.346677   -0.709204    0.997677
     14          8           0        1.698508    0.171801    2.466523
     15          6           0       -4.039254   -0.097092   -0.446160
     16          6           0       -3.935530   -1.478544    0.200999
     17          6           0       -5.071375   -2.413390   -0.215795
     18          1           0       -5.004459    0.354461   -0.178909
     19          1           0       -4.039347   -0.210927   -1.539063
     20          1           0       -3.934238   -1.362035    1.292347
     21          1           0       -2.970379   -1.926782   -0.067666
     22          1           0       -5.071811   -2.559167   -1.300852
     23          1           0       -6.041147   -1.991213    0.066889
     24          1           0       -4.977623   -3.395331    0.258400
     25          6           0       -2.910813    0.848815   -0.039206
     26          6           0       -3.014536    2.230267   -0.686365
     27          6           0       -1.878692    3.165112   -0.269572
     28          1           0       -2.910719    0.962650    1.053697
     29          1           0       -1.945607    0.397262   -0.306457
     30          1           0       -3.979688    2.678505   -0.417700
     31          1           0       -3.015828    2.113758   -1.777713
     32          1           0       -0.908919    2.742936   -0.552255
     33          1           0       -1.878256    3.310890    0.815486
     34          1           0       -1.972444    4.147053   -0.743767
 ---------------------------------------------------------------------

 SCF Done:  E(RHF) =  -669.535866727     A.U. after   15 cycles
 E2 =    -0.2091410488D+01 EUMP2 =    -0.67162727721555D+03

 The electronic state is 1-A.
 Alpha  occ. eigenvalues --  -20.60920 -20.60914 -15.85951 -11.31294 -11.27866
 Alpha  occ. eigenvalues --  -11.27851 -11.27595 -11.26871 -11.26859 -11.20804
 Alpha  occ. eigenvalues --  -11.20635 -11.20483 -11.20378 -11.20363 -11.20159
 Alpha  occ. eigenvalues --   -1.59978  -1.39535  -1.19463  -1.08862  -1.07485
 Alpha  occ. eigenvalues --   -1.04863  -1.02701  -0.95703  -0.95152  -0.86263
 Alpha  occ. eigenvalues --   -0.86175  -0.82538  -0.78740  -0.77611  -0.77217
 Alpha  occ. eigenvalues --   -0.72172  -0.71291  -0.70572  -0.65120  -0.64866
 Alpha  occ. eigenvalues --   -0.64128  -0.62212  -0.60116  -0.58519  -0.56747
 Alpha  occ. eigenvalues --   -0.55364  -0.54454  -0.53193  -0.52955  -0.51893
 Alpha  occ. eigenvalues --   -0.51571  -0.49116  -0.48936  -0.48927  -0.47069
 Alpha  occ. eigenvalues --   -0.45792  -0.45176  -0.44759  -0.44447  -0.42911
 Alpha  occ. eigenvalues --   -0.37440  -0.36465
 Alpha virt. eigenvalues --    0.04917   0.11185   0.16387   0.21201   0.23629
 Alpha virt. eigenvalues --    0.25047   0.26671   0.27470   0.27972   0.28584
 Alpha virt. eigenvalues --    0.29087   0.31053   0.32117   0.32398   0.32627

 Mulliken charges:
               1
     1  C   -0.170654
     2  C   -0.218455
     3  C   -0.170751
     4  C    0.158271
     5  C   -0.171109
     6  C   -0.218398
     7  H    0.226024
     8  H    0.223887
     9  H    0.275961
    10  H    0.274873
    11  H    0.223789
    12  N    0.490289
    13  O   -0.461393
    14  O   -0.459004
    15  C   -0.298511
    16  C   -0.298437
    17  C   -0.475389
    18  H    0.145965
    19  H    0.143175
    20  H    0.155729
    21  H    0.156402
    22  H    0.151117
    23  H    0.153120
    24  H    0.158708
    25  C   -0.302124
    26  C   -0.299462
    27  C   -0.473251
    28  H    0.155028
    29  H    0.163757
    30  H    0.149072
    31  H    0.146015
    32  H    0.151452
    33  H    0.158948
    34  H    0.155354
 Sum of Mulliken charges =  -0.00000

 Dipole moment (field-independent basis, Debye):
    X=              4.1102    Y=             -0.1250    Z=             -3.3430  Tot=              5.2995
 Quadrupole moment (field-independent basis, Debye-Ang):
   XX=            -74.8318   YY=            -95.7502   ZZ=            -94.8029
   XY=             -0.5378   XZ=             -6.4695   YZ=              2.8954

 Normal termination of Gaussian 16 at Thu May  6 19:06:42 2021.
