 Gaussian 16, Revision A.03,
 Gaussian 16:  EM64L-G16RevA.03 25-Dec-2016

 -------------
 #p 6-31g* mp2
 -------------

 ------------------------------------------------------
 Input file generated by CHIRIPA (05-May-2021 14:57:25)
 ------------------------------------------------------
 Symbolic Z-matrix:
 Charge =  0 Multiplicity = 1

                         Standard orientation:
 ---------------------------------------------------------------------
 Center     Atomic      Atomic             Coordinates (Angstroms)
 Number     Number       Type             X           Y           Z
 ---------------------------------------------------------------------
      1          6           0        1.082626   -1.963263    0.289458
      2          6           0        2.391596   -2.254540    0.687296
      3          6           0        3.430127   -1.356307    0.424277
      4          6           0        3.122592   -0.170823   -0.241562
      5          6           0        1.828620    0.147915   -0.650623
      6          6           0        0.805803   -0.765078   -0.377057
      7          1           0        0.281974   -2.666765    0.497874
      8          1           0        2.609515   -3.184299    1.205084
      9          1           0        4.452476   -1.556628    0.721077
     10          1           0        1.642310    1.082832   -1.165051
     11          1           0       -0.209818   -0.536230   -0.687197
     12          7           0        4.213720    0.787909   -0.525592
     13          8           0        3.916676    1.825494   -1.113656
     14          8           0        5.345330    0.483625   -0.154771
     15          6           0       -1.471724    1.719787    1.700480
     16          6           0       -2.166473    2.324409    0.647732
     17          6           0       -2.984393    1.563517   -0.192863
     18          6           0       -3.084976    0.194361    0.049183
     19          6           0       -2.405460   -0.437165    1.089722
     20          6           0       -1.593221    0.343357    1.917732
     21          1           0       -0.838550    2.318491    2.348586
     22          1           0       -2.074010    3.393158    0.476644
     23          1           0       -3.533435    2.005893   -1.015222
     24          1           0       -2.517579   -1.504707    1.235330
     25          1           0       -1.054842   -0.128894    2.734538
     26          7           0       -3.947865   -0.621551   -0.834056
     27          8           0       -4.019636   -1.825956   -0.599758
     28          8           0       -4.536086   -0.041210   -1.743911
 ---------------------------------------------------------------------

 SCF Done:  E(RHF) =  -868.336336116     A.U. after   16 cycles
 E2 =    -0.2603521637D+01 EUMP2 =    -0.87093985775370D+03

 The electronic state is 1-A.
 Alpha  occ. eigenvalues --  -20.61687 -20.61661 -20.61055 -20.61047 -15.86733
 Alpha  occ. eigenvalues --  -15.86101 -11.32196 -11.31453 -11.28709 -11.28676
 Alpha  occ. eigenvalues --  -11.28321 -11.27969 -11.27921 -11.27691 -11.27674
 Alpha  occ. eigenvalues --  -11.27663 -11.27041 -11.26872  -1.60757  -1.60129
 Alpha  occ. eigenvalues --   -1.40305  -1.39683  -1.20356  -1.19593  -1.09681
 Alpha  occ. eigenvalues --   -1.09005  -1.05736  -1.04967  -0.96514  -0.95842
 Alpha  occ. eigenvalues --   -0.87090  -0.86384  -0.83324  -0.82664  -0.78396
 Alpha  occ. eigenvalues --   -0.77723  -0.72929  -0.72320  -0.72106  -0.71454
 Alpha  occ. eigenvalues --   -0.71356  -0.70702  -0.65940  -0.65658  -0.65235
 Alpha  occ. eigenvalues --   -0.65013  -0.63045  -0.62360  -0.56118  -0.55524
 Alpha  occ. eigenvalues --   -0.54357  -0.53762  -0.53276  -0.52739  -0.49704
 Alpha  occ. eigenvalues --   -0.49688  -0.49079  -0.49068  -0.45683  -0.45091
 Alpha  occ. eigenvalues --   -0.38422  -0.37961  -0.37167  -0.36196
 Alpha virt. eigenvalues --    0.04040   0.04816   0.10128   0.11158   0.15608
 Alpha virt. eigenvalues --    0.16290   0.20104   0.21533   0.25597   0.27102
 Alpha virt. eigenvalues --    0.27159   0.28797   0.30313   0.30622   0.32157

 Mulliken charges:
               1
     1  C   -0.180037
     2  C   -0.218443
     3  C   -0.173154
     4  C    0.158784
     5  C   -0.176744
     6  C   -0.213252
     7  H    0.224840
     8  H    0.223775
     9  H    0.275513
    10  H    0.274375
    11  H    0.232406
    12  N    0.487847
    13  O   -0.461158
    14  O   -0.459802
    15  C   -0.171770
    16  C   -0.219096
    17  C   -0.174721
    18  C    0.156921
    19  C   -0.189262
    20  C   -0.208049
    21  H    0.232129
    22  H    0.229553
    23  H    0.279285
    24  H    0.272615
    25  H    0.227029
    26  N    0.487635
    27  O   -0.461214
    28  O   -0.456006
 Sum of Mulliken charges =  -0.00000

 Dipole moment (field-independent basis, Debye):
    X=             -0.9618    Y=             -0.2883    Z=              4.1811  Tot=              4.2999
 Quadrupole moment (field-independent basis, Debye-Ang):
   XX=           -146.2996   YY=            -97.5901   ZZ=           -103.5804
   XY=            -22.0939   XZ=             -3.0168   YZ=             -2.3780

 Normal termination of Gaussian 16 at Thu May  6 19:43:05 2021.
