 Gaussian 16, Revision A.03,
 Gaussian 16:  EM64L-G16RevA.03 25-Dec-2016

 -------------
 #p 6-31g* mp2
 -------------

 ------------------------------------------------------
 Input file generated by CHIRIPA (05-May-2021 14:53:17)
 ------------------------------------------------------
 Symbolic Z-matrix:
 Charge =  0 Multiplicity = 1

                         Standard orientation:
 ---------------------------------------------------------------------
 Center     Atomic      Atomic             Coordinates (Angstroms)
 Number     Number       Type             X           Y           Z
 ---------------------------------------------------------------------
      1          6           0       -2.604929   -0.141728    0.068350
      2          6           0       -3.913270   -0.898634   -0.162566
      3          6           0       -4.076835   -2.095904    0.774230
      4          1           0       -1.760824   -0.831993   -0.065686
      5          1           0       -2.566480    0.200124    1.111927
      6          1           0       -3.949864   -1.237763   -1.205767
      7          1           0       -4.754351   -0.206441   -0.028152
      8          1           0       -4.066357   -1.771252    1.819740
      9          1           0       -3.257299   -2.808433    0.635434
     10          1           0       -5.018793   -2.622541    0.591944
     11          6           0       -2.426954    1.057869   -0.860639
     12          6           0       -1.118613    1.814775   -0.629723
     13          6           0       -0.955048    3.012045   -1.566518
     14          1           0       -2.465403    0.716017   -1.904216
     15          1           0       -3.271059    1.748134   -0.726603
     16          1           0       -0.277532    1.122582   -0.764137
     17          1           0       -1.082019    2.153904    0.413478
     18          1           0       -1.774584    3.724574   -1.427723
     19          1           0       -0.965525    2.687393   -2.612029
     20          1           0       -0.013090    3.538682   -1.384233
     21          6           0        1.445293    1.458573    1.981543
     22          6           0        2.412718    1.672266    0.994150
     23          6           0        2.709157    0.672915    0.062501
     24          6           0        2.015879   -0.533475    0.147840
     25          6           0        1.046691   -0.776596    1.119877
     26          6           0        0.766564    0.236978    2.041150
     27          1           0        1.221348    2.240418    2.701240
     28          1           0        2.941404    2.619980    0.945457
     29          1           0        3.453411    0.811688   -0.712254
     30          1           0        0.536279   -1.731770    1.143125
     31          1           0        0.014757    0.068227    2.806889
     32          7           0        2.321071   -1.598971   -0.832964
     33          8           0        1.696269   -2.652983   -0.736427
     34          8           0        3.179303   -1.359921   -1.679679
 ---------------------------------------------------------------------

 SCF Done:  E(RHF) =  -669.533219068     A.U. after   15 cycles
 E2 =    -0.2096642654D+01 EUMP2 =    -0.67162986172237D+03

 The electronic state is 1-A.
 Alpha  occ. eigenvalues --  -20.60849 -20.60844 -15.85902 -11.31248 -11.27843
 Alpha  occ. eigenvalues --  -11.27788 -11.27532 -11.26844 -11.26769 -11.21760
 Alpha  occ. eigenvalues --  -11.21638 -11.21575 -11.21478 -11.21273 -11.21204
 Alpha  occ. eigenvalues --   -1.59927  -1.39480  -1.19447  -1.08839  -1.08584
 Alpha  occ. eigenvalues --   -1.04828  -1.03671  -0.96152  -0.95665  -0.87166
 Alpha  occ. eigenvalues --   -0.86229  -0.82493  -0.79751  -0.78463  -0.77533
 Alpha  occ. eigenvalues --   -0.72118  -0.71258  -0.70540  -0.65264  -0.65077
 Alpha  occ. eigenvalues --   -0.64798  -0.62181  -0.61078  -0.59562  -0.57782
 Alpha  occ. eigenvalues --   -0.55447  -0.55328  -0.53451  -0.52917  -0.52719
 Alpha  occ. eigenvalues --   -0.52540  -0.50089  -0.48877  -0.48874  -0.47988
 Alpha  occ. eigenvalues --   -0.46781  -0.45957  -0.45773  -0.44878  -0.43935
 Alpha  occ. eigenvalues --   -0.37325  -0.36355
 Alpha virt. eigenvalues --    0.04951   0.11090   0.16383   0.20684   0.22977
 Alpha virt. eigenvalues --    0.23810   0.25694   0.26304   0.27688   0.28401
 Alpha virt. eigenvalues --    0.28809   0.30181   0.31227   0.31732   0.31865

 Mulliken charges:
               1
     1  C   -0.300012
     2  C   -0.299306
     3  C   -0.476826
     4  H    0.152231
     5  H    0.140487
     6  H    0.155986
     7  H    0.151529
     8  H    0.150682
     9  H    0.157176
    10  H    0.162558
    11  C   -0.298401
    12  C   -0.300360
    13  C   -0.475313
    14  H    0.152532
    15  H    0.148037
    16  H    0.159528
    17  H    0.144975
    18  H    0.153338
    19  H    0.157644
    20  H    0.155050
    21  C   -0.169579
    22  C   -0.215691
    23  C   -0.173214
    24  C    0.158366
    25  C   -0.172057
    26  C   -0.211365
    27  H    0.225636
    28  H    0.223805
    29  H    0.276014
    30  H    0.275633
    31  H    0.224131
    32  N    0.487925
    33  O   -0.461029
    34  O   -0.460108
 Sum of Mulliken charges =  -0.00000

 Dipole moment (field-independent basis, Debye):
    X=             -0.9957    Y=              3.6880    Z=              3.4429  Tot=              5.1426
 Quadrupole moment (field-independent basis, Debye-Ang):
   XX=            -97.1382   YY=            -98.1922   ZZ=            -93.2450
   XY=             10.3029   XZ=              5.2721   YZ=             -1.5844

 Normal termination of Gaussian 16 at Wed May  5 18:47:52 2021.
