 Gaussian 16, Revision A.03,
 Gaussian 16:  EM64L-G16RevA.03 25-Dec-2016

 -------------
 #p 6-31g* mp2
 -------------

 ------------------------------------------------------
 Input file generated by CHIRIPA (05-May-2021 14:51:08)
 ------------------------------------------------------
 Symbolic Z-matrix:
 Charge =  0 Multiplicity = 1

                         Standard orientation:
 ---------------------------------------------------------------------
 Center     Atomic      Atomic             Coordinates (Angstroms)
 Number     Number       Type             X           Y           Z
 ---------------------------------------------------------------------
      1          6           0        3.293510   -0.034343    0.124194
      2          6           0        3.298305    1.004837   -0.997442
      3          6           0        4.539728    1.897019   -0.971416
      4          1           0        3.356564    0.480487    1.092657
      5          1           0        4.195290   -0.656754    0.041779
      6          1           0        2.396093    1.624214   -0.913761
      7          1           0        3.235039    0.487483   -1.963339
      8          1           0        5.448484    1.295844   -1.077963
      9          1           0        4.604771    2.439033   -0.022421
     10          1           0        4.522577    2.632534   -1.781714
     11          6           0        2.058798   -0.933815    0.111428
     12          6           0        2.054002   -1.972995    1.233064
     13          6           0        0.812580   -2.865176    1.207039
     14          1           0        1.157018   -0.311403    0.193844
     15          1           0        1.995743   -1.448644   -0.857034
     16          1           0        2.117268   -1.455641    2.198962
     17          1           0        2.956214   -2.592371    1.149384
     18          1           0        0.747537   -3.407191    0.258044
     19          1           0       -0.096176   -2.264002    1.313585
     20          1           0        0.829730   -3.600692    2.017337
     21          6           0       -2.994422   -0.001269   -0.614375
     22          6           0       -2.579790   -1.455976   -0.391006
     23          6           0       -3.224689   -2.414884   -1.392201
     24          1           0       -4.088174    0.076195   -0.546181
     25          1           0       -2.723048    0.297246   -1.636450
     26          1           0       -2.850616   -1.751231    0.630803
     27          1           0       -1.486883   -1.529953   -0.459549
     28          1           0       -2.944723   -2.148049   -2.416417
     29          1           0       -4.316205   -2.370584   -1.319870
     30          1           0       -2.914600   -3.449319   -1.214296
     31          6           0       -2.357886    0.969427    0.378752
     32          6           0       -2.772517    2.424133    0.155383
     33          6           0       -2.127619    3.383042    1.156578
     34          1           0       -2.629261    0.670911    1.400828
     35          1           0       -1.264135    0.891962    0.310558
     36          1           0       -3.865425    2.498110    0.223926
     37          1           0       -2.501692    2.719389   -0.866426
     38          1           0       -1.036103    3.338742    1.084247
     39          1           0       -2.407584    3.116206    2.180794
     40          1           0       -2.437708    4.417477    0.978673
 ---------------------------------------------------------------------

 SCF Done:  E(RHF) =  -470.732762413     A.U. after   11 cycles
 E2 =    -0.1584046649D+01 EUMP2 =    -0.47231680906225D+03

 The electronic state is 1-A.
 Alpha  occ. eigenvalues --  -11.21648 -11.21635 -11.21596 -11.21519 -11.21447
 Alpha  occ. eigenvalues --  -11.21433 -11.21387 -11.21349 -11.21112 -11.21102
 Alpha  occ. eigenvalues --  -11.21031 -11.20979  -1.08480  -1.08423  -1.03571
 Alpha  occ. eigenvalues --   -1.03501  -0.96011  -0.95962  -0.87039  -0.86970
 Alpha  occ. eigenvalues --   -0.79726  -0.79501  -0.78411  -0.78127  -0.65188
 Alpha  occ. eigenvalues --   -0.64979  -0.60980  -0.60898  -0.59431  -0.59294
 Alpha  occ. eigenvalues --   -0.57720  -0.57484  -0.55328  -0.55226  -0.52685
 Alpha  occ. eigenvalues --   -0.52674  -0.52487  -0.52342  -0.49998  -0.49876
 Alpha  occ. eigenvalues --   -0.48194  -0.47700  -0.46730  -0.46592  -0.46235
 Alpha  occ. eigenvalues --   -0.45767  -0.45737  -0.45122  -0.43803  -0.43778
 Alpha virt. eigenvalues --    0.20388   0.23162   0.23559   0.24351   0.25347
 Alpha virt. eigenvalues --    0.26330   0.26897   0.27501   0.28306   0.30169
 Alpha virt. eigenvalues --    0.30667   0.31355   0.31583   0.31847   0.31941

 Mulliken charges:
               1
     1  C   -0.298026
     2  C   -0.299557
     3  C   -0.475734
     4  H    0.149904
     5  H    0.149960
     6  H    0.150991
     7  H    0.151983
     8  H    0.155374
     9  H    0.155360
    10  H    0.160341
    11  C   -0.305466
    12  C   -0.299043
    13  C   -0.481361
    14  H    0.154824
    15  H    0.149442
    16  H    0.151904
    17  H    0.151750
    18  H    0.154219
    19  H    0.163237
    20  H    0.159697
    21  C   -0.297346
    22  C   -0.306753
    23  C   -0.475575
    24  H    0.149490
    25  H    0.149480
    26  H    0.151243
    27  H    0.161024
    28  H    0.154848
    29  H    0.154833
    30  H    0.160645
    31  C   -0.304272
    32  C   -0.299343
    33  C   -0.475624
    34  H    0.149344
    35  H    0.153413
    36  H    0.152357
    37  H    0.152171
    38  H    0.154484
    39  H    0.155249
    40  H    0.160535
 Sum of Mulliken charges =  -0.00000

 Dipole moment (field-independent basis, Debye):
    X=             -0.0011    Y=             -0.0038    Z=              0.0014  Tot=              0.0042
 Quadrupole moment (field-independent basis, Debye-Ang):
   XX=            -84.7835   YY=            -85.5553   ZZ=            -84.4475
   XY=             -1.1228   XZ=             -0.9905   YZ=             -0.1153

 Normal termination of Gaussian 16 at Thu May  6 03:40:22 2021.
