 Gaussian 16, Revision A.03,
 Gaussian 16:  EM64L-G16RevA.03 25-Dec-2016

 -------------
 #p 6-31g* mp2
 -------------

 ------------------------------------------------------
 Input file generated by CHIRIPA (05-May-2021 14:57:22)
 ------------------------------------------------------
 Symbolic Z-matrix:
 Charge =  0 Multiplicity = 1

                         Standard orientation:
 ---------------------------------------------------------------------
 Center     Atomic      Atomic             Coordinates (Angstroms)
 Number     Number       Type             X           Y           Z
 ---------------------------------------------------------------------
      1          6           0       -5.730991    1.702918   -0.026001
      2          6           0       -6.047556    0.395052    0.355829
      3          6           0       -5.060801   -0.594933    0.383948
      4          6           0       -3.761971   -0.240509    0.022404
      5          6           0       -3.415273    1.053672   -0.362547
      6          6           0       -4.418174    2.027481   -0.383341
      7          1           0       -6.503797    2.465679   -0.045000
      8          1           0       -7.066259    0.140120    0.633854
      9          1           0       -5.278260   -1.615273    0.675557
     10          1           0       -2.390850    1.277537   -0.634319
     11          1           0       -4.169431    3.042366   -0.680294
     12          7           0       -2.708791   -1.279999    0.048294
     13          8           0       -1.572058   -0.942200   -0.274766
     14          8           0       -3.039982   -2.412869    0.391158
     15          6           0        6.328399    0.804463    0.297388
     16          6           0        6.037799   -0.537637    0.031225
     17          6           0        4.715655   -0.956319   -0.145372
     18          6           0        3.704215   -0.001896   -0.048641
     19          6           0        3.961717    1.342448    0.215415
     20          6           0        5.291259    1.738574    0.388472
     21          1           0        7.358346    1.120944    0.433198
     22          1           0        6.841232   -1.265276   -0.040066
     23          1           0        4.462419   -1.988995   -0.352422
     24          1           0        3.139483    2.044653    0.280652
     25          1           0        5.513980    2.781530    0.595073
     26          7           0        2.300605   -0.433196   -0.233722
     27          8           0        1.427536    0.427189   -0.143580
     28          8           0        2.100100   -1.623469   -0.465427
 ---------------------------------------------------------------------

 SCF Done:  E(RHF) =  -868.334708396     A.U. after   16 cycles
 E2 =    -0.2600677464D+01 EUMP2 =    -0.87093538585985D+03

 The electronic state is 1-A.
 Alpha  occ. eigenvalues --  -20.59806 -20.59772 -20.59357 -20.59213 -15.84874
 Alpha  occ. eigenvalues --  -15.84335 -11.30608 -11.30148 -11.27244 -11.27198
 Alpha  occ. eigenvalues --  -11.27028 -11.26813 -11.26718 -11.26640 -11.26331
 Alpha  occ. eigenvalues --  -11.26299 -11.25922 -11.25888  -1.58843  -1.58377
 Alpha  occ. eigenvalues --   -1.38401  -1.37907  -1.18812  -1.18378  -1.08133
 Alpha  occ. eigenvalues --   -1.07700  -1.04272  -1.03842  -0.94907  -0.94446
 Alpha  occ. eigenvalues --   -0.85653  -0.85219  -0.81748  -0.81265  -0.76730
 Alpha  occ. eigenvalues --   -0.76233  -0.71087  -0.70501  -0.70210  -0.69920
 Alpha  occ. eigenvalues --   -0.69736  -0.69481  -0.64459  -0.64279  -0.64008
 Alpha  occ. eigenvalues --   -0.63855  -0.61619  -0.61173  -0.54757  -0.54350
 Alpha  occ. eigenvalues --   -0.52580  -0.52371  -0.52159  -0.51938  -0.47862
 Alpha  occ. eigenvalues --   -0.47792  -0.47285  -0.47245  -0.43744  -0.43210
 Alpha  occ. eigenvalues --   -0.36814  -0.36400  -0.35894  -0.35469
 Alpha virt. eigenvalues --    0.05811   0.06293   0.11755   0.12178   0.17241
 Alpha virt. eigenvalues --    0.17697   0.21838   0.22248   0.27721   0.28123
 Alpha virt. eigenvalues --    0.28750   0.29210   0.31357   0.31753   0.32997

 Mulliken charges:
               1
     1  C   -0.172322
     2  C   -0.218942
     3  C   -0.172053
     4  C    0.157994
     5  C   -0.172795
     6  C   -0.219214
     7  H    0.221535
     8  H    0.219784
     9  H    0.273752
    10  H    0.283996
    11  H    0.220094
    12  N    0.485385
    13  O   -0.439353
    14  O   -0.468945
    15  C   -0.172051
    16  C   -0.218426
    17  C   -0.171349
    18  C    0.159500
    19  C   -0.171735
    20  C   -0.218382
    21  H    0.223361
    22  H    0.222064
    23  H    0.276631
    24  H    0.272570
    25  H    0.220693
    26  N    0.487247
    27  O   -0.458475
    28  O   -0.450563
 Sum of Mulliken charges =  -0.00000

 Dipole moment (field-independent basis, Debye):
    X=              1.4646    Y=              5.0324    Z=              0.4783  Tot=              5.2630
 Quadrupole moment (field-independent basis, Debye-Ang):
   XX=            -41.8872   YY=           -100.7484   ZZ=           -106.0762
   XY=             -6.7343   XZ=              1.0755   YZ=             -0.2703

 Normal termination of Gaussian 16 at Thu May  6 08:07:41 2021.
