 Gaussian 16, Revision A.03,
 Gaussian 16:  EM64L-G16RevA.03 25-Dec-2016

 -------------
 #p 6-31g* mp2
 -------------

 ------------------------------------------------------
 Input file generated by CHIRIPA (05-May-2021 14:57:25)
 ------------------------------------------------------
 Symbolic Z-matrix:
 Charge =  0 Multiplicity = 1

                         Standard orientation:
 ---------------------------------------------------------------------
 Center     Atomic      Atomic             Coordinates (Angstroms)
 Number     Number       Type             X           Y           Z
 ---------------------------------------------------------------------
      1          6           0       -2.659836    2.272892   -0.211096
      2          6           0       -3.964615    2.007366   -0.639545
      3          6           0       -4.484800    0.711542   -0.570295
      4          6           0       -3.668831   -0.299431   -0.064906
      5          6           0       -2.364957   -0.066541    0.369793
      6          6           0       -1.865571    1.236917    0.291320
      7          1           0       -2.263823    3.282484   -0.268473
      8          1           0       -4.583729    2.809957   -1.030173
      9          1           0       -5.491483    0.478044   -0.895082
     10          1           0       -1.771790   -0.887259    0.754493
     11          1           0       -0.851903    1.440200    0.624782
     12          7           0       -4.208518   -1.675303    0.013288
     13          8           0       -3.469389   -2.548533    0.462504
     14          8           0       -5.360435   -1.854430   -0.376120
     15          6           0        2.011815    1.838081    0.966843
     16          6           0        2.241410    0.670963    1.702806
     17          6           0        3.108218   -0.313937    1.219933
     18          6           0        3.731479   -0.098003   -0.008157
     19          6           0        3.523187    1.054137   -0.764781
     20          6           0        2.652308    2.025613   -0.262435
     21          1           0        1.336876    2.597960    1.349513
     22          1           0        1.745371    0.522632    2.657786
     23          1           0        3.304014   -1.226913    1.769075
     24          1           0        4.032161    1.173648   -1.713506
     25          1           0        2.475894    2.931024   -0.836154
     26          7           0        4.651286   -1.133566   -0.529660
     27          8           0        5.188140   -0.919391   -1.614351
     28          8           0        4.817958   -2.139807    0.156151
 ---------------------------------------------------------------------

 SCF Done:  E(RHF) =  -868.336514888     A.U. after   16 cycles
 E2 =    -0.2600843994D+01 EUMP2 =    -0.87093735888206D+03

 The electronic state is 1-A.
 Alpha  occ. eigenvalues --  -20.61282 -20.61275 -20.61066 -20.61061 -15.86341
 Alpha  occ. eigenvalues --  -15.86123 -11.31952 -11.31591 -11.28513 -11.28508
 Alpha  occ. eigenvalues --  -11.28425 -11.28179 -11.28156 -11.27988 -11.27660
 Alpha  occ. eigenvalues --  -11.27647 -11.27219 -11.27208  -1.60350  -1.60139
 Alpha  occ. eigenvalues --   -1.39896  -1.39690  -1.20158  -1.19779  -1.09547
 Alpha  occ. eigenvalues --   -1.09168  -1.05573  -1.05196  -0.96329  -0.95983
 Alpha  occ. eigenvalues --   -0.86977  -0.86607  -0.83139  -0.82806  -0.78111
 Alpha  occ. eigenvalues --   -0.77835  -0.72556  -0.72340  -0.71673  -0.71463
 Alpha  occ. eigenvalues --   -0.71343  -0.70919  -0.65815  -0.65596  -0.65438
 Alpha  occ. eigenvalues --   -0.65211  -0.62893  -0.62554  -0.56190  -0.55732
 Alpha  occ. eigenvalues --   -0.53990  -0.53664  -0.53522  -0.53194  -0.49335
 Alpha  occ. eigenvalues --   -0.49294  -0.49107  -0.49088  -0.45246  -0.45072
 Alpha  occ. eigenvalues --   -0.38200  -0.37784  -0.37166  -0.36791
 Alpha virt. eigenvalues --    0.04337   0.04707   0.10406   0.10856   0.15612
 Alpha virt. eigenvalues --    0.16165   0.19469   0.21811   0.25868   0.26442
 Alpha virt. eigenvalues --    0.27730   0.28824   0.30037   0.31033   0.31993

 Mulliken charges:
               1
     1  C   -0.173204
     2  C   -0.217938
     3  C   -0.170661
     4  C    0.159510
     5  C   -0.173064
     6  C   -0.221672
     7  H    0.221434
     8  H    0.224273
     9  H    0.277040
    10  H    0.276345
    11  H    0.222447
    12  N    0.488013
    13  O   -0.459223
    14  O   -0.459196
    15  C   -0.179707
    16  C   -0.221507
    17  C   -0.169429
    18  C    0.160705
    19  C   -0.169693
    20  C   -0.217489
    21  H    0.220996
    22  H    0.226280
    23  H    0.279914
    24  H    0.278667
    25  H    0.224220
    26  N    0.487891
    27  O   -0.458026
    28  O   -0.456926
 Sum of Mulliken charges =  -0.00000

 Dipole moment (field-independent basis, Debye):
    X=             -1.1234    Y=              8.2987    Z=              1.4780  Tot=              8.5039
 Quadrupole moment (field-independent basis, Debye-Ang):
   XX=           -138.4640   YY=           -107.5723   ZZ=           -101.6822
   XY=             -5.6093   XZ=              8.9559   YZ=             -4.0044

 Normal termination of Gaussian 16 at Thu May  6 08:19:14 2021.
