 Gaussian 16, Revision A.03,
 Gaussian 16:  EM64L-G16RevA.03 25-Dec-2016

 -------------
 #p 6-31g* mp2
 -------------

 ------------------------------------------------------
 Input file generated by CHIRIPA (05-May-2021 14:55:24)
 ------------------------------------------------------
 Symbolic Z-matrix:
 Charge =  0 Multiplicity = 1

                         Standard orientation:
 ---------------------------------------------------------------------
 Center     Atomic      Atomic             Coordinates (Angstroms)
 Number     Number       Type             X           Y           Z
 ---------------------------------------------------------------------
      1          6           0        1.446460    2.111138    0.558982
      2          6           0        2.606495    2.153710   -0.221421
      3          6           0        3.336330    0.988063   -0.472731
      4          6           0        2.875329   -0.208319    0.074477
      5          6           0        1.723389   -0.283114    0.855970
      6          6           0        1.009380    0.895005    1.094243
      7          1           0        0.885654    3.021485    0.749141
      8          1           0        2.948298    3.096761   -0.638398
      9          1           0        4.237771    0.992452   -1.073399
     10          1           0        1.407541   -1.238086    1.258074
     11          1           0        0.108837    0.858948    1.700680
     12          7           0        3.639595   -1.448939   -0.184672
     13          8           0        3.212448   -2.490382    0.308866
     14          8           0        4.651302   -1.356404   -0.876426
     15          6           0       -3.374608    0.639511   -0.549791
     16          6           0       -2.941562    1.819359    0.321079
     17          6           0       -2.655903    3.081606   -0.493123
     18          1           0       -2.589785    0.430556   -1.289613
     19          1           0       -4.272112    0.921735   -1.117445
     20          1           0       -2.045947    1.534522    0.887962
     21          1           0       -3.727423    2.025408    1.059038
     22          1           0       -3.547648    3.392989   -1.046687
     23          1           0       -1.856618    2.899314   -1.218735
     24          1           0       -2.347970    3.912545    0.149199
     25          6           0       -3.663775   -0.629655    0.249789
     26          6           0       -4.096821   -1.809504   -0.621081
     27          6           0       -4.382480   -3.071750    0.193122
     28          1           0       -2.766271   -0.911878    0.817443
     29          1           0       -4.448598   -0.420700    0.989611
     30          1           0       -3.310960   -2.015551   -1.359039
     31          1           0       -4.992437   -1.524666   -1.187963
     32          1           0       -5.181766   -2.889457    0.918733
     33          1           0       -3.490735   -3.383133    0.746685
     34          1           0       -4.690413   -3.902689   -0.449201
 ---------------------------------------------------------------------

 SCF Done:  E(RHF) =  -669.535482520     A.U. after   15 cycles
 E2 =    -0.2091864136D+01 EUMP2 =    -0.67162734665598D+03

 The electronic state is 1-A.
 Alpha  occ. eigenvalues --  -20.60791 -20.60786 -15.85845 -11.31219 -11.27791
 Alpha  occ. eigenvalues --  -11.27787 -11.27521 -11.26797 -11.26785 -11.22512
 Alpha  occ. eigenvalues --  -11.22029 -11.21981 -11.21977 -11.21922 -11.21340
 Alpha  occ. eigenvalues --   -1.59867  -1.39420  -1.19393  -1.09056  -1.08780
 Alpha  occ. eigenvalues --   -1.04799  -1.04144  -0.96580  -0.95614  -0.87600
 Alpha  occ. eigenvalues --   -0.86197  -0.82448  -0.80234  -0.78846  -0.77497
 Alpha  occ. eigenvalues --   -0.72063  -0.71190  -0.70489  -0.65747  -0.65041
 Alpha  occ. eigenvalues --   -0.64778  -0.62185  -0.61493  -0.59979  -0.58186
 Alpha  occ. eigenvalues --   -0.55864  -0.55278  -0.53294  -0.53121  -0.53017
 Alpha  occ. eigenvalues --   -0.52885  -0.50515  -0.48835  -0.48817  -0.48521
 Alpha  occ. eigenvalues --   -0.47251  -0.46382  -0.46284  -0.44823  -0.44394
 Alpha  occ. eigenvalues --   -0.37360  -0.36395
 Alpha virt. eigenvalues --    0.05029   0.11140   0.16479   0.19439   0.22857
 Alpha virt. eigenvalues --    0.23641   0.24727   0.26421   0.26734   0.28768
 Alpha virt. eigenvalues --    0.29079   0.30293   0.31143   0.31323   0.32051

 Mulliken charges:
               1
     1  C   -0.171944
     2  C   -0.218975
     3  C   -0.170854
     4  C    0.158562
     5  C   -0.171953
     6  C   -0.220794
     7  H    0.227977
     8  H    0.223761
     9  H    0.275749
    10  H    0.275538
    11  H    0.227033
    12  N    0.488037
    13  O   -0.460430
    14  O   -0.460294
    15  C   -0.299045
    16  C   -0.301676
    17  C   -0.478281
    18  H    0.153185
    19  H    0.152308
    20  H    0.142713
    21  H    0.154670
    22  H    0.160401
    23  H    0.156926
    24  H    0.155509
    25  C   -0.297455
    26  C   -0.300595
    27  C   -0.476105
    28  H    0.144115
    29  H    0.150524
    30  H    0.154623
    31  H    0.153004
    32  H    0.155041
    33  H    0.155893
    34  H    0.162831
 Sum of Mulliken charges =  -0.00000

 Dipole moment (field-independent basis, Debye):
    X=             -2.8094    Y=              4.3283    Z=              0.8122  Tot=              5.2236
 Quadrupole moment (field-independent basis, Debye-Ang):
   XX=           -107.0146   YY=            -96.4854   ZZ=            -93.9493
   XY=             14.8413   XZ=              0.6263   YZ=             -1.1049

 Normal termination of Gaussian 16 at Thu May  6 19:21:34 2021.
