 Gaussian 16, Revision A.03,
 Gaussian 16:  EM64L-G16RevA.03 25-Dec-2016

 -------------
 #p 6-31g* mp2
 -------------

 ------------------------------------------------------
 Input file generated by CHIRIPA (05-May-2021 14:51:08)
 ------------------------------------------------------
 Symbolic Z-matrix:
 Charge =  0 Multiplicity = 1

                         Standard orientation:
 ---------------------------------------------------------------------
 Center     Atomic      Atomic             Coordinates (Angstroms)
 Number     Number       Type             X           Y           Z
 ---------------------------------------------------------------------
      1          6           0       -2.760167   -0.159610    0.056552
      2          6           0       -3.848934    0.146113   -0.972576
      3          6           0       -4.374629    1.578166   -0.869311
      4          1           0       -3.158867    0.014288    1.065384
      5          1           0       -1.929744    0.547369   -0.077508
      6          1           0       -4.676453   -0.562115   -0.837515
      7          1           0       -3.447655   -0.028718   -1.979067
      8          1           0       -3.564730    2.298054   -1.025600
      9          1           0       -4.800510    1.761626    0.122439
     10          1           0       -5.152034    1.775133   -1.614097
     11          6           0       -2.224604   -1.587434   -0.034114
     12          6           0       -1.135836   -1.893157    0.995013
     13          6           0       -0.610142   -3.325210    0.891749
     14          1           0       -3.055027   -2.294414    0.099946
     15          1           0       -1.825904   -1.761332   -1.042946
     16          1           0       -1.537116   -1.718327    2.001505
     17          1           0       -0.308318   -1.184929    0.859952
     18          1           0       -0.184261   -3.508670   -0.100002
     19          1           0       -1.420040   -4.045099    1.048037
     20          1           0        0.167263   -3.522177    1.636534
     21          6           0        2.303705    1.613621   -0.002044
     22          6           0        1.083052    1.917457    0.867253
     23          6           0        0.717978    3.402195    0.875481
     24          1           0        3.158815    2.200935    0.359612
     25          1           0        2.106140    1.949283   -1.029513
     26          1           0        1.282330    1.580067    1.892471
     27          1           0        0.230797    1.329208    0.503605
     28          1           0        0.492780    3.749157   -0.138178
     29          1           0        1.550287    4.001442    1.258580
     30          1           0       -0.157321    3.596924    1.503012
     31          6           0        2.681066    0.133423   -0.020394
     32          6           0        3.901718   -0.170413   -0.889690
     33          6           0        4.266793   -1.655151   -0.897919
     34          1           0        2.878630   -0.202239    1.007076
     35          1           0        1.825956   -0.453891   -0.382049
     36          1           0        4.753973    0.417836   -0.526042
     37          1           0        3.702440    0.166977   -1.914908
     38          1           0        3.434483   -2.254397   -1.281017
     39          1           0        4.491990   -2.002113    0.115740
     40          1           0        5.142092   -1.849879   -1.525449
 ---------------------------------------------------------------------

 SCF Done:  E(RHF) =  -470.732750192     A.U. after   11 cycles
 E2 =    -0.1584439332D+01 EUMP2 =    -0.47231718952449D+03

 The electronic state is 1-A.
 Alpha  occ. eigenvalues --  -11.21640 -11.21614 -11.21606 -11.21524 -11.21451
 Alpha  occ. eigenvalues --  -11.21406 -11.21391 -11.21346 -11.21095 -11.21094
 Alpha  occ. eigenvalues --  -11.21079 -11.21040  -1.08498  -1.08411  -1.03563
 Alpha  occ. eigenvalues --   -1.03516  -0.96017  -0.95968  -0.87028  -0.86986
 Alpha  occ. eigenvalues --   -0.79640  -0.79586  -0.78455  -0.78089  -0.65312
 Alpha  occ. eigenvalues --   -0.64886  -0.60991  -0.60902  -0.59385  -0.59334
 Alpha  occ. eigenvalues --   -0.57676  -0.57530  -0.55346  -0.55223  -0.52715
 Alpha  occ. eigenvalues --   -0.52652  -0.52434  -0.52396  -0.50015  -0.49864
 Alpha  occ. eigenvalues --   -0.47986  -0.47915  -0.46860  -0.46715  -0.46203
 Alpha  occ. eigenvalues --   -0.45778  -0.45751  -0.44936  -0.43816  -0.43765
 Alpha virt. eigenvalues --    0.20506   0.22914   0.23649   0.24160   0.25779
 Alpha virt. eigenvalues --    0.26677   0.27103   0.27504   0.27774   0.29602
 Alpha virt. eigenvalues --    0.31489   0.31623   0.31714   0.31953   0.32125

 Mulliken charges:
               1
     1  C   -0.306118
     2  C   -0.298973
     3  C   -0.475765
     4  H    0.149871
     5  H    0.156361
     6  H    0.152131
     7  H    0.151554
     8  H    0.155203
     9  H    0.155272
    10  H    0.160282
    11  C   -0.297814
    12  C   -0.309080
    13  C   -0.475053
    14  H    0.149671
    15  H    0.148409
    16  H    0.151670
    17  H    0.161912
    18  H    0.154244
    19  H    0.154987
    20  H    0.160557
    21  C   -0.297613
    22  C   -0.310833
    23  C   -0.475372
    24  H    0.149937
    25  H    0.148905
    26  H    0.152449
    27  H    0.161927
    28  H    0.154496
    29  H    0.155444
    30  H    0.160973
    31  C   -0.302014
    32  C   -0.299554
    33  C   -0.475624
    34  H    0.149925
    35  H    0.152654
    36  H    0.152239
    37  H    0.151805
    38  H    0.155154
    39  H    0.155416
    40  H    0.160367
 Sum of Mulliken charges =  -0.00000

 Dipole moment (field-independent basis, Debye):
    X=              0.0210    Y=              0.0171    Z=              0.0188  Tot=              0.0329
 Quadrupole moment (field-independent basis, Debye-Ang):
   XX=            -84.2570   YY=            -86.8211   ZZ=            -83.6862
   XY=              1.1515   XZ=              0.0355   YZ=             -0.1364

 Normal termination of Gaussian 16 at Wed May  5 15:04:48 2021.
