 Gaussian 16, Revision A.03,
 Gaussian 16:  EM64L-G16RevA.03 25-Dec-2016

 -------------
 #p 6-31g* mp2
 -------------

 ------------------------------------------------------
 Input file generated by CHIRIPA (05-May-2021 14:53:14)
 ------------------------------------------------------
 Symbolic Z-matrix:
 Charge =  0 Multiplicity = 1

                         Standard orientation:
 ---------------------------------------------------------------------
 Center     Atomic      Atomic             Coordinates (Angstroms)
 Number     Number       Type             X           Y           Z
 ---------------------------------------------------------------------
      1          6           0       -3.607595   -0.422159    0.312338
      2          6           0       -4.341308   -1.603967   -0.322470
      3          6           0       -3.923258   -2.948507    0.273552
      4          1           0       -2.525039   -0.560171    0.185965
      5          1           0       -3.798161   -0.419715    1.394499
      6          1           0       -4.150539   -1.603375   -1.403314
      7          1           0       -5.422251   -1.463031   -0.194740
      8          1           0       -4.129331   -2.974156    1.348483
      9          1           0       -2.850393   -3.115297    0.133043
     10          1           0       -4.459969   -3.779494   -0.194701
     11          6           0       -4.014786    0.928873   -0.273012
     12          6           0       -3.281073    2.110681    0.361796
     13          6           0       -3.699123    3.455220   -0.234226
     14          1           0       -3.824220    0.926429   -1.355173
     15          1           0       -5.097342    1.066885   -0.146639
     16          1           0       -2.200130    1.969745    0.234066
     17          1           0       -3.471843    2.110089    1.442640
     18          1           0       -4.771988    3.622011   -0.093717
     19          1           0       -3.493050    3.480869   -1.309157
     20          1           0       -3.162412    4.286208    0.234027
     21          6           0        0.981693   -1.739474   -0.095147
     22          6           0        2.276077   -2.266674   -0.151268
     23          6           0        3.389259   -1.421993   -0.107836
     24          6           0        3.170439   -0.048905   -0.007648
     25          6           0        1.893237    0.506698    0.050229
     26          6           0        0.794733   -0.356907    0.005245
     27          1           0        0.122647   -2.402992   -0.129488
     28          1           0        2.424282   -3.339986   -0.229249
     29          1           0        4.402292   -1.803363   -0.149551
     30          1           0        1.777219    1.580914    0.127803
     31          1           0       -0.209353    0.055330    0.049011
     32          7           0        4.341146    0.855339    0.039152
     33          8           0        4.121584    2.061412    0.127552
     34          8           0        5.456140    0.340888   -0.013451
 ---------------------------------------------------------------------

 SCF Done:  E(RHF) =  -669.535327466     A.U. after   15 cycles
 E2 =    -0.2091926718D+01 EUMP2 =    -0.67162725418423D+03

 The electronic state is 1-A.
 Alpha  occ. eigenvalues --  -20.60732 -20.60727 -15.85785 -11.31146 -11.27715
 Alpha  occ. eigenvalues --  -11.27708 -11.27459 -11.26733 -11.26698 -11.22596
 Alpha  occ. eigenvalues --  -11.22522 -11.22516 -11.22287 -11.22125 -11.21719
 Alpha  occ. eigenvalues --   -1.59807  -1.39361  -1.19317  -1.09423  -1.08714
 Alpha  occ. eigenvalues --   -1.04721  -1.04449  -0.96894  -0.95550  -0.87904
 Alpha  occ. eigenvalues --   -0.86125  -0.82384  -0.80518  -0.79253  -0.77429
 Alpha  occ. eigenvalues --   -0.72004  -0.71130  -0.70433  -0.66125  -0.64970
 Alpha  occ. eigenvalues --   -0.64692  -0.62074  -0.61848  -0.60258  -0.58502
 Alpha  occ. eigenvalues --   -0.56206  -0.55216  -0.53556  -0.53317  -0.53050
 Alpha  occ. eigenvalues --   -0.52823  -0.50837  -0.48831  -0.48767  -0.48758
 Alpha  occ. eigenvalues --   -0.47570  -0.46764  -0.46669  -0.44767  -0.44718
 Alpha  occ. eigenvalues --   -0.37300  -0.36323
 Alpha virt. eigenvalues --    0.05105   0.11328   0.16599   0.17851   0.21591
 Alpha virt. eigenvalues --    0.22975   0.24715   0.25554   0.26298   0.27744
 Alpha virt. eigenvalues --    0.29371   0.30843   0.31025   0.31345   0.32027

 Mulliken charges:
               1
     1  C   -0.302247
     2  C   -0.300531
     3  C   -0.475689
     4  H    0.139933
     5  H    0.153934
     6  H    0.153568
     7  H    0.156825
     8  H    0.158795
     9  H    0.146203
    10  H    0.164700
    11  C   -0.299307
    12  C   -0.301735
    13  C   -0.476454
    14  H    0.151194
    15  H    0.154222
    16  H    0.144683
    17  H    0.155347
    18  H    0.157850
    19  H    0.156920
    20  H    0.163750
    21  C   -0.175610
    22  C   -0.218834
    23  C   -0.171190
    24  C    0.158971
    25  C   -0.172444
    26  C   -0.228795
    27  H    0.227793
    28  H    0.223504
    29  H    0.275462
    30  H    0.275646
    31  H    0.236650
    32  N    0.487912
    33  O   -0.460443
    34  O   -0.460580
 Sum of Mulliken charges =  -0.00000

 Dipole moment (field-independent basis, Debye):
    X=             -4.4315    Y=             -3.1218    Z=             -0.1546  Tot=              5.4229
 Quadrupole moment (field-independent basis, Debye-Ang):
   XX=           -117.4884   YY=            -92.2132   ZZ=            -95.1994
   XY=            -12.7466   XZ=             -1.3583   YZ=              0.7230

 Normal termination of Gaussian 16 at Thu May  6 07:24:35 2021.
