 Gaussian 16, Revision A.03,
 Gaussian 16:  EM64L-G16RevA.03 25-Dec-2016

 -------------
 #p 6-31g* mp2
 -------------

 ------------------------------------------------------
 Input file generated by CHIRIPA (05-May-2021 14:51:12)
 ------------------------------------------------------
 Symbolic Z-matrix:
 Charge =  0 Multiplicity = 1

                         Standard orientation:
 ---------------------------------------------------------------------
 Center     Atomic      Atomic             Coordinates (Angstroms)
 Number     Number       Type             X           Y           Z
 ---------------------------------------------------------------------
      1          6           0        2.513486   -0.355385   -0.911833
      2          6           0        3.154000   -1.550711   -0.205487
      3          6           0        3.171601   -2.809892   -1.072635
      4          1           0        1.486723   -0.616463   -1.202593
      5          1           0        3.060137   -0.152689   -1.843220
      6          1           0        2.607156   -1.750227    0.724981
      7          1           0        4.179293   -1.286691    0.083795
      8          1           0        3.734373   -2.634476   -1.995195
      9          1           0        2.153304   -3.100645   -1.350366
     10          1           0        3.633785   -3.652057   -0.548226
     11          6           0        2.488490    0.910913   -0.057672
     12          6           0        1.847976    2.106238   -0.764019
     13          6           0        1.830375    3.365420    0.103129
     14          1           0        1.941839    0.708216    0.873715
     15          1           0        3.515253    1.171991    0.233087
     16          1           0        0.822683    1.842219   -1.053300
     17          1           0        2.394821    2.305754   -1.694487
     18          1           0        2.848672    3.656172    0.380860
     19          1           0        1.267603    3.190003    1.025690
     20          1           0        1.368191    4.207585   -0.421279
     21          6           0       -2.132730   -0.698637    1.005026
     22          6           0       -1.136316    0.105682    1.840619
     23          6           0       -0.407482   -0.750135    2.877042
     24          1           0       -2.865582   -1.170504    1.673767
     25          1           0       -1.600443   -1.515586    0.498410
     26          1           0       -1.670084    0.921708    2.344415
     27          1           0       -0.405865    0.575845    1.169796
     28          1           0        0.150011   -1.555632    2.388189
     29          1           0       -1.121391   -1.207805    3.569482
     30          1           0        0.299867   -0.155175    3.463164
     31          6           0       -2.869246    0.143109   -0.035521
     32          6           0       -3.865660   -0.661209   -0.871114
     33          6           0       -4.594494    0.194607   -1.907536
     34          1           0       -3.401533    0.960059    0.471095
     35          1           0       -2.136394    0.614977   -0.704261
     36          1           0       -4.596111   -1.131372   -0.200291
     37          1           0       -3.331891   -1.477235   -1.374909
     38          1           0       -3.880585    0.652277   -2.599976
     39          1           0       -5.151988    1.000105   -1.418684
     40          1           0       -5.301843   -0.400352   -2.493660
 ---------------------------------------------------------------------

 SCF Done:  E(RHF) =  -470.733155036     A.U. after   11 cycles
 E2 =    -0.1584399684D+01 EUMP2 =    -0.47231755471983D+03

 The electronic state is 1-A.
 Alpha  occ. eigenvalues --  -11.21659 -11.21647 -11.21639 -11.21633 -11.21474
 Alpha  occ. eigenvalues --  -11.21434 -11.21415 -11.21359 -11.21167 -11.21104
 Alpha  occ. eigenvalues --  -11.21101 -11.21079  -1.08530  -1.08435  -1.03606
 Alpha  occ. eigenvalues --   -1.03551  -0.96052  -0.95998  -0.87062  -0.87020
 Alpha  occ. eigenvalues --   -0.79679  -0.79604  -0.78332  -0.78260  -0.65474
 Alpha  occ. eigenvalues --   -0.64818  -0.61075  -0.60876  -0.59420  -0.59357
 Alpha  occ. eigenvalues --   -0.57668  -0.57601  -0.55392  -0.55236  -0.52735
 Alpha  occ. eigenvalues --   -0.52698  -0.52477  -0.52419  -0.50057  -0.49897
 Alpha  occ. eigenvalues --   -0.48004  -0.47936  -0.46803  -0.46544  -0.46033
 Alpha  occ. eigenvalues --   -0.45796  -0.45744  -0.45506  -0.43848  -0.43811
 Alpha virt. eigenvalues --    0.18804   0.22424   0.23211   0.24438   0.25427
 Alpha virt. eigenvalues --    0.26225   0.27292   0.27903   0.29349   0.29450
 Alpha virt. eigenvalues --    0.30159   0.31389   0.31675   0.31896   0.32338

 Mulliken charges:
               1
     1  C   -0.298353
     2  C   -0.302200
     3  C   -0.475605
     4  H    0.148701
     5  H    0.149921
     6  H    0.154076
     7  H    0.152355
     8  H    0.155360
     9  H    0.154683
    10  H    0.160506
    11  C   -0.304504
    12  C   -0.301919
    13  C   -0.476430
    14  H    0.155476
    15  H    0.150439
    16  H    0.152334
    17  H    0.152496
    18  H    0.155274
    19  H    0.156226
    20  H    0.160440
    21  C   -0.297805
    22  C   -0.308870
    23  C   -0.477962
    24  H    0.150114
    25  H    0.149090
    26  H    0.152385
    27  H    0.160549
    28  H    0.156575
    29  H    0.156000
    30  H    0.160570
    31  C   -0.299732
    32  C   -0.299674
    33  C   -0.475792
    34  H    0.149998
    35  H    0.150069
    36  H    0.152203
    37  H    0.151919
    38  H    0.155330
    39  H    0.155307
    40  H    0.160452
 Sum of Mulliken charges =  -0.00000

 Dipole moment (field-independent basis, Debye):
    X=             -0.0047    Y=              0.0060    Z=              0.0194  Tot=              0.0209
 Quadrupole moment (field-independent basis, Debye-Ang):
   XX=            -83.6582   YY=            -85.8856   ZZ=            -85.0386
   XY=              0.4899   XZ=             -1.2928   YZ=             -0.0768

 Normal termination of Gaussian 16 at Wed May  5 21:32:44 2021.
