 Gaussian 16, Revision A.03,
 Gaussian 16:  EM64L-G16RevA.03 25-Dec-2016

 -------------
 #p 6-31g* mp2
 -------------

 ------------------------------------------------------
 Input file generated by CHIRIPA (05-May-2021 14:55:23)
 ------------------------------------------------------
 Symbolic Z-matrix:
 Charge =  0 Multiplicity = 1

                         Standard orientation:
 ---------------------------------------------------------------------
 Center     Atomic      Atomic             Coordinates (Angstroms)
 Number     Number       Type             X           Y           Z
 ---------------------------------------------------------------------
      1          6           0       -1.688809   -2.388916    1.461823
      2          6           0       -1.633744   -1.092234    1.983462
      3          6           0       -1.933407    0.010442    1.177947
      4          6           0       -2.285961   -0.221111   -0.150728
      5          6           0       -2.349758   -1.500920   -0.699644
      6          6           0       -2.046010   -2.588768    0.124293
      7          1           0       -1.454436   -3.239742    2.094722
      8          1           0       -1.356645   -0.934027    3.021841
      9          1           0       -1.898662    1.024972    1.556022
     10          1           0       -2.629235   -1.627018   -1.738591
     11          1           0       -2.089601   -3.594667   -0.283519
     12          7           0       -2.605363    0.938394   -1.013242
     13          8           0       -2.913220    0.707707   -2.180566
     14          8           0       -2.541806    2.055946   -0.505625
     15          6           0        2.191162    0.898430    0.031011
     16          6           0        2.241895    2.195144    0.839680
     17          6           0        0.899009    2.925558    0.870458
     18          1           0        1.872373    1.126103   -0.995383
     19          1           0        1.423329    0.238252    0.457616
     20          1           0        3.010363    2.852113    0.412521
     21          1           0        2.560787    1.964383    1.864215
     22          1           0        0.125760    2.291551    1.316240
     23          1           0        0.577890    3.184326   -0.143703
     24          1           0        0.957938    3.849709    1.453838
     25          6           0        3.526136    0.156831   -0.009057
     26          6           0        3.475403   -1.139882   -0.817726
     27          6           0        4.818289   -1.870296   -0.848505
     28          1           0        4.293970    0.817009   -0.435663
     29          1           0        3.844926   -0.070841    1.017336
     30          1           0        3.156512   -0.909121   -1.842262
     31          1           0        2.706936   -1.796851   -0.390568
     32          1           0        5.139408   -2.129064    0.165657
     33          1           0        5.591539   -1.236290   -1.294286
     34          1           0        4.759361   -2.794447   -1.431885
 ---------------------------------------------------------------------

 SCF Done:  E(RHF) =  -669.535353587     A.U. after   15 cycles
 E2 =    -0.2092885497D+01 EUMP2 =    -0.67162823908422D+03

 The electronic state is 1-A.
 Alpha  occ. eigenvalues --  -20.60811 -20.60791 -15.85846 -11.31241 -11.27819
 Alpha  occ. eigenvalues --  -11.27808 -11.27566 -11.26853 -11.26827 -11.21666
 Alpha  occ. eigenvalues --  -11.21440 -11.21385 -11.21253 -11.21175 -11.20712
 Alpha  occ. eigenvalues --   -1.59871  -1.39423  -1.19422  -1.08808  -1.08379
 Alpha  occ. eigenvalues --   -1.04834  -1.03459  -0.95897  -0.95635  -0.86906
 Alpha  occ. eigenvalues --   -0.86224  -0.82471  -0.79526  -0.78195  -0.77506
 Alpha  occ. eigenvalues --   -0.72068  -0.71187  -0.70538  -0.65077  -0.65034
 Alpha  occ. eigenvalues --   -0.64827  -0.62216  -0.60850  -0.59277  -0.57500
 Alpha  occ. eigenvalues --   -0.55381  -0.55140  -0.53167  -0.52952  -0.52581
 Alpha  occ. eigenvalues --   -0.52269  -0.49825  -0.48833  -0.48826  -0.47824
 Alpha  occ. eigenvalues --   -0.46566  -0.45735  -0.45650  -0.44770  -0.43712
 Alpha  occ. eigenvalues --   -0.37391  -0.36402
 Alpha virt. eigenvalues --    0.04984   0.11148   0.16479   0.21027   0.22922
 Alpha virt. eigenvalues --    0.24292   0.26061   0.26902   0.27526   0.27731
 Alpha virt. eigenvalues --    0.28942   0.30570   0.31469   0.31815   0.32067

 Mulliken charges:
               1
     1  C   -0.170921
     2  C   -0.220311
     3  C   -0.170969
     4  C    0.159412
     5  C   -0.170521
     6  C   -0.218203
     7  H    0.225889
     8  H    0.223847
     9  H    0.278829
    10  H    0.275867
    11  H    0.223790
    12  N    0.487990
    13  O   -0.460481
    14  O   -0.459461
    15  C   -0.301466
    16  C   -0.300540
    17  C   -0.474597
    18  H    0.152959
    19  H    0.148289
    20  H    0.152670
    21  H    0.147087
    22  H    0.145940
    23  H    0.168502
    24  H    0.159137
    25  C   -0.297704
    26  C   -0.299412
    27  C   -0.475517
    28  H    0.150578
    29  H    0.147133
    30  H    0.153738
    31  H    0.149077
    32  H    0.153770
    33  H    0.156410
    34  H    0.159187
 Sum of Mulliken charges =  -0.00000

 Dipole moment (field-independent basis, Debye):
    X=              1.0210    Y=             -4.0265    Z=              2.9360  Tot=              5.0868
 Quadrupole moment (field-independent basis, Debye-Ang):
   XX=           -101.5688   YY=            -91.2969   ZZ=            -92.3969
   XY=             10.5790   XZ=             -6.7166   YZ=              1.8885

 Normal termination of Gaussian 16 at Thu May  6 01:31:41 2021.
