 Gaussian 16, Revision A.03,
 Gaussian 16:  EM64L-G16RevA.03 25-Dec-2016

 -------------
 #p 6-31g* mp2
 -------------

 ------------------------------------------------------
 Input file generated by CHIRIPA (05-May-2021 14:57:25)
 ------------------------------------------------------
 Symbolic Z-matrix:
 Charge =  0 Multiplicity = 1

                         Standard orientation:
 ---------------------------------------------------------------------
 Center     Atomic      Atomic             Coordinates (Angstroms)
 Number     Number       Type             X           Y           Z
 ---------------------------------------------------------------------
      1          6           0       -2.190593   -1.819233    1.488488
      2          6           0       -2.160539   -0.445911    1.752314
      3          6           0       -2.854562    0.449761    0.933381
      4          6           0       -3.571684   -0.064698   -0.145673
      5          6           0       -3.620972   -1.427573   -0.434518
      6          6           0       -2.919429   -2.304825    0.397837
      7          1           0       -1.648538   -2.507858    2.129868
      8          1           0       -1.595351   -0.065959    2.598626
      9          1           0       -2.848363    1.517705    1.114694
     10          1           0       -4.193184   -1.776456   -1.285560
     11          1           0       -2.944558   -3.370866    0.190543
     12          7           0       -4.310396    0.873760   -1.019745
     13          8           0       -4.934749    0.395301   -1.964149
     14          8           0       -4.251058    2.070012   -0.743889
     15          6           0        1.953474    1.813512    1.260674
     16          6           0        1.715957    0.436318    1.319334
     17          6           0        2.538655   -0.456239    0.625751
     18          6           0        3.594608    0.065251   -0.120106
     19          6           0        3.856980    1.432123   -0.198278
     20          6           0        3.021346    2.306151    0.503390
     21          1           0        1.309358    2.499675    1.802607
     22          1           0        0.887373    0.050892    1.906651
     23          1           0        2.377477   -1.527059    0.653756
     24          1           0        4.690745    1.786453   -0.792169
     25          1           0        3.208186    3.375212    0.456010
     26          7           0        4.472409   -0.869851   -0.858651
     27          8           0        5.396128   -0.385190   -1.508639
     28          8           0        4.220091   -2.069738   -0.773549
 ---------------------------------------------------------------------

 SCF Done:  E(RHF) =  -868.336692758     A.U. after   16 cycles
 E2 =    -0.2600234785D+01 EUMP2 =    -0.87093692754298D+03

 The electronic state is 1-A.
 Alpha  occ. eigenvalues --  -20.61297 -20.61281 -20.61072 -20.61059 -15.86352
 Alpha  occ. eigenvalues --  -15.86125 -11.31852 -11.31540 -11.28521 -11.28400
 Alpha  occ. eigenvalues --  -11.28255 -11.28159 -11.28082 -11.27897 -11.27621
 Alpha  occ. eigenvalues --  -11.27416 -11.27212 -11.27107  -1.60363  -1.60142
 Alpha  occ. eigenvalues --   -1.39914  -1.39695  -1.20055  -1.19722  -1.09431
 Alpha  occ. eigenvalues --   -1.09114  -1.05493  -1.05138  -0.96235  -0.95939
 Alpha  occ. eigenvalues --   -0.86905  -0.86533  -0.83073  -0.82774  -0.78104
 Alpha  occ. eigenvalues --   -0.77803  -0.72569  -0.72344  -0.71686  -0.71464
 Alpha  occ. eigenvalues --   -0.71166  -0.70849  -0.65723  -0.65650  -0.65382
 Alpha  occ. eigenvalues --   -0.65074  -0.62877  -0.62448  -0.55993  -0.55662
 Alpha  occ. eigenvalues --   -0.53849  -0.53637  -0.53442  -0.53147  -0.49339
 Alpha  occ. eigenvalues --   -0.49314  -0.49105  -0.49094  -0.45290  -0.45089
 Alpha  occ. eigenvalues --   -0.38055  -0.37716  -0.37106  -0.36676
 Alpha virt. eigenvalues --    0.04462   0.04741   0.10341   0.10974   0.15885
 Alpha virt. eigenvalues --    0.16224   0.18945   0.21986   0.25181   0.26912
 Alpha virt. eigenvalues --    0.28207   0.28688   0.29666   0.31049   0.31919

 Mulliken charges:
               1
     1  C   -0.172262
     2  C   -0.221619
     3  C   -0.169212
     4  C    0.159327
     5  C   -0.168630
     6  C   -0.217441
     7  H    0.226262
     8  H    0.215636
     9  H    0.274333
    10  H    0.278924
    11  H    0.227610
    12  N    0.488192
    13  O   -0.457369
    14  O   -0.460548
    15  C   -0.171241
    16  C   -0.215513
    17  C   -0.171275
    18  C    0.159234
    19  C   -0.170252
    20  C   -0.217621
    21  H    0.223643
    22  H    0.215407
    23  H    0.273200
    24  H    0.277245
    25  H    0.225745
    26  N    0.488182
    27  O   -0.458628
    28  O   -0.461327
 Sum of Mulliken charges =  -0.00000

 Dipole moment (field-independent basis, Debye):
    X=             -0.6020    Y=             -0.0386    Z=              5.4639  Tot=              5.4971
 Quadrupole moment (field-independent basis, Debye-Ang):
   XX=           -143.9047   YY=            -98.0907   ZZ=           -105.7244
   XY=             27.7266   XZ=             -1.5388   YZ=              1.0443

 Normal termination of Gaussian 16 at Thu May  6 22:51:59 2021.
