 Gaussian 16, Revision A.03,
 Gaussian 16:  EM64L-G16RevA.03 25-Dec-2016

 -------------
 #p 6-31g* mp2
 -------------

 ------------------------------------------------------
 Input file generated by CHIRIPA (05-May-2021 14:55:21)
 ------------------------------------------------------
 Symbolic Z-matrix:
 Charge =  0 Multiplicity = 1

                         Standard orientation:
 ---------------------------------------------------------------------
 Center     Atomic      Atomic             Coordinates (Angstroms)
 Number     Number       Type             X           Y           Z
 ---------------------------------------------------------------------
      1          6           0        3.779874    1.056565   -0.451675
      2          6           0        3.522522    0.024364   -1.359889
      3          6           0        2.574594   -0.960249   -1.065754
      4          6           0        1.899398   -0.881610    0.151299
      5          6           0        2.133518    0.134246    1.076779
      6          6           0        3.085774    1.108121    0.761622
      7          1           0        4.517929    1.817265   -0.688331
      8          1           0        4.060057   -0.018197   -2.302911
      9          1           0        2.355696   -1.770419   -1.750682
     10          1           0        1.581739    0.150094    2.008824
     11          1           0        3.283576    1.908580    1.468859
     12          7           0        0.893577   -1.918291    0.473814
     13          8           0        0.312184   -1.826569    1.552798
     14          8           0        0.705654   -2.802934   -0.358489
     15          6           0       -1.898149    1.076969   -0.132740
     16          6           0       -1.607307    2.560391    0.097165
     17          6           0       -0.112024    2.879194    0.080152
     18          1           0       -1.386914    0.485680    0.639245
     19          1           0       -1.468055    0.771232   -1.096554
     20          1           0       -2.039019    2.863572    1.059620
     21          1           0       -2.119450    3.148231   -0.675345
     22          1           0        0.329548    2.604279   -0.883196
     23          1           0        0.410435    2.318003    0.861626
     24          1           0        0.073148    3.944990    0.246434
     25          6           0       -3.388684    0.742555   -0.118509
     26          6           0       -3.679526   -0.740866   -0.348413
     27          6           0       -5.174808   -1.059669   -0.331400
     28          1           0       -3.818778    1.048293    0.845306
     29          1           0       -3.899919    1.333845   -0.890494
     30          1           0       -3.167382   -1.328706    0.424096
     31          1           0       -3.247813   -1.044048   -1.310869
     32          1           0       -5.697267   -0.498478   -1.112876
     33          1           0       -5.616380   -0.784755    0.631946
     34          1           0       -5.359980   -2.125465   -0.497683
 ---------------------------------------------------------------------

 SCF Done:  E(RHF) =  -669.534675935     A.U. after   15 cycles
 E2 =    -0.2094671068D+01 EUMP2 =    -0.67162934700269D+03

 The electronic state is 1-A.
 Alpha  occ. eigenvalues --  -20.60917 -20.60911 -15.85930 -11.31229 -11.27789
 Alpha  occ. eigenvalues --  -11.27782 -11.27519 -11.26802 -11.26771 -11.21411
 Alpha  occ. eigenvalues --  -11.21059 -11.20937 -11.20828 -11.20738 -11.20385
 Alpha  occ. eigenvalues --   -1.59961  -1.39522  -1.19404  -1.08804  -1.07961
 Alpha  occ. eigenvalues --   -1.04816  -1.03090  -0.95669  -0.95569  -0.86614
 Alpha  occ. eigenvalues --   -0.86202  -0.82498  -0.79182  -0.77757  -0.77528
 Alpha  occ. eigenvalues --   -0.72160  -0.71257  -0.70521  -0.65065  -0.64815
 Alpha  occ. eigenvalues --   -0.64588  -0.62171  -0.60490  -0.58985  -0.57204
 Alpha  occ. eigenvalues --   -0.55304  -0.54913  -0.53278  -0.52899  -0.52280
 Alpha  occ. eigenvalues --   -0.51871  -0.49555  -0.48918  -0.48912  -0.47461
 Alpha  occ. eigenvalues --   -0.46225  -0.45448  -0.45241  -0.44622  -0.43337
 Alpha  occ. eigenvalues --   -0.37368  -0.36263
 Alpha virt. eigenvalues --    0.04949   0.11151   0.16365   0.21042   0.23309
 Alpha virt. eigenvalues --    0.24654   0.26448   0.27343   0.27662   0.28399
 Alpha virt. eigenvalues --    0.28925   0.30949   0.31762   0.31875   0.32445

 Mulliken charges:
               1
     1  C   -0.171069
     2  C   -0.218789
     3  C   -0.171895
     4  C    0.161202
     5  C   -0.172349
     6  C   -0.212847
     7  H    0.225911
     8  H    0.223513
     9  H    0.275457
    10  H    0.274939
    11  H    0.224146
    12  N    0.489239
    13  O   -0.461122
    14  O   -0.458380
    15  C   -0.306695
    16  C   -0.299014
    17  C   -0.475046
    18  H    0.159466
    19  H    0.146630
    20  H    0.151165
    21  H    0.150718
    22  H    0.154987
    23  H    0.150952
    24  H    0.155315
    25  C   -0.297217
    26  C   -0.303291
    27  C   -0.475714
    28  H    0.148543
    29  H    0.146256
    30  H    0.166478
    31  H    0.151825
    32  H    0.151431
    33  H    0.153677
    34  H    0.161580
 Sum of Mulliken charges =  -0.00000

 Dipole moment (field-independent basis, Debye):
    X=              3.6597    Y=              3.4581    Z=             -1.1010  Tot=              5.1540
 Quadrupole moment (field-independent basis, Debye-Ang):
   XX=            -83.0956   YY=           -101.2870   ZZ=            -90.4915
   XY=              3.4669   XZ=             -2.7739   YZ=              3.6566

 Normal termination of Gaussian 16 at Thu May  6 04:34:20 2021.
