 Gaussian 16, Revision A.03,
 Gaussian 16:  EM64L-G16RevA.03 25-Dec-2016

 -------------
 #p 6-31g* mp2
 -------------

 ------------------------------------------------------
 Input file generated by CHIRIPA (05-May-2021 14:55:20)
 ------------------------------------------------------
 Symbolic Z-matrix:
 Charge =  0 Multiplicity = 1

                         Standard orientation:
 ---------------------------------------------------------------------
 Center     Atomic      Atomic             Coordinates (Angstroms)
 Number     Number       Type             X           Y           Z
 ---------------------------------------------------------------------
      1          6           0       -0.448542   -1.969364    1.315314
      2          6           0       -1.047548   -2.454398    0.148072
      3          6           0       -2.022325   -1.702801   -0.514845
      4          6           0       -2.375689   -0.464782    0.019695
      5          6           0       -1.797169    0.045687    1.180740
      6          6           0       -0.824601   -0.723066    1.827021
      7          1           0        0.307830   -2.559886    1.823822
      8          1           0       -0.757467   -3.421947   -0.251612
      9          1           0       -2.502190   -2.054283   -1.420168
     10          1           0       -2.107107    1.013792    1.555079
     11          1           0       -0.361096   -0.343865    2.733340
     12          7           0       -3.406472    0.339981   -0.673299
     13          8           0       -3.700250    1.427634   -0.182034
     14          8           0       -3.901105   -0.132137   -1.694612
     15          6           0        2.612451    1.490642   -0.280581
     16          6           0        1.335633    1.870464    0.470056
     17          6           0        0.926381    3.325851    0.241678
     18          1           0        3.427558    2.156102    0.035187
     19          1           0        2.463874    1.666442   -1.355018
     20          1           0        1.486101    1.692694    1.542611
     21          1           0        0.523517    1.203899    0.152606
     22          1           0        0.749102    3.513774   -0.822210
     23          1           0        1.717156    4.005346    0.575693
     24          1           0        0.011263    3.575933    0.787460
     25          6           0        3.034405    0.038746   -0.062226
     26          6           0        4.311223   -0.341076   -0.812863
     27          6           0        4.720475   -1.796463   -0.584485
     28          1           0        3.182983   -0.137054    1.012210
     29          1           0        2.219298   -0.626715   -0.377994
     30          1           0        5.123339    0.325489   -0.495414
     31          1           0        4.160756   -0.163306   -1.885418
     32          1           0        3.929701   -2.475958   -0.918500
     33          1           0        4.897754   -1.984385    0.479403
     34          1           0        5.635594   -2.046544   -1.130268
 ---------------------------------------------------------------------

 SCF Done:  E(RHF) =  -669.534001910     A.U. after   15 cycles
 E2 =    -0.2094361621D+01 EUMP2 =    -0.67162836353114D+03

 The electronic state is 1-A.
 Alpha  occ. eigenvalues --  -20.60818 -20.60813 -15.85872 -11.31254 -11.27810
 Alpha  occ. eigenvalues --  -11.27773 -11.27532 -11.26845 -11.26776 -11.21991
 Alpha  occ. eigenvalues --  -11.21780 -11.21738 -11.21619 -11.21574 -11.21159
 Alpha  occ. eigenvalues --   -1.59894  -1.39446  -1.19432  -1.08828  -1.08735
 Alpha  occ. eigenvalues --   -1.04840  -1.03831  -0.96290  -0.95643  -0.87300
 Alpha  occ. eigenvalues --   -0.86216  -0.82478  -0.79918  -0.78600  -0.77511
 Alpha  occ. eigenvalues --   -0.72088  -0.71221  -0.70511  -0.65397  -0.65066
 Alpha  occ. eigenvalues --   -0.64812  -0.62172  -0.61246  -0.59677  -0.57917
 Alpha  occ. eigenvalues --   -0.55579  -0.55304  -0.53337  -0.52925  -0.52895
 Alpha  occ. eigenvalues --   -0.52695  -0.50225  -0.48848  -0.48843  -0.48227
 Alpha  occ. eigenvalues --   -0.46948  -0.46112  -0.45982  -0.44844  -0.44085
 Alpha  occ. eigenvalues --   -0.37387  -0.36275
 Alpha virt. eigenvalues --    0.04992   0.11123   0.16446   0.20717   0.22758
 Alpha virt. eigenvalues --    0.23752   0.25718   0.26782   0.26817   0.28325
 Alpha virt. eigenvalues --    0.28654   0.29905   0.31298   0.31548   0.31891

 Mulliken charges:
               1
     1  C   -0.169838
     2  C   -0.219615
     3  C   -0.172075
     4  C    0.160648
     5  C   -0.176231
     6  C   -0.211787
     7  H    0.226725
     8  H    0.223853
     9  H    0.275731
    10  H    0.276153
    11  H    0.224446
    12  N    0.488096
    13  O   -0.460260
    14  O   -0.460308
    15  C   -0.297500
    16  C   -0.306016
    17  C   -0.475766
    18  H    0.149490
    19  H    0.151995
    20  H    0.141043
    21  H    0.163498
    22  H    0.159589
    23  H    0.154506
    24  H    0.160061
    25  C   -0.300001
    26  C   -0.299587
    27  C   -0.475417
    28  H    0.143164
    29  H    0.150893
    30  H    0.153199
    31  H    0.154027
    32  H    0.151913
    33  H    0.152956
    34  H    0.162413
 Sum of Mulliken charges =  -0.00000

 Dipole moment (field-independent basis, Debye):
    X=              3.5714    Y=             -2.8235    Z=              2.3904  Tot=              5.1421
 Quadrupole moment (field-independent basis, Debye-Ang):
   XX=           -112.8623   YY=            -90.8650   ZZ=            -91.9792
   XY=              6.0344   XZ=             -5.2059   YZ=              1.7556

 Normal termination of Gaussian 16 at Wed May  5 15:54:38 2021.
