 Gaussian 16, Revision A.03,
 Gaussian 16:  EM64L-G16RevA.03 25-Dec-2016

 -------------
 #p 6-31g* mp2
 -------------

 ------------------------------------------------------
 Input file generated by CHIRIPA (05-May-2021 14:57:22)
 ------------------------------------------------------
 Symbolic Z-matrix:
 Charge =  0 Multiplicity = 1

                         Standard orientation:
 ---------------------------------------------------------------------
 Center     Atomic      Atomic             Coordinates (Angstroms)
 Number     Number       Type             X           Y           Z
 ---------------------------------------------------------------------
      1          6           0        0.781285   -1.492355   -1.128639
      2          6           0        1.778787   -2.267457   -0.528033
      3          6           0        2.943502   -1.669699   -0.037448
      4          6           0        3.078387   -0.288064   -0.164641
      5          6           0        2.102494    0.511230   -0.757982
      6          6           0        0.946031   -0.107927   -1.241498
      7          1           0       -0.120289   -1.965019   -1.506992
      8          1           0        1.653549   -3.342834   -0.439021
      9          1           0        3.731568   -2.245897    0.431984
     10          1           0        2.255850    1.580982   -0.832339
     11          1           0        0.173017    0.496528   -1.707469
     12          7           0        4.307050    0.356082    0.350977
     13          8           0        4.401812    1.575194    0.226783
     14          8           0        5.152049   -0.370344    0.869550
     15          6           0       -1.200655    2.280324    0.203193
     16          6           0       -2.204316    2.211447   -0.768630
     17          6           0       -3.137878    1.170891   -0.752662
     18          6           0       -3.037843    0.211885    0.254110
     19          6           0       -2.049425    0.253086    1.236261
     20          6           0       -1.126544    1.302647    1.200779
     21          1           0       -0.479591    3.092150    0.183210
     22          1           0       -2.264295    2.969330   -1.544557
     23          1           0       -3.925074    1.093372   -1.492751
     24          1           0       -2.015164   -0.517103    1.997217
     25          1           0       -0.348156    1.353601    1.956795
     26          7           0       -4.020511   -0.894470    0.281344
     27          8           0       -3.910826   -1.726950    1.178888
     28          8           0       -4.881801   -0.908205   -0.595369
 ---------------------------------------------------------------------

 SCF Done:  E(RHF) =  -868.336701663     A.U. after   16 cycles
 E2 =    -0.2603697661D+01 EUMP2 =    -0.87094039932396D+03

 The electronic state is 1-A.
 Alpha  occ. eigenvalues --  -20.61570 -20.61564 -20.61207 -20.61185 -15.86623
 Alpha  occ. eigenvalues --  -15.86245 -11.32065 -11.31563 -11.28643 -11.28527
 Alpha  occ. eigenvalues --  -11.28277 -11.28086 -11.28013 -11.27668 -11.27656
 Alpha  occ. eigenvalues --  -11.27492 -11.27038 -11.26978  -1.60650  -1.60276
 Alpha  occ. eigenvalues --   -1.40197  -1.39831  -1.20235  -1.19675  -1.09614
 Alpha  occ. eigenvalues --   -1.09064  -1.05604  -1.05062  -0.96426  -0.95924
 Alpha  occ. eigenvalues --   -0.86988  -0.86453  -0.83233  -0.82759  -0.78275
 Alpha  occ. eigenvalues --   -0.77846  -0.72826  -0.72459  -0.71990  -0.71605
 Alpha  occ. eigenvalues --   -0.71294  -0.70740  -0.65844  -0.65563  -0.65308
 Alpha  occ. eigenvalues --   -0.65065  -0.62915  -0.62452  -0.56079  -0.55518
 Alpha  occ. eigenvalues --   -0.54381  -0.53653  -0.53286  -0.52815  -0.49595
 Alpha  occ. eigenvalues --   -0.49585  -0.49228  -0.49204  -0.45584  -0.45249
 Alpha  occ. eigenvalues --   -0.38442  -0.37858  -0.37240  -0.36113
 Alpha virt. eigenvalues --    0.04090   0.04744   0.10359   0.10970   0.15607
 Alpha virt. eigenvalues --    0.16321   0.20255   0.21543   0.26149   0.26649
 Alpha virt. eigenvalues --    0.27618   0.28765   0.30113   0.31135   0.31821

 Mulliken charges:
               1
     1  C   -0.175051
     2  C   -0.218243
     3  C   -0.173611
     4  C    0.158575
     5  C   -0.180615
     6  C   -0.211171
     7  H    0.229673
     8  H    0.226746
     9  H    0.276131
    10  H    0.268141
    11  H    0.227023
    12  N    0.487854
    13  O   -0.463446
    14  O   -0.458322
    15  C   -0.180040
    16  C   -0.225778
    17  C   -0.174322
    18  C    0.154972
    19  C   -0.170906
    20  C   -0.209486
    21  H    0.229810
    22  H    0.226361
    23  H    0.277528
    24  H    0.278118
    25  H    0.230519
    26  N    0.487136
    27  O   -0.458572
    28  O   -0.459026
 Sum of Mulliken charges =  -0.00000

 Dipole moment (field-independent basis, Debye):
    X=             -1.0353    Y=              1.5404    Z=             -1.7823  Tot=              2.5731
 Quadrupole moment (field-independent basis, Debye-Ang):
   XX=           -152.4551   YY=            -97.6183   ZZ=           -101.3957
   XY=            -19.8834   XZ=             -1.1381   YZ=             -1.2090

 Normal termination of Gaussian 16 at Fri May  7 07:53:38 2021.
