 Gaussian 16, Revision A.03,
 Gaussian 16:  EM64L-G16RevA.03 25-Dec-2016

 -------------
 #p 6-31g* mp2
 -------------

 ------------------------------------------------------
 Input file generated by CHIRIPA (05-May-2021 14:51:10)
 ------------------------------------------------------
 Symbolic Z-matrix:
 Charge =  0 Multiplicity = 1

                         Standard orientation:
 ---------------------------------------------------------------------
 Center     Atomic      Atomic             Coordinates (Angstroms)
 Number     Number       Type             X           Y           Z
 ---------------------------------------------------------------------
      1          6           0       -3.725011   -0.494991   -0.299147
      2          6           0       -3.037756   -1.597604    0.507024
      3          6           0       -3.216288   -2.983101   -0.114522
      4          1           0       -4.795891   -0.725021   -0.384274
      5          1           0       -3.323348   -0.493584   -1.321917
      6          1           0       -3.439606   -1.596025    1.528361
      7          1           0       -1.968422   -1.364823    0.590405
      8          1           0       -2.798609   -3.008202   -1.126211
      9          1           0       -4.278152   -3.240718   -0.182925
     10          1           0       -2.717099   -3.756226    0.477886
     11          6           0       -3.555490    0.895851    0.309583
     12          6           0       -4.242744    1.998464   -0.496588
     13          6           0       -4.064213    3.383961    0.124957
     14          1           0       -3.957153    0.894444    1.332353
     15          1           0       -2.484610    1.125881    0.394710
     16          1           0       -5.312079    1.765683   -0.579969
     17          1           0       -3.840895    1.996885   -1.517925
     18          1           0       -3.002349    3.641578    0.193361
     19          1           0       -4.481892    3.409062    1.136647
     20          1           0       -4.563402    4.157086   -0.467450
     21          6           0        2.919674   -0.318955    0.218731
     22          6           0        2.320307   -1.615176   -0.327670
     23          6           0        0.878305   -1.838284    0.129108
     24          1           0        2.880103   -0.338336    1.316458
     25          1           0        2.297389    0.528138   -0.101565
     26          1           0        2.944313   -2.459443   -0.007595
     27          1           0        2.361484   -1.592791   -1.424219
     28          1           0        0.237239   -1.015367   -0.203221
     29          1           0        0.823379   -1.886943    1.221452
     30          1           0        0.469482   -2.770503   -0.273000
     31          6           0        4.360827   -0.081905   -0.229167
     32          6           0        4.960193    1.214317    0.317234
     33          6           0        6.402196    1.437423   -0.139544
     34          1           0        4.983112   -0.928998    0.091129
     35          1           0        4.400397   -0.062523   -1.326893
     36          1           0        4.919016    1.191930    1.413783
     37          1           0        4.336188    2.058582   -0.002841
     38          1           0        6.457122    1.486083   -1.231888
     39          1           0        7.043261    0.614506    0.192785
     40          1           0        6.811019    2.369643    0.262565
 ---------------------------------------------------------------------

 SCF Done:  E(RHF) =  -470.732927276     A.U. after   11 cycles
 E2 =    -0.1582922150D+01 EUMP2 =    -0.47231584942597D+03

 The electronic state is 1-A.
 Alpha  occ. eigenvalues --  -11.21649 -11.21629 -11.21577 -11.21446 -11.21409
 Alpha  occ. eigenvalues --  -11.21386 -11.21352 -11.21279 -11.21143 -11.21092
 Alpha  occ. eigenvalues --  -11.21055 -11.20976  -1.08474  -1.08362  -1.03588
 Alpha  occ. eigenvalues --   -1.03446  -0.96043  -0.95907  -0.87061  -0.86929
 Alpha  occ. eigenvalues --   -0.79707  -0.79470  -0.78300  -0.78154  -0.65124
 Alpha  occ. eigenvalues --   -0.64986  -0.61038  -0.60814  -0.59407  -0.59267
 Alpha  occ. eigenvalues --   -0.57644  -0.57522  -0.55336  -0.55200  -0.52728
 Alpha  occ. eigenvalues --   -0.52594  -0.52498  -0.52324  -0.50017  -0.49830
 Alpha  occ. eigenvalues --   -0.48088  -0.47755  -0.46732  -0.46479  -0.45907
 Alpha  occ. eigenvalues --   -0.45761  -0.45689  -0.45463  -0.43815  -0.43713
 Alpha virt. eigenvalues --    0.21463   0.22987   0.23773   0.24796   0.25810
 Alpha virt. eigenvalues --    0.26634   0.27116   0.27389   0.27825   0.29129
 Alpha virt. eigenvalues --    0.31060   0.31275   0.31695   0.31947   0.32215

 Mulliken charges:
               1
     1  C   -0.297932
     2  C   -0.309555
     3  C   -0.475040
     4  H    0.149251
     5  H    0.148678
     6  H    0.150795
     7  H    0.165618
     8  H    0.154509
     9  H    0.154439
    10  H    0.159858
    11  C   -0.298327
    12  C   -0.299553
    13  C   -0.475640
    14  H    0.149654
    15  H    0.148852
    16  H    0.152021
    17  H    0.151620
    18  H    0.154961
    19  H    0.155219
    20  H    0.160125
    21  C   -0.298374
    22  C   -0.300446
    23  C   -0.478051
    24  H    0.149855
    25  H    0.149185
    26  H    0.152201
    27  H    0.152004
    28  H    0.154954
    29  H    0.155966
    30  H    0.162740
    31  C   -0.298303
    32  C   -0.299662
    33  C   -0.475734
    34  H    0.149680
    35  H    0.149684
    36  H    0.152039
    37  H    0.151896
    38  H    0.155202
    39  H    0.155246
    40  H    0.160363
 Sum of Mulliken charges =  -0.00000

 Dipole moment (field-independent basis, Debye):
    X=              0.0569    Y=             -0.0139    Z=              0.0124  Tot=              0.0599
 Quadrupole moment (field-independent basis, Debye-Ang):
   XX=            -85.2095   YY=            -85.7826   ZZ=            -83.9804
   XY=             -0.4812   XZ=              0.0460   YZ=             -0.7821

 Normal termination of Gaussian 16 at Thu May  6 07:00:05 2021.
