 Gaussian 16, Revision A.03,
 Gaussian 16:  EM64L-G16RevA.03 25-Dec-2016

 -------------
 #p 6-31g* mp2
 -------------

 ------------------------------------------------------
 Input file generated by CHIRIPA (05-May-2021 14:55:25)
 ------------------------------------------------------
 Symbolic Z-matrix:
 Charge =  0 Multiplicity = 1

                         Standard orientation:
 ---------------------------------------------------------------------
 Center     Atomic      Atomic             Coordinates (Angstroms)
 Number     Number       Type             X           Y           Z
 ---------------------------------------------------------------------
      1          6           0        2.150055    2.673249    0.584636
      2          6           0        1.149043    1.796226    0.154141
      3          6           0        1.470261    0.499476   -0.257934
      4          6           0        2.808729    0.111136   -0.226547
      5          6           0        3.828692    0.961722    0.197092
      6          6           0        3.484332    2.253937    0.604702
      7          1           0        1.891537    3.678834    0.903011
      8          1           0        0.111984    2.119147    0.137503
      9          1           0        0.715277   -0.199969   -0.595862
     10          1           0        4.853619    0.611136    0.202573
     11          1           0        4.263825    2.932897    0.938543
     12          7           0        3.161038   -1.259274   -0.660429
     13          8           0        4.347713   -1.577186   -0.623402
     14          8           0        2.243831   -1.989542   -1.029316
     15          6           0       -3.255899   -0.994901    0.640771
     16          6           0       -1.740428   -1.176306    0.548986
     17          6           0       -1.225442   -2.307440    1.439559
     18          1           0       -3.532387   -0.795992    1.685249
     19          1           0       -3.748494   -1.936400    0.360903
     20          1           0       -1.250871   -0.234330    0.827609
     21          1           0       -1.467495   -1.374616   -0.495425
     22          1           0       -1.686942   -3.259599    1.158466
     23          1           0       -1.469087   -2.112834    2.489019
     24          1           0       -0.139762   -2.419641    1.358499
     25          6           0       -3.785802    0.132190   -0.243874
     26          6           0       -5.301273    0.313595   -0.152090
     27          6           0       -5.816259    1.444730   -1.042661
     28          1           0       -3.293207    1.073689    0.035993
     29          1           0       -3.509314   -0.066719   -1.288352
     30          1           0       -5.574206    0.511906    0.892323
     31          1           0       -5.790831   -0.628381   -0.430712
     32          1           0       -5.572614    1.250123   -2.092121
     33          1           0       -5.354758    2.396888   -0.761569
     34          1           0       -6.901938    1.556929   -0.961602
 ---------------------------------------------------------------------

 SCF Done:  E(RHF) =  -669.535197824     A.U. after   15 cycles
 E2 =    -0.2092917214D+01 EUMP2 =    -0.67162811503838D+03

 The electronic state is 1-A.
 Alpha  occ. eigenvalues --  -20.60789 -20.60782 -15.85826 -11.31124 -11.27727
 Alpha  occ. eigenvalues --  -11.27617 -11.27469 -11.26730 -11.26701 -11.22038
 Alpha  occ. eigenvalues --  -11.21964 -11.21854 -11.21724 -11.21415 -11.21055
 Alpha  occ. eigenvalues --   -1.59854  -1.39409  -1.19315  -1.08822  -1.08725
 Alpha  occ. eigenvalues --   -1.04721  -1.03845  -0.96255  -0.95562  -0.87264
 Alpha  occ. eigenvalues --   -0.86115  -0.82409  -0.79978  -0.78718  -0.77411
 Alpha  occ. eigenvalues --   -0.72047  -0.71172  -0.70429  -0.65459  -0.64965
 Alpha  occ. eigenvalues --   -0.64724  -0.62127  -0.61232  -0.59590  -0.57870
 Alpha  occ. eigenvalues --   -0.55532  -0.55218  -0.53052  -0.52918  -0.52789
 Alpha  occ. eigenvalues --   -0.52667  -0.50191  -0.48819  -0.48801  -0.48211
 Alpha  occ. eigenvalues --   -0.46987  -0.46180  -0.46125  -0.44824  -0.44090
 Alpha  occ. eigenvalues --   -0.37308  -0.36288
 Alpha virt. eigenvalues --    0.05037   0.11295   0.16458   0.20400   0.22701
 Alpha virt. eigenvalues --    0.24034   0.24777   0.25955   0.27297   0.28390
 Alpha virt. eigenvalues --    0.29428   0.30303   0.31501   0.31675   0.32218

 Mulliken charges:
               1
     1  C   -0.170499
     2  C   -0.224483
     3  C   -0.174811
     4  C    0.155770
     5  C   -0.170230
     6  C   -0.219170
     7  H    0.225397
     8  H    0.224420
     9  H    0.289626
    10  H    0.275345
    11  H    0.223212
    12  N    0.487608
    13  O   -0.459865
    14  O   -0.461645
    15  C   -0.296504
    16  C   -0.312482
    17  C   -0.477195
    18  H    0.150548
    19  H    0.153777
    20  H    0.144252
    21  H    0.156203
    22  H    0.159365
    23  H    0.153353
    24  H    0.171420
    25  C   -0.298316
    26  C   -0.299843
    27  C   -0.475865
    28  H    0.141474
    29  H    0.151011
    30  H    0.152443
    31  H    0.154583
    32  H    0.156205
    33  H    0.153029
    34  H    0.161866
 Sum of Mulliken charges =  -0.00000

 Dipole moment (field-independent basis, Debye):
    X=             -1.3129    Y=              4.6674    Z=              1.5273  Tot=              5.0834
 Quadrupole moment (field-independent basis, Debye-Ang):
   XX=            -96.9880   YY=            -93.9707   ZZ=            -95.8850
   XY=             15.3672   XZ=              5.5126   YZ=              0.2161

 Normal termination of Gaussian 16 at Thu May  6 06:25:45 2021.
