 Gaussian 16, Revision A.03,
 Gaussian 16:  EM64L-G16RevA.03 25-Dec-2016

 -------------
 #p 6-31g* mp2
 -------------

 ------------------------------------------------------
 Input file generated by CHIRIPA (05-May-2021 14:53:12)
 ------------------------------------------------------
 Symbolic Z-matrix:
 Charge =  0 Multiplicity = 1

                         Standard orientation:
 ---------------------------------------------------------------------
 Center     Atomic      Atomic             Coordinates (Angstroms)
 Number     Number       Type             X           Y           Z
 ---------------------------------------------------------------------
      1          6           0       -3.464083    1.089109    0.139505
      2          6           0       -2.519631    2.254062   -0.158622
      3          6           0       -3.064957    3.596793    0.328704
      4          1           0       -4.436990    1.284254   -0.331999
      5          1           0       -3.645466    1.041081    1.222182
      6          1           0       -2.338987    2.299024   -1.240270
      7          1           0       -1.548800    2.056030    0.313486
      8          1           0       -3.228331    3.576289    1.411057
      9          1           0       -4.023008    3.820664   -0.151527
     10          1           0       -2.373971    4.415640    0.105352
     11          6           0       -2.932775   -0.259929   -0.341678
     12          6           0       -3.877227   -1.424882   -0.043551
     13          6           0       -3.331901   -2.767613   -0.530877
     14          1           0       -2.751393   -0.211901   -1.424355
     15          1           0       -1.959869   -0.455074    0.129826
     16          1           0       -4.848059   -1.226850   -0.515659
     17          1           0       -4.057871   -1.469844    1.038097
     18          1           0       -2.373850   -2.991484   -0.050646
     19          1           0       -3.168527   -2.747109   -1.613230
     20          1           0       -4.022888   -3.586460   -0.307525
     21          6           0        0.506823   -1.716099    0.757087
     22          6           0        1.353641   -1.183049    1.734470
     23          6           0        2.460266   -0.410197    1.370288
     24          6           0        2.691347   -0.189305    0.013416
     25          6           0        1.866088   -0.706705   -0.983848
     26          6           0        0.765294   -1.476648   -0.596566
     27          1           0       -0.350565   -2.315339    1.048965
     28          1           0        1.155354   -1.367374    2.786493
     29          1           0        3.132121    0.014554    2.106233
     30          1           0        2.089518   -0.505730   -2.024572
     31          1           0        0.109351   -1.889355   -1.357786
     32          7           0        3.859796    0.627338   -0.384355
     33          8           0        4.041625    0.807397   -1.586501
     34          8           0        4.571671    1.071903    0.513550
 ---------------------------------------------------------------------

 SCF Done:  E(RHF) =  -669.534269457     A.U. after   15 cycles
 E2 =    -0.2093758605D+01 EUMP2 =    -0.67162802806114D+03

 The electronic state is 1-A.
 Alpha  occ. eigenvalues --  -20.60776 -20.60770 -15.85829 -11.31208 -11.27774
 Alpha  occ. eigenvalues --  -11.27750 -11.27494 -11.26803 -11.26755 -11.22496
 Alpha  occ. eigenvalues --  -11.22306 -11.22055 -11.21954 -11.21883 -11.21328
 Alpha  occ. eigenvalues --   -1.59851  -1.39404  -1.19384  -1.09108  -1.08770
 Alpha  occ. eigenvalues --   -1.04780  -1.04206  -0.96671  -0.95619  -0.87692
 Alpha  occ. eigenvalues --   -0.86183  -0.82443  -0.80284  -0.78869  -0.77473
 Alpha  occ. eigenvalues --   -0.72048  -0.71174  -0.70544  -0.65749  -0.65025
 Alpha  occ. eigenvalues --   -0.64771  -0.62127  -0.61608  -0.60056  -0.58269
 Alpha  occ. eigenvalues --   -0.56048  -0.55272  -0.53388  -0.53233  -0.52983
 Alpha  occ. eigenvalues --   -0.52863  -0.50642  -0.48808  -0.48803  -0.48575
 Alpha  occ. eigenvalues --   -0.47303  -0.46398  -0.46295  -0.44807  -0.44420
 Alpha  occ. eigenvalues --   -0.37284  -0.36363
 Alpha virt. eigenvalues --    0.05010   0.11224   0.16418   0.19319   0.22734
 Alpha virt. eigenvalues --    0.23989   0.25271   0.26065   0.27386   0.27513
 Alpha virt. eigenvalues --    0.29002   0.30258   0.30860   0.31569   0.32322

 Mulliken charges:
               1
     1  C   -0.297725
     2  C   -0.300712
     3  C   -0.476217
     4  H    0.150874
     5  H    0.148927
     6  H    0.152620
     7  H    0.154616
     8  H    0.154847
     9  H    0.155431
    10  H    0.163284
    11  C   -0.307477
    12  C   -0.300199
    13  C   -0.478995
    14  H    0.147897
    15  H    0.154848
    16  H    0.156538
    17  H    0.151971
    18  H    0.142986
    19  H    0.157039
    20  H    0.166390
    21  C   -0.176650
    22  C   -0.220242
    23  C   -0.171151
    24  C    0.158535
    25  C   -0.171548
    26  C   -0.216743
    27  H    0.231457
    28  H    0.223796
    29  H    0.275607
    30  H    0.275757
    31  H    0.226881
    32  N    0.488014
    33  O   -0.460248
    34  O   -0.460407
 Sum of Mulliken charges =  -0.00000

 Dipole moment (field-independent basis, Debye):
    X=             -4.1931    Y=             -2.7982    Z=              1.3741  Tot=              5.2250
 Quadrupole moment (field-independent basis, Debye-Ang):
   XX=           -116.8822   YY=            -95.3165   ZZ=            -89.3656
   XY=             -6.6252   XZ=              5.6447   YZ=             -0.0391

 Normal termination of Gaussian 16 at Thu May  6 00:56:00 2021.
