 Gaussian 16, Revision A.03,
 Gaussian 16:  EM64L-G16RevA.03 25-Dec-2016

 -------------
 #p 6-31g* mp2
 -------------

 ------------------------------------------------------
 Input file generated by CHIRIPA (05-May-2021 14:51:11)
 ------------------------------------------------------
 Symbolic Z-matrix:
 Charge =  0 Multiplicity = 1

                         Standard orientation:
 ---------------------------------------------------------------------
 Center     Atomic      Atomic             Coordinates (Angstroms)
 Number     Number       Type             X           Y           Z
 ---------------------------------------------------------------------
      1          6           0        3.285008   -0.489773   -0.200043
      2          6           0        3.735106   -1.951050   -0.208243
      3          6           0        2.568366   -2.928166   -0.355740
      4          1           0        2.571101   -0.337235    0.620941
      5          1           0        2.741531   -0.275545   -1.130706
      6          1           0        4.278771   -2.162084    0.721547
      7          1           0        4.448170   -2.100082   -1.029185
      8          1           0        2.029366   -2.746181   -1.291133
      9          1           0        1.859005   -2.808535    0.469545
     10          1           0        2.912728   -3.967042   -0.359212
     11          6           0        4.440125    0.499108   -0.053254
     12          6           0        3.990026    1.960385   -0.045054
     13          6           0        5.156766    2.937501    0.102443
     14          1           0        4.983601    0.284880    0.877410
     15          1           0        5.154031    0.346570   -0.874238
     16          1           0        3.276962    2.109417    0.775888
     17          1           0        3.446361    2.171419   -0.974843
     18          1           0        5.866128    2.817870   -0.722842
     19          1           0        5.695766    2.755516    1.037837
     20          1           0        4.812404    3.976377    0.105915
     21          6           0       -3.124169    0.105957    0.287781
     22          6           0       -2.328315   -1.194127    0.407703
     23          6           0       -0.852787   -0.956376    0.730325
     24          1           0       -2.673218    0.733789   -0.492869
     25          1           0       -3.039426    0.667669    1.228363
     26          1           0       -2.415671   -1.753869   -0.532336
     27          1           0       -2.781327   -1.819019    1.188027
     28          1           0       -0.747456   -0.419187    1.678446
     29          1           0       -0.379721   -0.353666   -0.051692
     30          1           0       -0.302648   -1.899037    0.811556
     31          6           0       -4.600963   -0.115292   -0.034485
     32          6           0       -5.396817    1.184792   -0.154406
     33          6           0       -6.872346    0.947041   -0.477028
     34          1           0       -4.685706   -0.677004   -0.975066
     35          1           0       -5.051914   -0.743124    0.746166
     36          1           0       -4.943805    1.809684   -0.934730
     37          1           0       -5.309462    1.744534    0.785634
     38          1           0       -7.345412    0.344331    0.304989
     39          1           0       -6.977677    0.409852   -1.425150
     40          1           0       -7.422485    1.889702   -0.558260
 ---------------------------------------------------------------------

 SCF Done:  E(RHF) =  -470.733027829     A.U. after   11 cycles
 E2 =    -0.1582811825D+01 EUMP2 =    -0.47231583965364D+03

 The electronic state is 1-A.
 Alpha  occ. eigenvalues --  -11.21590 -11.21571 -11.21566 -11.21559 -11.21385
 Alpha  occ. eigenvalues --  -11.21354 -11.21325 -11.21289 -11.21062 -11.21049
 Alpha  occ. eigenvalues --  -11.21011 -11.20996  -1.08412  -1.08382  -1.03526
 Alpha  occ. eigenvalues --   -1.03471  -0.95979  -0.95919  -0.87010  -0.86927
 Alpha  occ. eigenvalues --   -0.79646  -0.79488  -0.78247  -0.78162  -0.65038
 Alpha  occ. eigenvalues --   -0.65019  -0.60910  -0.60899  -0.59437  -0.59224
 Alpha  occ. eigenvalues --   -0.57706  -0.57420  -0.55239  -0.55235  -0.52786
 Alpha  occ. eigenvalues --   -0.52641  -0.52461  -0.52163  -0.49900  -0.49876
 Alpha  occ. eigenvalues --   -0.47922  -0.47812  -0.46610  -0.46587  -0.45832
 Alpha  occ. eigenvalues --   -0.45713  -0.45660  -0.45627  -0.43754  -0.43692
 Alpha virt. eigenvalues --    0.22060   0.22999   0.23587   0.24856   0.26021
 Alpha virt. eigenvalues --    0.26416   0.26859   0.27153   0.27907   0.29233
 Alpha virt. eigenvalues --    0.29951   0.31315   0.31580   0.31853   0.32062

 Mulliken charges:
               1
     1  C   -0.300650
     2  C   -0.299565
     3  C   -0.479206
     4  H    0.154330
     5  H    0.148818
     6  H    0.151616
     7  H    0.151576
     8  H    0.155038
     9  H    0.159503
    10  H    0.159639
    11  C   -0.298309
    12  C   -0.299602
    13  C   -0.475659
    14  H    0.149370
    15  H    0.149390
    16  H    0.152194
    17  H    0.151584
    18  H    0.155083
    19  H    0.155142
    20  H    0.160132
    21  C   -0.298556
    22  C   -0.299911
    23  C   -0.480680
    24  H    0.149605
    25  H    0.149344
    26  H    0.152023
    27  H    0.151578
    28  H    0.153679
    29  H    0.157354
    30  H    0.165239
    31  C   -0.298193
    32  C   -0.299594
    33  C   -0.475683
    34  H    0.149488
    35  H    0.149595
    36  H    0.151900
    37  H    0.151873
    38  H    0.155157
    39  H    0.155163
    40  H    0.160198
 Sum of Mulliken charges =  -0.00000

 Dipole moment (field-independent basis, Debye):
    X=              0.0008    Y=             -0.0055    Z=              0.0059  Tot=              0.0081
 Quadrupole moment (field-independent basis, Debye-Ang):
   XX=            -86.6450   YY=            -85.5424   ZZ=            -82.7885
   XY=             -0.5913   XZ=             -0.5908   YZ=             -0.1803

 Normal termination of Gaussian 16 at Wed May  5 15:15:27 2021.
