 Gaussian 16, Revision A.03,
 Gaussian 16:  EM64L-G16RevA.03 25-Dec-2016

 -------------
 #p 6-31g* mp2
 -------------

 ------------------------------------------------------
 Input file generated by CHIRIPA (05-May-2021 14:57:26)
 ------------------------------------------------------
 Symbolic Z-matrix:
 Charge =  0 Multiplicity = 1

                         Standard orientation:
 ---------------------------------------------------------------------
 Center     Atomic      Atomic             Coordinates (Angstroms)
 Number     Number       Type             X           Y           Z
 ---------------------------------------------------------------------
      1          6           0       -3.495161    2.342543    1.064861
      2          6           0       -3.719188    2.148263   -0.302102
      3          6           0       -3.458818    0.909321   -0.895212
      4          6           0       -2.972836   -0.118037   -0.087967
      5          6           0       -2.739427    0.044433    1.276736
      6          6           0       -3.006856    1.291860    1.848536
      7          1           0       -3.700164    3.308278    1.517326
      8          1           0       -4.098363    2.962436   -0.913160
      9          1           0       -3.623249    0.731478   -1.951031
     10          1           0       -2.360932   -0.786143    1.860091
     11          1           0       -2.831929    1.439865    2.910393
     12          7           0       -2.693458   -1.434141   -0.704586
     13          8           0       -2.265741   -2.323231    0.028363
     14          8           0       -2.907487   -1.551691   -1.909165
     15          6           0        1.836302   -2.178166    0.788816
     16          6           0        2.842977   -1.600125    1.569197
     17          6           0        3.504950   -0.448007    1.134496
     18          6           0        3.133208    0.102146   -0.091240
     19          6           0        2.134339   -0.450360   -0.891419
     20          6           0        1.485814   -1.602455   -0.436842
     21          1           0        1.327288   -3.073150    1.134223
     22          1           0        3.117255   -2.045062    2.521482
     23          1           0        4.287906    0.020151    1.718641
     24          1           0        1.882894    0.016022   -1.836238
     25          1           0        0.704397   -2.049204   -1.044992
     26          7           0        3.826892    1.321828   -0.561961
     27          8           0        3.480839    1.787225   -1.645607
     28          8           0        4.703518    1.789325    0.161650
 ---------------------------------------------------------------------

 SCF Done:  E(RHF) =  -868.340159934     A.U. after   16 cycles
 E2 =    -0.2598907066D+01 EUMP2 =    -0.87093906699996D+03

 The electronic state is 1-A.
 Alpha  occ. eigenvalues --  -20.61650 -20.61615 -20.60517 -20.60510 -15.86657
 Alpha  occ. eigenvalues --  -15.85562 -11.31698 -11.30780 -11.28249 -11.28216
 Alpha  occ. eigenvalues --  -11.27898 -11.27361 -11.27270 -11.27171 -11.27146
 Alpha  occ. eigenvalues --  -11.26929 -11.26332 -11.26115  -1.60710  -1.59595
 Alpha  occ. eigenvalues --   -1.40268  -1.39153  -1.19840  -1.18919  -1.09293
 Alpha  occ. eigenvalues --   -1.08317  -1.05193  -1.04290  -0.96182  -0.95185
 Alpha  occ. eigenvalues --   -0.86607  -0.85672  -0.83027  -0.82021  -0.78115
 Alpha  occ. eigenvalues --   -0.77108  -0.72884  -0.72031  -0.71779  -0.70941
 Alpha  occ. eigenvalues --   -0.70919  -0.69970  -0.65495  -0.65191  -0.64549
 Alpha  occ. eigenvalues --   -0.64236  -0.62549  -0.61624  -0.55698  -0.54718
 Alpha  occ. eigenvalues --   -0.53536  -0.53282  -0.52648  -0.52342  -0.49655
 Alpha  occ. eigenvalues --   -0.49612  -0.48547  -0.48523  -0.45739  -0.44592
 Alpha  occ. eigenvalues --   -0.37793  -0.36873  -0.36773  -0.35910
 Alpha virt. eigenvalues --    0.04367   0.05406   0.10874   0.11751   0.15941
 Alpha virt. eigenvalues --    0.16946   0.21031   0.22066   0.26965   0.27710
 Alpha virt. eigenvalues --    0.28066   0.28925   0.30674   0.31597   0.32128

 Mulliken charges:
               1
     1  C   -0.169011
     2  C   -0.217893
     3  C   -0.170634
     4  C    0.157240
     5  C   -0.169053
     6  C   -0.218033
     7  H    0.228540
     8  H    0.226298
     9  H    0.276279
    10  H    0.272986
    11  H    0.224884
    12  N    0.487018
    13  O   -0.467905
    14  O   -0.458694
    15  C   -0.172309
    16  C   -0.220399
    17  C   -0.172996
    18  C    0.157857
    19  C   -0.173791
    20  C   -0.224970
    21  H    0.232443
    22  H    0.220967
    23  H    0.272966
    24  H    0.274765
    25  H    0.239816
    26  N    0.488043
    27  O   -0.461771
    28  O   -0.462644
 Sum of Mulliken charges =  -0.00000

 Dipole moment (field-independent basis, Debye):
    X=             -3.7457    Y=              0.3696    Z=              3.8093  Tot=              5.3552
 Quadrupole moment (field-independent basis, Debye-Ang):
   XX=           -113.9413   YY=           -106.9687   ZZ=            -98.4234
   XY=            -28.9621   XZ=              3.0769   YZ=             -1.7358

 Normal termination of Gaussian 16 at Fri May  7 06:37:17 2021.
