 Gaussian 16, Revision A.03,
 Gaussian 16:  EM64L-G16RevA.03 25-Dec-2016

 -------------
 #p 6-31g* mp2
 -------------

 ------------------------------------------------------
 Input file generated by CHIRIPA (05-May-2021 14:55:25)
 ------------------------------------------------------
 Symbolic Z-matrix:
 Charge =  0 Multiplicity = 1

                         Standard orientation:
 ---------------------------------------------------------------------
 Center     Atomic      Atomic             Coordinates (Angstroms)
 Number     Number       Type             X           Y           Z
 ---------------------------------------------------------------------
      1          6           0        2.697978    2.510248   -0.095668
      2          6           0        1.718580    1.512841   -0.145480
      3          6           0        2.081112    0.163310   -0.188894
      4          6           0        3.438402   -0.154479   -0.181042
      5          6           0        4.437656    0.816277   -0.131907
      6          6           0        4.052003    2.159401   -0.089052
      7          1           0        2.407374    3.556108   -0.062160
      8          1           0        0.666265    1.782376   -0.150735
      9          1           0        1.343592   -0.629130   -0.227892
     10          1           0        5.478624    0.516631   -0.127898
     11          1           0        4.814785    2.931874   -0.050414
     12          7           0        3.834437   -1.579776   -0.226707
     13          8           0        5.036993   -1.833610   -0.218752
     14          8           0        2.934794   -2.416101   -0.269588
     15          6           0       -4.795670    0.015732   -0.361684
     16          6           0       -6.263545   -0.212477    0.000599
     17          6           0       -7.207649    0.028864   -1.177627
     18          1           0       -4.670758    1.043589   -0.728904
     19          1           0       -4.522927   -0.648620   -1.193334
     20          1           0       -6.533058    0.451122    0.832234
     21          1           0       -6.384942   -1.239851    0.367180
     22          1           0       -6.966949   -0.642810   -2.008000
     23          1           0       -7.115907    1.057770   -1.540306
     24          1           0       -8.251837   -0.139920   -0.896482
     25          6           0       -3.839545   -0.221624    0.805885
     26          6           0       -2.371670    0.006585    0.443603
     27          6           0       -1.427567   -0.234757    1.621828
     28          1           0       -4.112288    0.442727    1.637535
     29          1           0       -3.964457   -1.249482    1.173106
     30          1           0       -2.250273    1.033958    0.077021
     31          1           0       -2.102158   -0.657014   -0.388032
     32          1           0       -1.519308   -1.263663    1.984507
     33          1           0       -1.668266    0.436917    2.452202
     34          1           0       -0.383378   -0.065973    1.340682
 ---------------------------------------------------------------------

 SCF Done:  E(RHF) =  -669.534893332     A.U. after   15 cycles
 E2 =    -0.2092184512D+01 EUMP2 =    -0.67162707784374D+03

 The electronic state is 1-A.
 Alpha  occ. eigenvalues --  -20.60753 -20.60748 -15.85806 -11.31178 -11.27753
 Alpha  occ. eigenvalues --  -11.27723 -11.27490 -11.26772 -11.26740 -11.22324
 Alpha  occ. eigenvalues --  -11.21900 -11.21875 -11.21753 -11.21701 -11.21314
 Alpha  occ. eigenvalues --   -1.59828  -1.39381  -1.19356  -1.08900  -1.08746
 Alpha  occ. eigenvalues --   -1.04774  -1.04011  -0.96450  -0.95581  -0.87461
 Alpha  occ. eigenvalues --   -0.86154  -0.82419  -0.80088  -0.78693  -0.77468
 Alpha  occ. eigenvalues --   -0.72026  -0.71151  -0.70474  -0.65529  -0.65019
 Alpha  occ. eigenvalues --   -0.64757  -0.62254  -0.61396  -0.59767  -0.58043
 Alpha  occ. eigenvalues --   -0.55703  -0.55255  -0.53319  -0.52999  -0.52848
 Alpha  occ. eigenvalues --   -0.52760  -0.50360  -0.48785  -0.48779  -0.48397
 Alpha  occ. eigenvalues --   -0.47117  -0.46235  -0.46140  -0.44786  -0.44262
 Alpha  occ. eigenvalues --   -0.37334  -0.36331
 Alpha virt. eigenvalues --    0.05032   0.11284   0.16432   0.19810   0.22712
 Alpha virt. eigenvalues --    0.23836   0.25633   0.26333   0.27131   0.27739
 Alpha virt. eigenvalues --    0.29288   0.29723   0.31066   0.31567   0.31764

 Mulliken charges:
               1
     1  C   -0.171599
     2  C   -0.220250
     3  C   -0.173642
     4  C    0.157740
     5  C   -0.171109
     6  C   -0.218398
     7  H    0.225752
     8  H    0.228374
     9  H    0.278521
    10  H    0.275622
    11  H    0.223470
    12  N    0.488234
    13  O   -0.460476
    14  O   -0.460367
    15  C   -0.298811
    16  C   -0.300159
    17  C   -0.475995
    18  H    0.148270
    19  H    0.151248
    20  H    0.152029
    21  H    0.153576
    22  H    0.156178
    23  H    0.154739
    24  H    0.161417
    25  C   -0.298260
    26  C   -0.303625
    27  C   -0.483090
    28  H    0.150377
    29  H    0.153615
    30  H    0.145063
    31  H    0.154332
    32  H    0.163709
    33  H    0.157342
    34  H    0.156175
 Sum of Mulliken charges =  -0.00000

 Dipole moment (field-independent basis, Debye):
    X=             -1.5156    Y=              4.9639    Z=              0.1911  Tot=              5.1937
 Quadrupole moment (field-independent basis, Debye-Ang):
   XX=            -99.6731   YY=            -95.5000   ZZ=            -96.1273
   XY=             19.4341   XZ=              0.2006   YZ=             -0.6014

 Normal termination of Gaussian 16 at Thu May  6 04:48:41 2021.
