 Gaussian 16, Revision A.03,
 Gaussian 16:  EM64L-G16RevA.03 25-Dec-2016

 -------------
 #p 6-31g* mp2
 -------------

 ------------------------------------------------------
 Input file generated by CHIRIPA (05-May-2021 14:53:12)
 ------------------------------------------------------
 Symbolic Z-matrix:
 Charge =  0 Multiplicity = 1

                         Standard orientation:
 ---------------------------------------------------------------------
 Center     Atomic      Atomic             Coordinates (Angstroms)
 Number     Number       Type             X           Y           Z
 ---------------------------------------------------------------------
      1          6           0        2.653916   -0.387870   -0.127712
      2          6           0        3.923048   -0.955243    0.508981
      3          6           0        3.880494   -2.476355    0.657983
      4          1           0        1.786007   -0.673848    0.482120
      5          1           0        2.508778   -0.849920   -1.114039
      6          1           0        4.066500   -0.491239    1.493226
      7          1           0        4.788057   -0.667719   -0.102333
      8          1           0        3.761549   -2.955955   -0.318969
      9          1           0        3.035892   -2.778472    1.285656
     10          1           0        4.797564   -2.860764    1.115227
     11          6           0        2.681396    1.131587   -0.283348
     12          6           0        1.412264    1.698959   -0.920041
     13          6           0        1.454818    3.220071   -1.069043
     14          1           0        2.826534    1.593636    0.702979
     15          1           0        3.549305    1.417564   -0.893180
     16          1           0        0.547255    1.411436   -0.308727
     17          1           0        1.268812    1.234955   -1.904286
     18          1           0        2.299420    3.522189   -1.696716
     19          1           0        1.573763    3.699672   -0.092091
     20          1           0        0.537747    3.604480   -1.526287
     21          6           0       -2.209942   -2.197722   -1.486441
     22          6           0       -1.997971   -2.458253   -0.128607
     23          6           0       -1.926494   -1.409322    0.792905
     24          6           0       -2.071941   -0.106133    0.319798
     25          6           0       -2.284119    0.185657   -1.026728
     26          6           0       -2.352088   -0.878924   -1.930385
     27          1           0       -2.264105   -3.018635   -2.195359
     28          1           0       -1.887225   -3.481454    0.219014
     29          1           0       -1.763265   -1.582591    1.849670
     30          1           0       -2.390791    1.216121   -1.343242
     31          1           0       -2.516798   -0.673613   -2.984312
     32          7           0       -1.998128    1.012607    1.285910
     33          8           0       -2.129412    2.151865    0.843764
     34          8           0       -1.810386    0.729035    2.467001
 ---------------------------------------------------------------------

 SCF Done:  E(RHF) =  -669.535643680     A.U. after   15 cycles
 E2 =    -0.2093290432D+01 EUMP2 =    -0.67162893411285D+03

 The electronic state is 1-A.
 Alpha  occ. eigenvalues --  -20.60900 -20.60883 -15.85917 -11.31229 -11.27815
 Alpha  occ. eigenvalues --  -11.27792 -11.27536 -11.26808 -11.26795 -11.21532
 Alpha  occ. eigenvalues --  -11.21295 -11.21267 -11.21131 -11.21113 -11.20595
 Alpha  occ. eigenvalues --   -1.59959  -1.39513  -1.19409  -1.08816  -1.08245
 Alpha  occ. eigenvalues --   -1.04802  -1.03332  -0.95776  -0.95655  -0.86795
 Alpha  occ. eigenvalues --   -0.86205  -0.82488  -0.79419  -0.78075  -0.77538
 Alpha  occ. eigenvalues --   -0.72144  -0.71298  -0.70517  -0.65068  -0.64865
 Alpha  occ. eigenvalues --   -0.64804  -0.62154  -0.60721  -0.59162  -0.57392
 Alpha  occ. eigenvalues --   -0.55308  -0.55059  -0.53155  -0.52895  -0.52458
 Alpha  occ. eigenvalues --   -0.52209  -0.49719  -0.48909  -0.48901  -0.47740
 Alpha  occ. eigenvalues --   -0.46474  -0.45632  -0.45542  -0.44816  -0.43585
 Alpha  occ. eigenvalues --   -0.37352  -0.36378
 Alpha virt. eigenvalues --    0.04973   0.11196   0.16462   0.21293   0.22956
 Alpha virt. eigenvalues --    0.24337   0.26506   0.27078   0.27454   0.27860
 Alpha virt. eigenvalues --    0.28668   0.30712   0.31551   0.31745   0.31917

 Mulliken charges:
               1
     1  C   -0.297719
     2  C   -0.299680
     3  C   -0.475023
     4  H    0.148808
     5  H    0.146145
     6  H    0.154462
     7  H    0.151667
     8  H    0.152708
     9  H    0.153143
    10  H    0.160538
    11  C   -0.298964
    12  C   -0.301424
    13  C   -0.473030
    14  H    0.153899
    15  H    0.148108
    16  H    0.153552
    17  H    0.144990
    18  H    0.150851
    19  H    0.161793
    20  H    0.160455
    21  C   -0.170290
    22  C   -0.218004
    23  C   -0.171679
    24  C    0.155686
    25  C   -0.168959
    26  C   -0.218140
    27  H    0.225840
    28  H    0.223778
    29  H    0.275517
    30  H    0.275605
    31  H    0.223607
    32  N    0.489992
    33  O   -0.458753
    34  O   -0.459479
 Sum of Mulliken charges =  -0.00000

 Dipole moment (field-independent basis, Debye):
    X=             -0.3503    Y=             -3.8787    Z=             -3.3406  Tot=              5.1309
 Quadrupole moment (field-independent basis, Debye-Ang):
   XX=            -94.3442   YY=            -93.1786   ZZ=            -93.7094
   XY=              7.9787   XZ=              7.5418   YZ=             -3.1650

 Normal termination of Gaussian 16 at Thu May  6 07:18:30 2021.
