 Gaussian 16, Revision A.03,
 Gaussian 16:  EM64L-G16RevA.03 25-Dec-2016

 -------------
 #p 6-31g* mp2
 -------------

 ------------------------------------------------------
 Input file generated by CHIRIPA (05-May-2021 14:53:12)
 ------------------------------------------------------
 Symbolic Z-matrix:
 Charge =  0 Multiplicity = 1

                         Standard orientation:
 ---------------------------------------------------------------------
 Center     Atomic      Atomic             Coordinates (Angstroms)
 Number     Number       Type             X           Y           Z
 ---------------------------------------------------------------------
      1          6           0        3.055104    0.996001   -0.367087
      2          6           0        1.974939    2.067686   -0.517819
      3          6           0        2.516976    3.376544   -1.093041
      4          1           0        3.855170    1.379424    0.280852
      5          1           0        3.511840    0.805133   -1.348085
      6          1           0        1.519426    2.255481    0.462924
      7          1           0        1.177259    1.681596   -1.165320
      8          1           0        2.954065    3.210496   -2.082981
      9          1           0        3.298175    3.787642   -0.445486
     10          1           0        1.728054    4.128611   -1.192324
     11          6           0        2.528654   -0.318258    0.206762
     12          6           0        3.608819   -1.389943    0.357494
     13          6           0        3.066783   -2.698801    0.932716
     14          1           0        2.071918   -0.127390    1.187760
     15          1           0        1.728588   -0.701681   -0.441177
     16          1           0        4.406499   -1.003853    1.004995
     17          1           0        4.064333   -1.577738   -0.623249
     18          1           0        2.285583   -3.109899    0.285161
     19          1           0        2.629694   -2.532753    1.922657
     20          1           0        3.855705   -3.450868    1.031999
     21          6           0       -2.859728    1.936963    1.091194
     22          6           0       -3.677973    1.330499    0.132446
     23          6           0       -3.311960    0.110609   -0.444140
     24          6           0       -2.115554   -0.477596   -0.036811
     25          6           0       -1.278998    0.101774    0.915972
     26          6           0       -1.664959    1.321750    1.479213
     27          1           0       -3.151804    2.884636    1.533917
     28          1           0       -4.606404    1.805993   -0.170812
     29          1           0       -3.926607   -0.380836   -1.188524
     30          1           0       -0.359366   -0.396340    1.198066
     31          1           0       -1.027527    1.790439    2.223563
     32          7           0       -1.717513   -1.769085   -0.640153
     33          8           0       -0.658519   -2.266933   -0.264234
     34          8           0       -2.472060   -2.259050   -1.477548
 ---------------------------------------------------------------------

 SCF Done:  E(RHF) =  -669.535590989     A.U. after   15 cycles
 E2 =    -0.2094067108D+01 EUMP2 =    -0.67162965809683D+03

 The electronic state is 1-A.
 Alpha  occ. eigenvalues --  -20.60917 -20.60908 -15.85938 -11.31186 -11.27773
 Alpha  occ. eigenvalues --  -11.27691 -11.27502 -11.26762 -11.26739 -11.21753
 Alpha  occ. eigenvalues --  -11.21330 -11.21233 -11.21196 -11.21129 -11.20292
 Alpha  occ. eigenvalues --   -1.59975  -1.39532  -1.19364  -1.08785  -1.08304
 Alpha  occ. eigenvalues --   -1.04749  -1.03326  -0.95763  -0.95633  -0.86780
 Alpha  occ. eigenvalues --   -0.86154  -0.82475  -0.79430  -0.78266  -0.77399
 Alpha  occ. eigenvalues --   -0.72164  -0.71286  -0.70478  -0.65077  -0.64878
 Alpha  occ. eigenvalues --   -0.64763  -0.62108  -0.60718  -0.59177  -0.57371
 Alpha  occ. eigenvalues --   -0.55274  -0.55027  -0.53103  -0.52899  -0.52449
 Alpha  occ. eigenvalues --   -0.52122  -0.49712  -0.48941  -0.48904  -0.47712
 Alpha  occ. eigenvalues --   -0.46473  -0.45680  -0.45633  -0.44711  -0.43601
 Alpha  occ. eigenvalues --   -0.37350  -0.36308
 Alpha virt. eigenvalues --    0.04959   0.11240   0.16362   0.20544   0.23133
 Alpha virt. eigenvalues --    0.24242   0.25224   0.27244   0.27851   0.28249
 Alpha virt. eigenvalues --    0.29954   0.30199   0.31699   0.31870   0.32249

 Mulliken charges:
               1
     1  C   -0.297399
     2  C   -0.298948
     3  C   -0.475530
     4  H    0.147809
     5  H    0.152108
     6  H    0.142074
     7  H    0.154566
     8  H    0.157488
     9  H    0.154658
    10  H    0.157932
    11  C   -0.308053
    12  C   -0.298409
    13  C   -0.481012
    14  H    0.134307
    15  H    0.170118
    16  H    0.147541
    17  H    0.152905
    18  H    0.177979
    19  H    0.148748
    20  H    0.156906
    21  C   -0.170559
    22  C   -0.219202
    23  C   -0.170326
    24  C    0.154532
    25  C   -0.171271
    26  C   -0.220283
    27  H    0.225623
    28  H    0.223327
    29  H    0.275288
    30  H    0.285748
    31  H    0.223186
    32  N    0.490610
    33  O   -0.463331
    34  O   -0.459130
 Sum of Mulliken charges =  -0.00000

 Dipole moment (field-independent basis, Debye):
    X=             -1.4928    Y=              4.3710    Z=              1.9611  Tot=              5.0180
 Quadrupole moment (field-independent basis, Debye-Ang):
   XX=            -85.9815   YY=           -100.5843   ZZ=            -93.3149
   XY=             -9.5276   XZ=             -2.0117   YZ=             -0.2849

 Normal termination of Gaussian 16 at Thu May  6 13:41:40 2021.
