 Gaussian 16, Revision A.03,
 Gaussian 16:  EM64L-G16RevA.03 25-Dec-2016

 -------------
 #p 6-31g* mp2
 -------------

 ------------------------------------------------------
 Input file generated by CHIRIPA (05-May-2021 14:55:25)
 ------------------------------------------------------
 Symbolic Z-matrix:
 Charge =  0 Multiplicity = 1

                         Standard orientation:
 ---------------------------------------------------------------------
 Center     Atomic      Atomic             Coordinates (Angstroms)
 Number     Number       Type             X           Y           Z
 ---------------------------------------------------------------------
      1          6           0        5.201601   -0.319691   -0.617000
      2          6           0        4.358588   -1.435864   -0.619959
      3          6           0        3.032644   -1.325321   -0.190771
      4          6           0        2.580749   -0.077807    0.236766
      5          6           0        3.396182    1.052743    0.251459
      6          6           0        4.718559    0.918866   -0.182068
      7          1           0        6.230240   -0.414627   -0.952089
      8          1           0        4.731008   -2.398994   -0.957197
      9          1           0        2.358411   -2.173120   -0.182698
     10          1           0        2.996312    1.999673    0.593285
     11          1           0        5.370989    1.787410   -0.178684
     12          7           0        1.178920    0.051572    0.693424
     13          8           0        0.804965    1.161748    1.065315
     14          8           0        0.480665   -0.959648    0.670816
     15          6           0       -3.397420   -0.602647   -0.309409
     16          6           0       -4.467925   -1.596923    0.141610
     17          6           0       -4.049790   -3.052293   -0.070188
     18          1           0       -3.174372   -0.770644   -1.371940
     19          1           0       -2.467148   -0.801588    0.240512
     20          1           0       -5.396303   -1.395276   -0.407997
     21          1           0       -4.688588   -1.426413    1.203142
     22          1           0       -3.137089   -3.276508    0.491331
     23          1           0       -3.848825   -3.245193   -1.128962
     24          1           0       -4.829681   -3.746034    0.258982
     25          6           0       -3.800755    0.856418   -0.104040
     26          6           0       -2.730250    1.850695   -0.555058
     27          6           0       -3.148385    3.306064   -0.343259
     28          1           0       -4.731027    1.055360   -0.653960
     29          1           0       -4.023803    1.024415    0.958491
     30          1           0       -2.509587    1.680186   -1.616590
     31          1           0       -1.801872    1.649048   -0.005451
     32          1           0       -3.349349    3.498966    0.715515
     33          1           0       -4.061086    3.530280   -0.904778
     34          1           0       -2.368495    3.999806   -0.672430
 ---------------------------------------------------------------------

 SCF Done:  E(RHF) =  -669.537190342     A.U. after   15 cycles
 E2 =    -0.2092179353D+01 EUMP2 =    -0.67162936969521D+03

 The electronic state is 1-A.
 Alpha  occ. eigenvalues --  -20.61204 -20.61197 -15.86183 -11.31421 -11.27966
 Alpha  occ. eigenvalues --  -11.27963 -11.27690 -11.26952 -11.26943 -11.20374
 Alpha  occ. eigenvalues --  -11.20010 -11.19958 -11.19902 -11.19819 -11.19718
 Alpha  occ. eigenvalues --   -1.60227  -1.39786  -1.19575  -1.08997  -1.06967
 Alpha  occ. eigenvalues --   -1.04956  -1.02189  -0.95852  -0.94667  -0.86361
 Alpha  occ. eigenvalues --   -0.85694  -0.82691  -0.78246  -0.77755  -0.76751
 Alpha  occ. eigenvalues --   -0.72400  -0.71520  -0.70683  -0.65231  -0.64960
 Alpha  occ. eigenvalues --   -0.63587  -0.62303  -0.59583  -0.58045  -0.56274
 Alpha  occ. eigenvalues --   -0.55466  -0.53957  -0.53292  -0.53046  -0.51418
 Alpha  occ. eigenvalues --   -0.51103  -0.49230  -0.49191  -0.48593  -0.46585
 Alpha  occ. eigenvalues --   -0.45412  -0.44987  -0.44356  -0.44036  -0.42408
 Alpha  occ. eigenvalues --   -0.37546  -0.36551
 Alpha virt. eigenvalues --    0.04736   0.11106   0.16242   0.21239   0.24339
 Alpha virt. eigenvalues --    0.25570   0.27176   0.27952   0.28225   0.29049
 Alpha virt. eigenvalues --    0.29415   0.30871   0.32303   0.32649   0.33067

 Mulliken charges:
               1
     1  C   -0.170218
     2  C   -0.218642
     3  C   -0.170464
     4  C    0.158323
     5  C   -0.170314
     6  C   -0.218638
     7  H    0.226495
     8  H    0.224333
     9  H    0.276249
    10  H    0.276185
    11  H    0.224300
    12  N    0.489604
    13  O   -0.458280
    14  O   -0.458696
    15  C   -0.309434
    16  C   -0.297944
    17  C   -0.475338
    18  H    0.142186
    19  H    0.177483
    20  H    0.146393
    21  H    0.150289
    22  H    0.159362
    23  H    0.151325
    24  H    0.154789
    25  C   -0.295632
    26  C   -0.312267
    27  C   -0.473437
    28  H    0.141677
    29  H    0.148135
    30  H    0.142958
    31  H    0.180502
    32  H    0.154242
    33  H    0.148874
    34  H    0.155599
 Sum of Mulliken charges =  -0.00000

 Dipole moment (field-independent basis, Debye):
    X=              5.4999    Y=             -0.5230    Z=             -1.4356  Tot=              5.7082
 Quadrupole moment (field-independent basis, Debye-Ang):
   XX=            -71.2925   YY=            -91.9817   ZZ=            -95.5546
   XY=             -0.4767   XZ=             -3.1531   YZ=              1.1218

 Normal termination of Gaussian 16 at Wed May  5 16:10:35 2021.
