 Gaussian 16, Revision A.03,
 Gaussian 16:  EM64L-G16RevA.03 25-Dec-2016

 -------------
 #p 6-31g* mp2
 -------------

 ------------------------------------------------------
 Input file generated by CHIRIPA (05-May-2021 14:51:13)
 ------------------------------------------------------
 Symbolic Z-matrix:
 Charge =  0 Multiplicity = 1

                         Standard orientation:
 ---------------------------------------------------------------------
 Center     Atomic      Atomic             Coordinates (Angstroms)
 Number     Number       Type             X           Y           Z
 ---------------------------------------------------------------------
      1          6           0        3.786939    0.892407   -0.352670
      2          6           0        3.313617    2.067133    0.504051
      3          6           0        3.755545    3.420784   -0.052834
      4          1           0        4.882648    0.919593   -0.427691
      5          1           0        3.400598    1.013498   -1.374175
      6          1           0        3.699589    1.943144    1.523987
      7          1           0        2.218921    2.037037    0.577200
      8          1           0        3.358390    3.570399   -1.062033
      9          1           0        4.847471    3.475972   -0.109867
     10          1           0        3.406450    4.246506    0.575000
     11          6           0        3.352955   -0.467605    0.191160
     12          6           0        3.826277   -1.642331   -0.665561
     13          6           0        3.384348   -2.995982   -0.108676
     14          1           0        3.739296   -0.588696    1.212665
     15          1           0        2.257246   -0.494791    0.266181
     16          1           0        4.920973   -1.612235   -0.738710
     17          1           0        3.440305   -1.518342   -1.685496
     18          1           0        2.292422   -3.051170   -0.051643
     19          1           0        3.781503   -3.145597    0.900524
     20          1           0        3.733444   -3.821705   -0.736510
     21          6           0       -2.881985   -0.410274   -0.185679
     22          6           0       -1.934974   -0.921159    0.900668
     23          6           0       -0.562647   -1.313066    0.352105
     24          1           0       -3.000706   -1.186237   -0.954271
     25          1           0       -2.424266    0.455617   -0.683797
     26          1           0       -2.394949   -1.784977    1.397516
     27          1           0       -1.818644   -0.143963    1.666860
     28          1           0       -0.079668   -0.454970   -0.126436
     29          1           0       -0.659248   -2.105307   -0.397310
     30          1           0        0.098347   -1.675439    1.145600
     31          6           0       -4.257909   -0.014528    0.347189
     32          6           0       -5.204920    0.496357   -0.739158
     33          6           0       -6.577247    0.888265   -0.190595
     34          1           0       -4.715627   -0.880419    0.845306
     35          1           0       -4.139188    0.761434    1.115781
     36          1           0       -5.321249   -0.280839   -1.505350
     37          1           0       -4.744945    1.360175   -1.236006
     38          1           0       -6.480646    1.680506    0.558821
     39          1           0       -7.060226    0.030167    0.287946
     40          1           0       -7.238241    1.250637   -0.984090
 ---------------------------------------------------------------------

 SCF Done:  E(RHF) =  -470.732664284     A.U. after   11 cycles
 E2 =    -0.1583379277D+01 EUMP2 =    -0.47231604356070D+03

 The electronic state is 1-A.
 Alpha  occ. eigenvalues --  -11.21680 -11.21639 -11.21573 -11.21488 -11.21465
 Alpha  occ. eigenvalues --  -11.21402 -11.21306 -11.21189 -11.21167 -11.21100
 Alpha  occ. eigenvalues --  -11.21052 -11.20956  -1.08494  -1.08337  -1.03606
 Alpha  occ. eigenvalues --   -1.03450  -0.96063  -0.95898  -0.87092  -0.86915
 Alpha  occ. eigenvalues --   -0.79713  -0.79493  -0.78319  -0.78123  -0.65152
 Alpha  occ. eigenvalues --   -0.64961  -0.61008  -0.60863  -0.59458  -0.59229
 Alpha  occ. eigenvalues --   -0.57665  -0.57515  -0.55484  -0.55074  -0.52795
 Alpha  occ. eigenvalues --   -0.52595  -0.52489  -0.52323  -0.50129  -0.49726
 Alpha  occ. eigenvalues --   -0.47990  -0.47833  -0.46746  -0.46551  -0.45913
 Alpha  occ. eigenvalues --   -0.45789  -0.45667  -0.45438  -0.43777  -0.43691
 Alpha virt. eigenvalues --    0.21444   0.22998   0.23689   0.24450   0.25964
 Alpha virt. eigenvalues --    0.26503   0.27213   0.27367   0.27767   0.29503
 Alpha virt. eigenvalues --    0.30394   0.31144   0.31851   0.32085   0.32167

 Mulliken charges:
               1
     1  C   -0.297732
     2  C   -0.299586
     3  C   -0.475601
     4  H    0.149288
     5  H    0.148721
     6  H    0.151975
     7  H    0.150823
     8  H    0.154958
     9  H    0.155319
    10  H    0.159933
    11  C   -0.309387
    12  C   -0.298221
    13  C   -0.479946
    14  H    0.148004
    15  H    0.163374
    16  H    0.151185
    17  H    0.151237
    18  H    0.160068
    19  H    0.154313
    20  H    0.159528
    21  C   -0.298867
    22  C   -0.300097
    23  C   -0.480548
    24  H    0.149808
    25  H    0.149552
    26  H    0.152481
    27  H    0.152533
    28  H    0.156668
    29  H    0.155730
    30  H    0.163864
    31  C   -0.298362
    32  C   -0.299680
    33  C   -0.475746
    34  H    0.149732
    35  H    0.149811
    36  H    0.152007
    37  H    0.151951
    38  H    0.155261
    39  H    0.155265
    40  H    0.160384
 Sum of Mulliken charges =  -0.00000

 Dipole moment (field-independent basis, Debye):
    X=             -0.0883    Y=             -0.0157    Z=              0.0143  Tot=              0.0908
 Quadrupole moment (field-independent basis, Debye-Ang):
   XX=            -85.3433   YY=            -85.1514   ZZ=            -84.6113
   XY=              0.4160   XZ=              0.8615   YZ=              0.3214

 Normal termination of Gaussian 16 at Thu May  6 03:59:08 2021.
