 Gaussian 16, Revision A.03,
 Gaussian 16:  EM64L-G16RevA.03 25-Dec-2016

 -------------
 #p 6-31g* mp2
 -------------

 ------------------------------------------------------
 Input file generated by CHIRIPA (05-May-2021 14:53:14)
 ------------------------------------------------------
 Symbolic Z-matrix:
 Charge =  0 Multiplicity = 1

                         Standard orientation:
 ---------------------------------------------------------------------
 Center     Atomic      Atomic             Coordinates (Angstroms)
 Number     Number       Type             X           Y           Z
 ---------------------------------------------------------------------
      1          6           0        3.355161   -0.581352    0.175256
      2          6           0        4.091680   -1.873402   -0.179895
      3          6           0        3.663897   -3.055912    0.689857
      4          1           0        3.533649   -0.343915    1.232947
      5          1           0        2.273487   -0.743161    0.069454
      6          1           0        5.171714   -1.708796   -0.074789
      7          1           0        3.911573   -2.107688   -1.236913
      8          1           0        2.591992   -3.248537    0.577982
      9          1           0        3.859293   -2.847379    1.746709
     10          1           0        4.202796   -3.969189    0.418983
     11          6           0        3.771998    0.609823   -0.685602
     12          6           0        3.035479    1.901873   -0.330452
     13          6           0        3.463261    3.084382   -1.200203
     14          1           0        4.853672    0.771632   -0.579800
     15          1           0        3.593509    0.372386   -1.743293
     16          1           0        3.215585    2.136159    0.726567
     17          1           0        1.955445    1.737267   -0.435557
     18          1           0        3.267866    2.875849   -2.257055
     19          1           0        4.535166    3.277008   -1.088329
     20          1           0        2.924362    3.997659   -0.929329
     21          6           0       -1.066896    0.850619    1.834811
     22          6           0       -2.288857    1.515219    1.687711
     23          6           0       -3.247693    1.046696    0.784567
     24          6           0       -2.950054   -0.094431    0.041244
     25          6           0       -1.741803   -0.778574    0.165211
     26          6           0       -0.797743   -0.292141    1.074432
     27          1           0       -0.327789    1.221536    2.538756
     28          1           0       -2.500610    2.402939    2.276913
     29          1           0       -4.201829    1.541808    0.650753
     30          1           0       -1.559442   -1.660996   -0.436032
     31          1           0        0.150396   -0.810312    1.186582
     32          7           0       -3.957308   -0.599915   -0.918091
     33          8           0       -3.670837   -1.607362   -1.561225
     34          8           0       -5.014195    0.020904   -1.008717
 ---------------------------------------------------------------------

 SCF Done:  E(RHF) =  -669.535736742     A.U. after   15 cycles
 E2 =    -0.2091619006D+01 EUMP2 =    -0.67162735574834D+03

 The electronic state is 1-A.
 Alpha  occ. eigenvalues --  -20.60763 -20.60758 -15.85817 -11.31183 -11.27756
 Alpha  occ. eigenvalues --  -11.27751 -11.27488 -11.26762 -11.26727 -11.22333
 Alpha  occ. eigenvalues --  -11.22274 -11.22249 -11.22048 -11.21806 -11.21575
 Alpha  occ. eigenvalues --   -1.59839  -1.39393  -1.19356  -1.09173  -1.08745
 Alpha  occ. eigenvalues --   -1.04759  -1.04202  -0.96658  -0.95581  -0.87670
 Alpha  occ. eigenvalues --   -0.86154  -0.82416  -0.80273  -0.79028  -0.77459
 Alpha  occ. eigenvalues --   -0.72035  -0.71162  -0.70454  -0.65832  -0.65005
 Alpha  occ. eigenvalues --   -0.64739  -0.62117  -0.61583  -0.60026  -0.58274
 Alpha  occ. eigenvalues --   -0.55953  -0.55246  -0.53325  -0.53132  -0.53081
 Alpha  occ. eigenvalues --   -0.52814  -0.50591  -0.48802  -0.48790  -0.48581
 Alpha  occ. eigenvalues --   -0.47302  -0.46524  -0.46451  -0.44798  -0.44479
 Alpha  occ. eigenvalues --   -0.37322  -0.36353
 Alpha virt. eigenvalues --    0.05066   0.11189   0.16511   0.20006   0.22657
 Alpha virt. eigenvalues --    0.23381   0.25164   0.26199   0.27296   0.28257
 Alpha virt. eigenvalues --    0.29180   0.30172   0.31106   0.31342   0.31800

 Mulliken charges:
               1
     1  C   -0.303676
     2  C   -0.299911
     3  C   -0.476348
     4  H    0.147360
     5  H    0.145032
     6  H    0.155098
     7  H    0.155401
     8  H    0.150667
     9  H    0.154983
    10  H    0.165042
    11  C   -0.297847
    12  C   -0.302707
    13  C   -0.475824
    14  H    0.152073
    15  H    0.153254
    16  H    0.147986
    17  H    0.153680
    18  H    0.158062
    19  H    0.156260
    20  H    0.160780
    21  C   -0.171761
    22  C   -0.218702
    23  C   -0.170889
    24  C    0.158623
    25  C   -0.172802
    26  C   -0.222872
    27  H    0.226714
    28  H    0.223426
    29  H    0.275613
    30  H    0.275146
    31  H    0.231015
    32  N    0.488114
    33  O   -0.460538
    34  O   -0.460453
 Sum of Mulliken charges =  -0.00000

 Dipole moment (field-independent basis, Debye):
    X=              3.6993    Y=              1.7979    Z=              3.3134  Tot=              5.2816
 Quadrupole moment (field-independent basis, Debye-Ang):
   XX=           -113.1279   YY=            -93.2651   ZZ=            -94.6197
   XY=             -8.4836   XZ=            -10.4819   YZ=              1.5560

 Normal termination of Gaussian 16 at Thu May  6 07:25:19 2021.
