 Gaussian 16, Revision A.03,
 Gaussian 16:  EM64L-G16RevA.03 25-Dec-2016

 -------------
 #p 6-31g* mp2
 -------------

 ------------------------------------------------------
 Input file generated by CHIRIPA (05-May-2021 14:53:16)
 ------------------------------------------------------
 Symbolic Z-matrix:
 Charge =  0 Multiplicity = 1

                         Standard orientation:
 ---------------------------------------------------------------------
 Center     Atomic      Atomic             Coordinates (Angstroms)
 Number     Number       Type             X           Y           Z
 ---------------------------------------------------------------------
      1          6           0       -3.011068    0.663357    0.110225
      2          6           0       -3.135703   -0.679483   -0.610353
      3          6           0       -4.429016   -1.418115   -0.264579
      4          1           0       -3.060780    0.496216    1.194908
      5          1           0       -3.874077    1.292170   -0.149014
      6          1           0       -2.272009   -1.305057   -0.350920
      7          1           0       -3.085497   -0.509147   -1.693442
      8          1           0       -5.301485   -0.816613   -0.539520
      9          1           0       -4.483376   -1.617045    0.810629
     10          1           0       -4.497533   -2.375435   -0.790606
     11          6           0       -1.723347    1.413668   -0.225237
     12          6           0       -1.598712    2.756508    0.495340
     13          6           0       -0.305399    3.495139    0.149566
     14          1           0       -0.860338    0.784854    0.034002
     15          1           0       -1.673635    1.580808   -1.309921
     16          1           0       -1.648918    2.586172    1.578429
     17          1           0       -2.462406    3.382082    0.235907
     18          1           0       -0.251039    3.694070   -0.925642
     19          1           0        0.567071    2.893637    0.424508
     20          1           0       -0.236882    4.452459    0.675593
     21          6           0        0.058162   -2.492211    0.621228
     22          6           0        0.722414   -1.800273    1.639320
     23          6           0        1.716560   -0.866691    1.331673
     24          6           0        2.022549   -0.648837   -0.010788
     25          6           0        1.378647   -1.322358   -1.047634
     26          6           0        0.387818   -2.251470   -0.716641
     27          1           0       -0.712827   -3.215704    0.869283
     28          1           0        0.468476   -1.985201    2.679205
     29          1           0        2.246604   -0.317009    2.099996
     30          1           0        1.653668   -1.116569   -2.074976
     31          1           0       -0.126393   -2.787370   -1.509386
     32          7           0        3.073251    0.337138   -0.348837
     33          8           0        3.324354    0.510963   -1.539370
     34          8           0        3.625795    0.917451    0.583134
 ---------------------------------------------------------------------

 SCF Done:  E(RHF) =  -669.534296335     A.U. after   15 cycles
 E2 =    -0.2095679366D+01 EUMP2 =    -0.67162997570116D+03

 The electronic state is 1-A.
 Alpha  occ. eigenvalues --  -20.60880 -20.60875 -15.85932 -11.31337 -11.27917
 Alpha  occ. eigenvalues --  -11.27869 -11.27634 -11.26934 -11.26890 -11.21913
 Alpha  occ. eigenvalues --  -11.21607 -11.21590 -11.21527 -11.21351 -11.20796
 Alpha  occ. eigenvalues --   -1.59951  -1.39503  -1.19526  -1.08924  -1.08563
 Alpha  occ. eigenvalues --   -1.04917  -1.03674  -0.96110  -0.95734  -0.87122
 Alpha  occ. eigenvalues --   -0.86314  -0.82554  -0.79765  -0.78371  -0.77593
 Alpha  occ. eigenvalues --   -0.72146  -0.71275  -0.70621  -0.65279  -0.65142
 Alpha  occ. eigenvalues --   -0.64898  -0.62254  -0.61089  -0.59526  -0.57718
 Alpha  occ. eigenvalues --   -0.55444  -0.55377  -0.53404  -0.52998  -0.52767
 Alpha  occ. eigenvalues --   -0.52522  -0.50064  -0.48910  -0.48899  -0.48084
 Alpha  occ. eigenvalues --   -0.46842  -0.45890  -0.45674  -0.44891  -0.43905
 Alpha  occ. eigenvalues --   -0.37396  -0.36482
 Alpha virt. eigenvalues --    0.04903   0.11054   0.16325   0.20882   0.22872
 Alpha virt. eigenvalues --    0.24016   0.26430   0.26767   0.27721   0.27722
 Alpha virt. eigenvalues --    0.28339   0.30641   0.31259   0.31611   0.32157

 Mulliken charges:
               1
     1  C   -0.295918
     2  C   -0.307558
     3  C   -0.475456
     4  H    0.146530
     5  H    0.150215
     6  H    0.154455
     7  H    0.150527
     8  H    0.158362
     9  H    0.152532
    10  H    0.155923
    11  C   -0.304394
    12  C   -0.299703
    13  C   -0.476202
    14  H    0.156447
    15  H    0.149078
    16  H    0.149244
    17  H    0.151137
    18  H    0.157247
    19  H    0.157543
    20  H    0.161171
    21  C   -0.173204
    22  C   -0.217885
    23  C   -0.173558
    24  C    0.159637
    25  C   -0.171096
    26  C   -0.214619
    27  H    0.227766
    28  H    0.224378
    29  H    0.276429
    30  H    0.276442
    31  H    0.225797
    32  N    0.488257
    33  O   -0.459149
    34  O   -0.460375
 Sum of Mulliken charges =  -0.00000

 Dipole moment (field-independent basis, Debye):
    X=             -3.5136    Y=             -3.4683    Z=              1.1665  Tot=              5.0729
 Quadrupole moment (field-independent basis, Debye-Ang):
   XX=           -111.4770   YY=            -90.8244   ZZ=            -89.4577
   XY=             -5.3901   XZ=              3.7110   YZ=             -0.0553

 Normal termination of Gaussian 16 at Thu May  6 01:10:29 2021.
