 Gaussian 16, Revision A.03,
 Gaussian 16:  EM64L-G16RevA.03 25-Dec-2016

 -------------
 #p 6-31g* mp2
 -------------

 ------------------------------------------------------
 Input file generated by CHIRIPA (05-May-2021 14:55:22)
 ------------------------------------------------------
 Symbolic Z-matrix:
 Charge =  0 Multiplicity = 1

                         Standard orientation:
 ---------------------------------------------------------------------
 Center     Atomic      Atomic             Coordinates (Angstroms)
 Number     Number       Type             X           Y           Z
 ---------------------------------------------------------------------
      1          6           0       -5.115153    0.642284   -0.039426
      2          6           0       -4.860183   -0.639592    0.458876
      3          6           0       -3.561261   -1.156647    0.457162
      4          6           0       -2.536459   -0.360936   -0.052658
      5          6           0       -2.758601    0.919888   -0.556079
      6          6           0       -4.065399    1.416567   -0.544423
      7          1           0       -6.127247    1.036030   -0.034233
      8          1           0       -5.673485   -1.243156    0.851681
      9          1           0       -3.335731   -2.145804    0.836798
     10          1           0       -1.927304    1.497895   -0.941138
     11          1           0       -4.260463    2.412427   -0.932054
     12          7           0       -1.157179   -0.897533   -0.059735
     13          8           0       -0.271684   -0.176540   -0.514382
     14          8           0       -0.987711   -2.028951    0.389499
     15          6           0        3.847890   -0.219900   -0.338764
     16          6           0        3.785392   -1.573077    0.370455
     17          6           0        4.410029   -2.700792   -0.451665
     18          1           0        3.335279   -0.296743   -1.307407
     19          1           0        4.896752    0.022922   -0.558583
     20          1           0        2.737069   -1.812632    0.590107
     21          1           0        4.298046   -1.492952    1.337606
     22          1           0        5.463725   -2.488125   -0.659266
     23          1           0        3.893879   -2.809621   -1.411012
     24          1           0        4.354532   -3.659116    0.074069
     25          6           0        3.227389    0.917496    0.470581
     26          6           0        3.289887    2.270673   -0.238637
     27          6           0        2.665251    3.398388    0.583483
     28          1           0        2.178528    0.674673    0.690401
     29          1           0        3.740001    0.994339    1.439224
     30          1           0        2.777233    2.190548   -1.205789
     31          1           0        4.338211    2.510227   -0.458289
     32          1           0        3.181401    3.507217    1.542830
     33          1           0        1.611554    3.185721    0.791083
     34          1           0        2.720748    4.356712    0.057748
 ---------------------------------------------------------------------

 SCF Done:  E(RHF) =  -669.536790549     A.U. after   15 cycles
 E2 =    -0.2091492932D+01 EUMP2 =    -0.67162828348073D+03

 The electronic state is 1-A.
 Alpha  occ. eigenvalues --  -20.61130 -20.61124 -15.86138 -11.31396 -11.27949
 Alpha  occ. eigenvalues --  -11.27945 -11.27674 -11.26941 -11.26931 -11.20507
 Alpha  occ. eigenvalues --  -11.20285 -11.20052 -11.19912 -11.19831 -11.19801
 Alpha  occ. eigenvalues --   -1.60175  -1.39734  -1.19556  -1.08973  -1.07035
 Alpha  occ. eigenvalues --   -1.04942  -1.02291  -0.95826  -0.94760  -0.86345
 Alpha  occ. eigenvalues --   -0.85794  -0.82662  -0.78354  -0.77723  -0.76830
 Alpha  occ. eigenvalues --   -0.72364  -0.71480  -0.70664  -0.65215  -0.64945
 Alpha  occ. eigenvalues --   -0.63619  -0.62289  -0.59677  -0.58157  -0.56376
 Alpha  occ. eigenvalues --   -0.55449  -0.54041  -0.53277  -0.53031  -0.51525
 Alpha  occ. eigenvalues --   -0.51213  -0.49130  -0.49117  -0.48709  -0.46693
 Alpha  occ. eigenvalues --   -0.45420  -0.45133  -0.44406  -0.44117  -0.42495
 Alpha  occ. eigenvalues --   -0.37530  -0.36539
 Alpha virt. eigenvalues --    0.04775   0.11116   0.16268   0.21211   0.24177
 Alpha virt. eigenvalues --    0.25412   0.27158   0.27725   0.28383   0.28903
 Alpha virt. eigenvalues --    0.29281   0.30891   0.32045   0.32627   0.33095

 Mulliken charges:
               1
     1  C   -0.170344
     2  C   -0.218588
     3  C   -0.170470
     4  C    0.157899
     5  C   -0.170761
     6  C   -0.218530
     7  H    0.226429
     8  H    0.224196
     9  H    0.276070
    10  H    0.275833
    11  H    0.224336
    12  N    0.489860
    13  O   -0.461885
    14  O   -0.458540
    15  C   -0.295090
    16  C   -0.304220
    17  C   -0.474666
    18  H    0.154372
    19  H    0.141088
    20  H    0.170362
    21  H    0.144789
    22  H    0.149283
    23  H    0.155861
    24  H    0.157061
    25  C   -0.305326
    26  C   -0.297876
    27  C   -0.474893
    28  H    0.171661
    29  H    0.141423
    30  H    0.152835
    31  H    0.146958
    32  H    0.152905
    33  H    0.153439
    34  H    0.154527
 Sum of Mulliken charges =  -0.00000

 Dipole moment (field-independent basis, Debye):
    X=             -5.3241    Y=              1.7435    Z=             -0.0015  Tot=              5.6023
 Quadrupole moment (field-independent basis, Debye-Ang):
   XX=            -71.0061   YY=            -94.2845   ZZ=            -94.8214
   XY=             -1.2213   XZ=             -0.1437   YZ=             -2.6777

 Normal termination of Gaussian 16 at Thu May  6 07:49:15 2021.
