 Gaussian 16, Revision A.03,
 Gaussian 16:  EM64L-G16RevA.03 25-Dec-2016

 -------------
 #p 6-31g* mp2
 -------------

 ------------------------------------------------------
 Input file generated by CHIRIPA (05-May-2021 14:57:22)
 ------------------------------------------------------
 Symbolic Z-matrix:
 Charge =  0 Multiplicity = 1

                         Standard orientation:
 ---------------------------------------------------------------------
 Center     Atomic      Atomic             Coordinates (Angstroms)
 Number     Number       Type             X           Y           Z
 ---------------------------------------------------------------------
      1          6           0       -1.572725    1.035214    0.928460
      2          6           0       -1.595600   -0.314432    0.561780
      3          6           0       -2.770843   -0.899900    0.081595
      4          6           0       -3.909981   -0.102754   -0.019462
      5          6           0       -3.918924    1.244664    0.337855
      6          6           0       -2.732416    1.809090    0.815526
      7          1           0       -0.655393    1.481847    1.300502
      8          1           0       -0.696475   -0.917849    0.648426
      9          1           0       -2.816553   -1.942340   -0.209349
     10          1           0       -4.831093    1.820730    0.240312
     11          1           0       -2.717587    2.857496    1.099553
     12          7           0       -5.160121   -0.711424   -0.526481
     13          8           0       -6.150299    0.012349   -0.606081
     14          8           0       -5.126132   -1.900749   -0.834683
     15          6           0        4.334343   -2.408147    0.332890
     16          6           0        3.204248   -1.868421    0.955866
     17          6           0        2.845487   -0.534030    0.743163
     18          6           0        3.642997    0.235484   -0.102481
     19          6           0        4.774814   -0.273346   -0.737599
     20          6           0        5.114645   -1.610294   -0.510368
     21          1           0        4.605685   -3.445726    0.503765
     22          1           0        2.596399   -2.485693    1.611257
     23          1           0        1.975786   -0.090680    1.212716
     24          1           0        5.361180    0.366743   -1.385579
     25          1           0        5.992835   -2.026779   -0.995513
     26          7           0        3.273214    1.649497   -0.335350
     27          8           0        3.992343    2.306535   -1.084877
     28          8           0        2.271250    2.073986    0.236064
 ---------------------------------------------------------------------

 SCF Done:  E(RHF) =  -868.338570624     A.U. after   16 cycles
 E2 =    -0.2599565231D+01 EUMP2 =    -0.87093813585506D+03

 The electronic state is 1-A.
 Alpha  occ. eigenvalues --  -20.61793 -20.61742 -20.60579 -20.60568 -15.86816
 Alpha  occ. eigenvalues --  -15.85631 -11.32106 -11.30918 -11.28764 -11.28589
 Alpha  occ. eigenvalues --  -11.28320 -11.27685 -11.27579 -11.27564 -11.27476
 Alpha  occ. eigenvalues --  -11.27111 -11.26567 -11.26388  -1.60825  -1.59654
 Alpha  occ. eigenvalues --   -1.40390  -1.39210  -1.20254  -1.19091  -1.09645
 Alpha  occ. eigenvalues --   -1.08473  -1.05657  -1.04505  -0.96507  -0.95319
 Alpha  occ. eigenvalues --   -0.87050  -0.85899  -0.83355  -0.82170  -0.78429
 Alpha  occ. eigenvalues --   -0.77256  -0.73049  -0.72134  -0.71851  -0.71357
 Alpha  occ. eigenvalues --   -0.70978  -0.70113  -0.65911  -0.65657  -0.64742
 Alpha  occ. eigenvalues --   -0.64537  -0.63016  -0.61866  -0.56116  -0.54891
 Alpha  occ. eigenvalues --   -0.53965  -0.53747  -0.52812  -0.52600  -0.49807
 Alpha  occ. eigenvalues --   -0.49761  -0.48609  -0.48601  -0.45808  -0.44634
 Alpha  occ. eigenvalues --   -0.38191  -0.37254  -0.37012  -0.36120
 Alpha virt. eigenvalues --    0.04099   0.05317   0.10380   0.11547   0.15612
 Alpha virt. eigenvalues --    0.16837   0.18635   0.22041   0.25217   0.26656
 Alpha virt. eigenvalues --    0.27739   0.29017   0.30506   0.31252   0.32091

 Mulliken charges:
               1
     1  C   -0.172683
     2  C   -0.220337
     3  C   -0.170885
     4  C    0.157537
     5  C   -0.170435
     6  C   -0.219576
     7  H    0.241789
     8  H    0.211981
     9  H    0.272816
    10  H    0.275315
    11  H    0.226631
    12  N    0.488256
    13  O   -0.460507
    14  O   -0.462509
    15  C   -0.169693
    16  C   -0.219458
    17  C   -0.173532
    18  C    0.160183
    19  C   -0.169610
    20  C   -0.217680
    21  H    0.229231
    22  H    0.223958
    23  H    0.267893
    24  H    0.278258
    25  H    0.227186
    26  N    0.491452
    27  O   -0.454094
    28  O   -0.471486
 Sum of Mulliken charges =  -0.00000

 Dipole moment (field-independent basis, Debye):
    X=              6.0990    Y=             -2.7355    Z=              2.5209  Tot=              7.1440
 Quadrupole moment (field-independent basis, Debye-Ang):
   XX=           -125.0515   YY=           -104.0135   ZZ=           -104.5313
   XY=            -29.5105   XZ=             -7.7173   YZ=              0.6493

 Normal termination of Gaussian 16 at Fri May  7 07:57:32 2021.
