 Gaussian 16, Revision A.03,
 Gaussian 16:  EM64L-G16RevA.03 25-Dec-2016

 -------------
 #p 6-31g* mp2
 -------------

 ------------------------------------------------------
 Input file generated by CHIRIPA (05-May-2021 14:57:26)
 ------------------------------------------------------
 Symbolic Z-matrix:
 Charge =  0 Multiplicity = 1

                         Standard orientation:
 ---------------------------------------------------------------------
 Center     Atomic      Atomic             Coordinates (Angstroms)
 Number     Number       Type             X           Y           Z
 ---------------------------------------------------------------------
      1          6           0        2.900815    2.426929    0.668887
      2          6           0        3.669948    1.653144    1.544223
      3          6           0        3.999817    0.333280    1.222206
      4          6           0        3.541806   -0.183193    0.011103
      5          6           0        2.773840    0.562474   -0.881924
      6          6           0        2.456000    1.880089   -0.539263
      7          1           0        2.649238    3.451358    0.927056
      8          1           0        4.016769    2.075205    2.483171
      9          1           0        4.593789   -0.288060    1.881412
     10          1           0        2.442565    0.114107   -1.810710
     11          1           0        1.858528    2.478683   -1.220994
     12          7           0        3.884656   -1.579284   -0.340729
     13          8           0        3.468945   -2.010966   -1.413796
     14          8           0        4.562601   -2.215422    0.463234
     15          6           0       -1.201204    0.648414   -0.884791
     16          6           0       -1.363687   -0.565719   -0.209512
     17          6           0       -2.624601   -0.961101    0.246906
     18          6           0       -3.706118   -0.114119    0.009769
     19          6           0       -3.576368    1.101590   -0.659936
     20          6           0       -2.306115    1.476733   -1.107456
     21          1           0       -0.218069    0.947695   -1.235891
     22          1           0       -0.507386   -1.211010   -0.035173
     23          1           0       -2.778746   -1.895713    0.772411
     24          1           0       -4.448813    1.723693   -0.818826
     25          1           0       -2.182901    2.420203   -1.631600
     26          7           0       -5.045935   -0.521980    0.488247
     27          8           0       -5.982845    0.242073    0.266751
     28          8           0       -5.133803   -1.597990    1.075716
 ---------------------------------------------------------------------

 SCF Done:  E(RHF) =  -868.336569674     A.U. after   16 cycles
 E2 =    -0.2601232495D+01 EUMP2 =    -0.87093780216953D+03

 The electronic state is 1-A.
 Alpha  occ. eigenvalues --  -20.61713 -20.61693 -20.60874 -20.60865 -15.86766
 Alpha  occ. eigenvalues --  -15.85927 -11.32280 -11.31339 -11.28939 -11.28789
 Alpha  occ. eigenvalues --  -11.28567 -11.27980 -11.27939 -11.27871 -11.27792
 Alpha  occ. eigenvalues --  -11.27683 -11.27011 -11.26885  -1.60783  -1.59947
 Alpha  occ. eigenvalues --   -1.40331  -1.39499  -1.20463  -1.19520  -1.09809
 Alpha  occ. eigenvalues --   -1.08922  -1.05904  -1.04925  -0.96622  -0.95749
 Alpha  occ. eigenvalues --   -0.87269  -0.86328  -0.83479  -0.82568  -0.78508
 Alpha  occ. eigenvalues --   -0.77597  -0.72971  -0.72146  -0.72120  -0.71533
 Alpha  occ. eigenvalues --   -0.71270  -0.70694  -0.66105  -0.65889  -0.65176
 Alpha  occ. eigenvalues --   -0.64941  -0.63234  -0.62266  -0.56332  -0.55583
 Alpha  occ. eigenvalues --   -0.54105  -0.53959  -0.53252  -0.53017  -0.49744
 Alpha  occ. eigenvalues --   -0.49722  -0.48908  -0.48896  -0.45703  -0.44893
 Alpha  occ. eigenvalues --   -0.38411  -0.37662  -0.37338  -0.36524
 Alpha virt. eigenvalues --    0.04001   0.04923   0.10097   0.11119   0.15295
 Alpha virt. eigenvalues --    0.16416   0.19184   0.21934   0.25331   0.26593
 Alpha virt. eigenvalues --    0.27426   0.29386   0.29879   0.31203   0.32464

 Mulliken charges:
               1
     1  C   -0.169426
     2  C   -0.217596
     3  C   -0.169473
     4  C    0.157798
     5  C   -0.178189
     6  C   -0.221058
     7  H    0.229707
     8  H    0.228395
     9  H    0.279499
    10  H    0.275056
    11  H    0.219732
    12  N    0.487312
    13  O   -0.460370
    14  O   -0.456000
    15  C   -0.170066
    16  C   -0.220667
    17  C   -0.170549
    18  C    0.158516
    19  C   -0.170627
    20  C   -0.220891
    21  H    0.219920
    22  H    0.228240
    23  H    0.277750
    24  H    0.275445
    25  H    0.219321
    26  N    0.487929
    27  O   -0.460706
    28  O   -0.459001
 Sum of Mulliken charges =  -0.00000

 Dipole moment (field-independent basis, Debye):
    X=              3.7852    Y=              6.2881    Z=             -0.1947  Tot=              7.3421
 Quadrupole moment (field-independent basis, Debye-Ang):
   XX=           -146.3579   YY=           -103.9183   ZZ=           -101.2909
   XY=             10.0453   XZ=             14.5500   YZ=             -1.9506

 Normal termination of Gaussian 16 at Thu May  6 09:58:00 2021.
