 Gaussian 16, Revision A.03,
 Gaussian 16:  EM64L-G16RevA.03 25-Dec-2016

 -------------
 #p 6-31g* mp2
 -------------

 ------------------------------------------------------
 Input file generated by CHIRIPA (05-May-2021 14:51:10)
 ------------------------------------------------------
 Symbolic Z-matrix:
 Charge =  0 Multiplicity = 1

                         Standard orientation:
 ---------------------------------------------------------------------
 Center     Atomic      Atomic             Coordinates (Angstroms)
 Number     Number       Type             X           Y           Z
 ---------------------------------------------------------------------
      1          6           0        4.626831   -0.659859    0.119552
      2          6           0        5.838470   -0.014969   -0.554269
      3          6           0        7.037702   -0.959293   -0.643086
      4          1           0        4.909528   -0.991682    1.127977
      5          1           0        4.343107   -1.562855   -0.438564
      6          1           0        6.118971    0.887306    0.004152
      7          1           0        5.552803    0.315529   -1.561136
      8          1           0        6.781102   -1.854811   -1.218242
      9          1           0        7.350487   -1.279786    0.355939
     10          1           0        7.892641   -0.477978   -1.128137
     11          6           0        3.419964    0.271776    0.215766
     12          6           0        2.208326   -0.373113    0.889587
     13          6           0        1.009093    0.571211    0.978404
     14          1           0        3.703688    1.174772    0.773882
     15          1           0        3.137267    0.603599   -0.792659
     16          1           0        2.493993   -0.703612    1.896454
     17          1           0        1.927825   -1.275389    0.331166
     18          1           0        0.696308    0.891703   -0.020621
     19          1           0        1.265693    1.466729    1.553560
     20          1           0        0.154154    0.089895    1.463455
     21          6           0       -4.171821   -0.543667   -0.036552
     22          6           0       -5.628114   -0.925891   -0.303195
     23          6           0       -5.909461   -2.404899   -0.036409
     24          1           0       -3.516152   -1.162210   -0.664604
     25          1           0       -3.922276   -0.783011    1.006442
     26          1           0       -5.875244   -0.684617   -1.344986
     27          1           0       -6.280402   -0.306233    0.325425
     28          1           0       -5.690335   -2.656758    1.006257
     29          1           0       -5.282874   -3.037291   -0.673645
     30          1           0       -6.956291   -2.656322   -0.233365
     31          6           0       -3.874975    0.931750   -0.298766
     32          6           0       -2.418681    1.313974   -0.032123
     33          6           0       -2.137334    2.792981   -0.298909
     34          1           0       -4.124519    1.171094   -1.341760
     35          1           0       -4.530645    1.550292    0.329286
     36          1           0       -1.766394    0.694317   -0.660742
     37          1           0       -2.171552    1.072700    1.009668
     38          1           0       -2.763921    3.425374    0.338327
     39          1           0       -2.356460    3.044841   -1.341575
     40          1           0       -1.090504    3.044404   -0.101953
 ---------------------------------------------------------------------

 SCF Done:  E(RHF) =  -470.732419920     A.U. after   11 cycles
 E2 =    -0.1583164012D+01 EUMP2 =    -0.47231558393197D+03

 The electronic state is 1-A.
 Alpha  occ. eigenvalues --  -11.21596 -11.21578 -11.21564 -11.21471 -11.21393
 Alpha  occ. eigenvalues --  -11.21359 -11.21334 -11.21284 -11.21068 -11.21056
 Alpha  occ. eigenvalues --  -11.20982 -11.20980  -1.08423  -1.08370  -1.03555
 Alpha  occ. eigenvalues --   -1.03432  -0.96017  -0.95873  -0.86989  -0.86939
 Alpha  occ. eigenvalues --   -0.79709  -0.79426  -0.78265  -0.78143  -0.65066
 Alpha  occ. eigenvalues --   -0.64997  -0.60988  -0.60822  -0.59450  -0.59195
 Alpha  occ. eigenvalues --   -0.57640  -0.57495  -0.55286  -0.55165  -0.52720
 Alpha  occ. eigenvalues --   -0.52602  -0.52455  -0.52224  -0.49950  -0.49837
 Alpha  occ. eigenvalues --   -0.47934  -0.47796  -0.46695  -0.46486  -0.45806
 Alpha  occ. eigenvalues --   -0.45730  -0.45686  -0.45590  -0.43788  -0.43646
 Alpha virt. eigenvalues --    0.22035   0.23046   0.23509   0.24816   0.26020
 Alpha virt. eigenvalues --    0.26570   0.26776   0.27288   0.27885   0.29170
 Alpha virt. eigenvalues --    0.30051   0.31150   0.31207   0.31841   0.32430

 Mulliken charges:
               1
     1  C   -0.298193
     2  C   -0.299606
     3  C   -0.475688
     4  H    0.149644
     5  H    0.149434
     6  H    0.151910
     7  H    0.151872
     8  H    0.155148
     9  H    0.155174
    10  H    0.160226
    11  C   -0.298529
    12  C   -0.300576
    13  C   -0.477280
    14  H    0.149403
    15  H    0.149414
    16  H    0.151542
    17  H    0.151613
    18  H    0.158336
    19  H    0.153858
    20  H    0.162746
    21  C   -0.298126
    22  C   -0.299516
    23  C   -0.475663
    24  H    0.149333
    25  H    0.148945
    26  H    0.151878
    27  H    0.151928
    28  H    0.155087
    29  H    0.155051
    30  H    0.160177
    31  C   -0.298244
    32  C   -0.299354
    33  C   -0.479066
    34  H    0.148926
    35  H    0.149153
    36  H    0.152516
    37  H    0.154078
    38  H    0.154801
    39  H    0.154291
    40  H    0.163354
 Sum of Mulliken charges =  -0.00000

 Dipole moment (field-independent basis, Debye):
    X=              0.0106    Y=              0.0032    Z=              0.0113  Tot=              0.0158
 Quadrupole moment (field-independent basis, Debye-Ang):
   XX=            -85.9466   YY=            -86.1020   ZZ=            -83.0364
   XY=              0.2397   XZ=              0.2048   YZ=              0.6313

 Normal termination of Gaussian 16 at Thu May  6 03:47:08 2021.
