 Gaussian 16, Revision A.03,
 Gaussian 16:  EM64L-G16RevA.03 25-Dec-2016

 -------------
 #p 6-31g* mp2
 -------------

 ------------------------------------------------------
 Input file generated by CHIRIPA (05-May-2021 14:55:19)
 ------------------------------------------------------
 Symbolic Z-matrix:
 Charge =  0 Multiplicity = 1

                         Standard orientation:
 ---------------------------------------------------------------------
 Center     Atomic      Atomic             Coordinates (Angstroms)
 Number     Number       Type             X           Y           Z
 ---------------------------------------------------------------------
      1          6           0        3.455091   -0.918732   -1.942150
      2          6           0        3.006761   -1.922842   -1.077694
      3          6           0        2.427807   -1.594869    0.151856
      4          6           0        2.312315   -0.246559    0.486541
      5          6           0        2.749421    0.776717   -0.353182
      6          6           0        3.325219    0.425473   -1.577777
      7          1           0        3.903611   -1.182548   -2.895369
      8          1           0        3.106335   -2.967606   -1.358049
      9          1           0        2.072273   -2.352050    0.840108
     10          1           0        2.636610    1.809375   -0.046083
     11          1           0        3.672512    1.207393   -2.247131
     12          7           0        1.701073    0.112969    1.785588
     13          8           0        1.610765    1.308273    2.057121
     14          8           0        1.323863   -0.807344    2.507649
     15          6           0       -3.343829   -0.315907   -0.214547
     16          6           0       -4.868006   -0.429418   -0.259106
     17          6           0       -5.363115   -1.850533    0.011247
     18          1           0       -2.909538   -1.003716   -0.952960
     19          1           0       -2.986981   -0.648407    0.770084
     20          1           0       -5.221984   -0.095495   -1.242881
     21          1           0       -5.298727    0.258882    0.479364
     22          1           0       -5.038118   -2.190136    1.000008
     23          1           0       -4.960940   -2.546526   -0.732023
     24          1           0       -6.455411   -1.908896   -0.025416
     25          6           0       -2.833593    1.098791   -0.482905
     26          6           0       -1.309416    1.212301   -0.438346
     27          6           0       -0.814307    2.633417   -0.708699
     28          1           0       -3.190442    1.431290   -1.467537
     29          1           0       -3.267885    1.786601    0.255507
     30          1           0       -0.878696    0.524002   -1.176817
     31          1           0       -0.955438    0.878379    0.545428
     32          1           0       -1.216483    3.329410    0.034570
     33          1           0       -1.139305    2.973020   -1.697460
     34          1           0        0.277989    2.691780   -0.672036
 ---------------------------------------------------------------------

 SCF Done:  E(RHF) =  -669.535594950     A.U. after   15 cycles
 E2 =    -0.2093161274D+01 EUMP2 =    -0.67162875622387D+03

 The electronic state is 1-A.
 Alpha  occ. eigenvalues --  -20.60863 -20.60856 -15.85890 -11.31231 -11.27799
 Alpha  occ. eigenvalues --  -11.27791 -11.27537 -11.26812 -11.26802 -11.21309
 Alpha  occ. eigenvalues --  -11.21211 -11.21052 -11.20992 -11.20817 -11.20757
 Alpha  occ. eigenvalues --   -1.59930  -1.39483  -1.19403  -1.08804  -1.08087
 Alpha  occ. eigenvalues --   -1.04806  -1.03207  -0.95691  -0.95618  -0.86689
 Alpha  occ. eigenvalues --   -0.86200  -0.82479  -0.79288  -0.77914  -0.77532
 Alpha  occ. eigenvalues --   -0.72119  -0.71258  -0.70521  -0.65060  -0.64815
 Alpha  occ. eigenvalues --   -0.64700  -0.62176  -0.60585  -0.59046  -0.57294
 Alpha  occ. eigenvalues --   -0.55306  -0.54936  -0.53131  -0.52932  -0.52336
 Alpha  occ. eigenvalues --   -0.52077  -0.49594  -0.48883  -0.48877  -0.47600
 Alpha  occ. eigenvalues --   -0.46301  -0.45458  -0.45377  -0.44826  -0.43469
 Alpha  occ. eigenvalues --   -0.37366  -0.36387
 Alpha virt. eigenvalues --    0.04969   0.11173   0.16481   0.21067   0.23227
 Alpha virt. eigenvalues --    0.24331   0.26607   0.26980   0.27633   0.27941
 Alpha virt. eigenvalues --    0.28795   0.30504   0.31485   0.31724   0.32084

 Mulliken charges:
               1
     1  C   -0.170756
     2  C   -0.218531
     3  C   -0.170999
     4  C    0.160001
     5  C   -0.170330
     6  C   -0.219213
     7  H    0.225759
     8  H    0.223604
     9  H    0.275744
    10  H    0.276312
    11  H    0.223834
    12  N    0.488231
    13  O   -0.459563
    14  O   -0.459724
    15  C   -0.299493
    16  C   -0.299425
    17  C   -0.475691
    18  H    0.146106
    19  H    0.155435
    20  H    0.150064
    21  H    0.153091
    22  H    0.157060
    23  H    0.153146
    24  H    0.159317
    25  C   -0.297848
    26  C   -0.306844
    27  C   -0.471925
    28  H    0.146578
    29  H    0.152262
    30  H    0.147419
    31  H    0.162357
    32  H    0.160772
    33  H    0.150021
    34  H    0.153230
 Sum of Mulliken charges =  -0.00000

 Dipole moment (field-independent basis, Debye):
    X=              2.2102    Y=             -1.2860    Z=             -4.4437  Tot=              5.1269
 Quadrupole moment (field-independent basis, Debye-Ang):
   XX=            -85.8448   YY=            -90.4132   ZZ=            -98.8000
   XY=             -3.4314   XZ=            -10.1898   YZ=             -0.0485

 Normal termination of Gaussian 16 at Thu May  6 20:37:42 2021.
