 Gaussian 16, Revision A.03,
 Gaussian 16:  EM64L-G16RevA.03 25-Dec-2016

 -------------
 #p 6-31g* mp2
 -------------

 ------------------------------------------------------
 Input file generated by CHIRIPA (05-May-2021 14:53:18)
 ------------------------------------------------------
 Symbolic Z-matrix:
 Charge =  0 Multiplicity = 1

                         Standard orientation:
 ---------------------------------------------------------------------
 Center     Atomic      Atomic             Coordinates (Angstroms)
 Number     Number       Type             X           Y           Z
 ---------------------------------------------------------------------
      1          6           0       -4.042755   -0.154671    0.600152
      2          6           0       -3.419380   -1.549820    0.545855
      3          6           0       -2.122501   -1.649520    1.349571
      4          1           0       -3.317808    0.578890    0.221624
      5          1           0       -4.238413    0.111365    1.648168
      6          1           0       -3.226231   -1.813710   -0.501844
      7          1           0       -4.145965   -2.280170    0.924377
      8          1           0       -2.302907   -1.412122    2.402993
      9          1           0       -1.377947   -0.943013    0.968668
     10          1           0       -1.693933   -2.655218    1.297021
     11          6           0       -5.339856   -0.039198   -0.198549
     12          6           0       -5.963232    1.355951   -0.144251
     13          6           0       -7.260110    1.455651   -0.947968
     14          1           0       -5.144199   -0.305234   -1.246565
     15          1           0       -6.064803   -0.772760    0.179979
     16          1           0       -5.236646    2.086300   -0.522774
     17          1           0       -6.156380    1.619841    0.903447
     18          1           0       -8.004665    0.749143   -0.567065
     19          1           0       -7.079705    1.218253   -2.001389
     20          1           0       -7.688678    2.461349   -0.895417
     21          6           0        5.718283    1.455699    0.339085
     22          6           0        5.848672    0.192920   -0.248205
     23          6           0        4.717961   -0.580419   -0.527466
     24          6           0        3.466587   -0.057680   -0.204824
     25          6           0        3.304034    1.196863    0.380827
     26          6           0        4.448619    1.952764    0.651176
     27          1           0        6.602035    2.049675    0.552559
     28          1           0        6.833450   -0.195651   -0.491661
     29          1           0        4.790101   -1.561193   -0.981665
     30          1           0        2.309082    1.557408    0.612117
     31          1           0        4.344338    2.933122    1.107320
     32          7           0        2.262210   -0.867150   -0.495747
     33          8           0        1.170958   -0.383987   -0.201876
     34          8           0        2.432277   -1.969446   -1.012135
 ---------------------------------------------------------------------

 SCF Done:  E(RHF) =  -669.536071628     A.U. after   15 cycles
 E2 =    -0.2090695941D+01 EUMP2 =    -0.67162676756904D+03

 The electronic state is 1-A.
 Alpha  occ. eigenvalues --  -20.60929 -20.60924 -15.85971 -11.31289 -11.27852
 Alpha  occ. eigenvalues --  -11.27849 -11.27590 -11.26860 -11.26850 -11.21027
 Alpha  occ. eigenvalues --  -11.20644 -11.20596 -11.20459 -11.20392 -11.19483
 Alpha  occ. eigenvalues --   -1.59990  -1.39548  -1.19457  -1.08861  -1.07572
 Alpha  occ. eigenvalues --   -1.04854  -1.02597  -0.95705  -0.95032  -0.86255
 Alpha  occ. eigenvalues --   -0.86050  -0.82540  -0.78702  -0.77592  -0.77353
 Alpha  occ. eigenvalues --   -0.72198  -0.71305  -0.70567  -0.65114  -0.64857
 Alpha  occ. eigenvalues --   -0.64203  -0.62201  -0.59983  -0.58467  -0.56641
 Alpha  occ. eigenvalues --   -0.55359  -0.54305  -0.53185  -0.52946  -0.51723
 Alpha  occ. eigenvalues --   -0.51465  -0.49156  -0.48942  -0.48755  -0.46997
 Alpha  occ. eigenvalues --   -0.45740  -0.44995  -0.44873  -0.44749  -0.42866
 Alpha  occ. eigenvalues --   -0.37436  -0.36455
 Alpha virt. eigenvalues --    0.04934   0.11200   0.16425   0.21324   0.23681
 Alpha virt. eigenvalues --    0.25308   0.27250   0.27470   0.28130   0.28343
 Alpha virt. eigenvalues --    0.29061   0.30884   0.32215   0.32490   0.32623

 Mulliken charges:
               1
     1  C   -0.298036
     2  C   -0.298758
     3  C   -0.483412
     4  H    0.151387
     5  H    0.145779
     6  H    0.154442
     7  H    0.146164
     8  H    0.144566
     9  H    0.180159
    10  H    0.159869
    11  C   -0.297705
    12  C   -0.298918
    13  C   -0.475218
    14  H    0.149783
    15  H    0.147893
    16  H    0.151073
    17  H    0.150237
    18  H    0.154396
    19  H    0.154945
    20  H    0.158009
    21  C   -0.170612
    22  C   -0.218589
    23  C   -0.170531
    24  C    0.157643
    25  C   -0.170653
    26  C   -0.218535
    27  H    0.225970
    28  H    0.223792
    29  H    0.275869
    30  H    0.275566
    31  H    0.223828
    32  N    0.492565
    33  O   -0.464039
    34  O   -0.458932
 Sum of Mulliken charges =  -0.00000

 Dipole moment (field-independent basis, Debye):
    X=              4.5867    Y=              2.8560    Z=              0.9447  Tot=              5.4852
 Quadrupole moment (field-independent basis, Debye-Ang):
   XX=            -65.8363   YY=            -92.9117   ZZ=            -95.1512
   XY=              7.7626   XZ=              0.8141   YZ=              1.0784

 Normal termination of Gaussian 16 at Thu May  6 18:59:32 2021.
