 Gaussian 16, Revision A.03,
 Gaussian 16:  EM64L-G16RevA.03 25-Dec-2016

 -------------
 #p 6-31g* mp2
 -------------

 ------------------------------------------------------
 Input file generated by CHIRIPA (05-May-2021 14:53:15)
 ------------------------------------------------------
 Symbolic Z-matrix:
 Charge =  0 Multiplicity = 1

                         Standard orientation:
 ---------------------------------------------------------------------
 Center     Atomic      Atomic             Coordinates (Angstroms)
 Number     Number       Type             X           Y           Z
 ---------------------------------------------------------------------
      1          6           0       -4.384669   -0.476816    0.364741
      2          6           0       -5.672296   -1.138504   -0.127367
      3          6           0       -6.030849   -2.396074    0.664941
      4          1           0       -3.560332   -1.200158    0.300016
      5          1           0       -4.494576   -0.222485    1.428053
      6          1           0       -5.560501   -1.390257   -1.189788
      7          1           0       -6.493626   -0.413442   -0.061643
      8          1           0       -6.169397   -2.157455    1.724406
      9          1           0       -5.230971   -3.139820    0.589851
     10          1           0       -6.954613   -2.852958    0.296464
     11          6           0       -4.013012    0.781639   -0.417494
     12          6           0       -2.725385    1.443327    0.074615
     13          6           0       -2.366833    2.700897   -0.717694
     14          1           0       -3.903105    0.527308   -1.480805
     15          1           0       -4.837349    1.504981   -0.352768
     16          1           0       -1.904056    0.718265    0.008891
     17          1           0       -2.837180    1.695080    1.137036
     18          1           0       -3.166711    3.444643   -0.642604
     19          1           0       -2.228284    2.462278   -1.777159
     20          1           0       -1.443068    3.157781   -0.349216
     21          6           0        2.131816    2.102237    0.356155
     22          6           0        3.466889    1.939408    0.740327
     23          6           0        4.113343    0.713107    0.559134
     24          6           0        3.391379   -0.333819   -0.011833
     25          6           0        2.060347   -0.202775   -0.404857
     26          6           0        1.434036    1.032512   -0.214206
     27          1           0        1.637459    3.058348    0.500583
     28          1           0        4.011268    2.768426    1.183526
     29          1           0        5.146147    0.559532    0.847491
     30          1           0        1.543750   -1.047570   -0.844026
     31          1           0        0.397121    1.156083   -0.513509
     32          7           0        4.065089   -1.636806   -0.208661
     33          8           0        3.407031   -2.543626   -0.713907
     34          8           0        5.238445   -1.726595    0.146039
 ---------------------------------------------------------------------

 SCF Done:  E(RHF) =  -669.535342387     A.U. after   15 cycles
 E2 =    -0.2091494994D+01 EUMP2 =    -0.67162683738108D+03

 The electronic state is 1-A.
 Alpha  occ. eigenvalues --  -20.60731 -20.60726 -15.85784 -11.31139 -11.27707
 Alpha  occ. eigenvalues --  -11.27696 -11.27442 -11.26725 -11.26660 -11.22670
 Alpha  occ. eigenvalues --  -11.22275 -11.22143 -11.22024 -11.21925 -11.21373
 Alpha  occ. eigenvalues --   -1.59807  -1.39361  -1.19307  -1.09148  -1.08703
 Alpha  occ. eigenvalues --   -1.04712  -1.04271  -0.96714  -0.95542  -0.87726
 Alpha  occ. eigenvalues --   -0.86108  -0.82378  -0.80357  -0.78899  -0.77425
 Alpha  occ. eigenvalues --   -0.72003  -0.71130  -0.70423  -0.65828  -0.64959
 Alpha  occ. eigenvalues --   -0.64727  -0.62179  -0.61566  -0.60105  -0.58297
 Alpha  occ. eigenvalues --   -0.55987  -0.55205  -0.53441  -0.53137  -0.53038
 Alpha  occ. eigenvalues --   -0.52764  -0.50643  -0.48768  -0.48758  -0.48650
 Alpha  occ. eigenvalues --   -0.47380  -0.46443  -0.46332  -0.44769  -0.44507
 Alpha  occ. eigenvalues --   -0.37287  -0.36307
 Alpha virt. eigenvalues --    0.05106   0.11317   0.16575   0.19150   0.22586
 Alpha virt. eigenvalues --    0.23934   0.25288   0.26040   0.26598   0.27414
 Alpha virt. eigenvalues --    0.28848   0.30124   0.30854   0.31691   0.32105

 Mulliken charges:
               1
     1  C   -0.299100
     2  C   -0.300323
     3  C   -0.476286
     4  H    0.150515
     5  H    0.150863
     6  H    0.152904
     7  H    0.152523
     8  H    0.155741
     9  H    0.156791
    10  H    0.161860
    11  C   -0.298354
    12  C   -0.304766
    13  C   -0.479516
    14  H    0.150886
    15  H    0.152307
    16  H    0.146433
    17  H    0.156382
    18  H    0.162794
    19  H    0.157984
    20  H    0.150875
    21  C   -0.173676
    22  C   -0.218418
    23  C   -0.171271
    24  C    0.158936
    25  C   -0.173316
    26  C   -0.226231
    27  H    0.225659
    28  H    0.223192
    29  H    0.275396
    30  H    0.274988
    31  H    0.237418
    32  N    0.488071
    33  O   -0.460670
    34  O   -0.460592
 Sum of Mulliken charges =  -0.00000

 Dipole moment (field-independent basis, Debye):
    X=             -2.6307    Y=              4.5822    Z=              0.7048  Tot=              5.3305
 Quadrupole moment (field-independent basis, Debye-Ang):
   XX=           -106.4001   YY=            -98.1304   ZZ=            -94.5216
   XY=             17.5885   XZ=              4.1631   YZ=              1.4049

 Normal termination of Gaussian 16 at Wed May  5 23:31:51 2021.
