 Gaussian 16, Revision A.03,
 Gaussian 16:  EM64L-G16RevA.03 25-Dec-2016

 -------------
 #p 6-31g* mp2
 -------------

 ------------------------------------------------------
 Input file generated by CHIRIPA (05-May-2021 14:57:23)
 ------------------------------------------------------
 Symbolic Z-matrix:
 Charge =  0 Multiplicity = 1

                         Standard orientation:
 ---------------------------------------------------------------------
 Center     Atomic      Atomic             Coordinates (Angstroms)
 Number     Number       Type             X           Y           Z
 ---------------------------------------------------------------------
      1          6           0        4.624388    2.013616    0.367207
      2          6           0        4.062650    1.377665    1.479205
      3          6           0        3.281550    0.229036    1.320830
      4          6           0        3.081755   -0.258617    0.030262
      5          6           0        3.627910    0.352482   -1.097374
      6          6           0        4.405611    1.499900   -0.915272
      7          1           0        5.229845    2.905428    0.499453
      8          1           0        4.230874    1.774388    2.476379
      9          1           0        2.834742   -0.283161    2.164296
     10          1           0        3.442500   -0.066550   -2.078931
     11          1           0        4.840614    1.991705   -1.780688
     12          7           0        2.256638   -1.473978   -0.149963
     13          8           0        2.095576   -1.883710   -1.297488
     14          8           0        1.786599   -1.993832    0.859716
     15          6           0       -5.268322    1.517537    0.118120
     16          6           0       -5.285114    0.219908    0.640039
     17          6           0       -4.154723   -0.597474    0.547026
     18          6           0       -3.019502   -0.082762   -0.077181
     19          6           0       -2.971711    1.205785   -0.606949
     20          6           0       -4.113710    2.005473   -0.502613
     21          1           0       -6.150944    2.145626    0.194773
     22          1           0       -6.180399   -0.161672    1.122641
     23          1           0       -4.140317   -1.605861    0.942459
     24          1           0       -2.064484    1.558320   -1.082423
     25          1           0       -4.097796    3.012829   -0.908845
     26          7           0       -1.816664   -0.938723   -0.181644
     27          8           0       -0.828995   -0.461754   -0.736305
     28          8           0       -1.884323   -2.070385    0.293119
 ---------------------------------------------------------------------

 SCF Done:  E(RHF) =  -868.335496782     A.U. after   16 cycles
 E2 =    -0.2601658533D+01 EUMP2 =    -0.87093715531518D+03

 The electronic state is 1-A.
 Alpha  occ. eigenvalues --  -20.60003 -20.59939 -20.59030 -20.59010 -15.85046
 Alpha  occ. eigenvalues --  -15.84109 -11.30726 -11.30063 -11.27350 -11.27311
 Alpha  occ. eigenvalues --  -11.27133 -11.26713 -11.26698 -11.26588 -11.26430
 Alpha  occ. eigenvalues --  -11.26401 -11.25885 -11.25872  -1.59021  -1.58039
 Alpha  occ. eigenvalues --   -1.38581  -1.37610  -1.18925  -1.18294  -1.08259
 Alpha  occ. eigenvalues --   -1.07577  -1.04377  -1.03799  -0.95043  -0.94318
 Alpha  occ. eigenvalues --   -0.85761  -0.85168  -0.81883  -0.81177  -0.76873
 Alpha  occ. eigenvalues --   -0.76102  -0.71345  -0.70435  -0.70311  -0.70034
 Alpha  occ. eigenvalues --   -0.69419  -0.69244  -0.64572  -0.64380  -0.63945
 Alpha  occ. eigenvalues --   -0.63822  -0.61723  -0.61147  -0.54867  -0.54298
 Alpha  occ. eigenvalues --   -0.52688  -0.52476  -0.52087  -0.51909  -0.48052
 Alpha  occ. eigenvalues --   -0.47961  -0.47055  -0.47033  -0.43942  -0.42887
 Alpha  occ. eigenvalues --   -0.36924  -0.36301  -0.35996  -0.35433
 Alpha virt. eigenvalues --    0.05661   0.06496   0.11653   0.12217   0.17103
 Alpha virt. eigenvalues --    0.17870   0.21746   0.22228   0.27631   0.28091
 Alpha virt. eigenvalues --    0.28665   0.29178   0.31270   0.31722   0.32912

 Mulliken charges:
               1
     1  C   -0.173472
     2  C   -0.219098
     3  C   -0.172196
     4  C    0.164619
     5  C   -0.170671
     6  C   -0.219290
     7  H    0.220536
     8  H    0.218839
     9  H    0.274019
    10  H    0.274914
    11  H    0.218996
    12  N    0.497348
    13  O   -0.456851
    14  O   -0.458860
    15  C   -0.171905
    16  C   -0.218547
    17  C   -0.171144
    18  C    0.159249
    19  C   -0.171725
    20  C   -0.218533
    21  H    0.223604
    22  H    0.222276
    23  H    0.276708
    24  H    0.273479
    25  H    0.220922
    26  N    0.489406
    27  O   -0.464189
    28  O   -0.448435
 Sum of Mulliken charges =  -0.00000

 Dipole moment (field-independent basis, Debye):
    X=             -1.5586    Y=              6.8947    Z=              0.9574  Tot=              7.1332
 Quadrupole moment (field-independent basis, Debye-Ang):
   XX=            -63.4415   YY=           -105.9631   ZZ=            -99.7181
   XY=              5.6154   XZ=             -1.1681   YZ=             -2.6444

 Normal termination of Gaussian 16 at Fri May  7 11:00:30 2021.
