 Gaussian 16, Revision A.03,
 Gaussian 16:  EM64L-G16RevA.03 25-Dec-2016

 -------------
 #p 6-31g* mp2
 -------------

 ------------------------------------------------------
 Input file generated by CHIRIPA (05-May-2021 14:57:24)
 ------------------------------------------------------
 Symbolic Z-matrix:
 Charge =  0 Multiplicity = 1

                         Standard orientation:
 ---------------------------------------------------------------------
 Center     Atomic      Atomic             Coordinates (Angstroms)
 Number     Number       Type             X           Y           Z
 ---------------------------------------------------------------------
      1          6           0       -4.283641    0.827734   -0.928875
      2          6           0       -3.827494   -0.412245   -1.388118
      3          6           0       -2.814319   -1.092929   -0.706434
      4          6           0       -2.277300   -0.501792    0.436132
      5          6           0       -2.710460    0.732246    0.918641
      6          6           0       -3.724654    1.395021    0.221011
      7          1           0       -5.071096    1.349549   -1.464617
      8          1           0       -4.259769   -0.855207   -2.280849
      9          1           0       -2.442380   -2.054100   -1.039946
     10          1           0       -2.260139    1.148537    1.811574
     11          1           0       -4.076933    2.357877    0.579973
     12          7           0       -1.204157   -1.212922    1.166241
     13          8           0       -0.747428   -0.670790    2.170298
     14          8           0       -0.840077   -2.298972    0.720620
     15          6           0        1.615453    2.749712   -0.053741
     16          6           0        0.826630    1.795332   -0.704463
     17          6           0        1.281225    0.481899   -0.855394
     18          6           0        2.535250    0.155937   -0.341137
     19          6           0        3.344501    1.084212    0.312092
     20          6           0        2.869661    2.391737    0.451568
     21          1           0        1.254449    3.767723    0.059056
     22          1           0       -0.147814    2.070502   -1.097893
     23          1           0        0.691127   -0.276888   -1.354838
     24          1           0        4.311562    0.779992    0.693753
     25          1           0        3.484429    3.130830    0.957380
     26          7           0        3.027227   -1.231408   -0.494857
     27          8           0        4.135667   -1.493322   -0.032905
     28          8           0        2.295083   -2.030628   -1.074384
 ---------------------------------------------------------------------

 SCF Done:  E(RHF) =  -868.336443402     A.U. after   16 cycles
 E2 =    -0.2603402258D+01 EUMP2 =    -0.87093984566081D+03

 The electronic state is 1-A.
 Alpha  occ. eigenvalues --  -20.60947 -20.60880 -20.59961 -20.59899 -15.85950
 Alpha  occ. eigenvalues --  -15.84991 -11.31625 -11.30597 -11.28231 -11.28172
 Alpha  occ. eigenvalues --  -11.27985 -11.27304 -11.27239 -11.27209 -11.27173
 Alpha  occ. eigenvalues --  -11.27028 -11.26324 -11.26280  -1.59987  -1.58990
 Alpha  occ. eigenvalues --   -1.39524  -1.38540  -1.19829  -1.18788  -1.09157
 Alpha  occ. eigenvalues --   -1.08151  -1.05252  -1.04255  -0.95934  -0.94954
 Alpha  occ. eigenvalues --   -0.86623  -0.85644  -0.82748  -0.81795  -0.77757
 Alpha  occ. eigenvalues --   -0.76794  -0.72154  -0.71426  -0.71188  -0.70881
 Alpha  occ. eigenvalues --   -0.70272  -0.69925  -0.65446  -0.65222  -0.64464
 Alpha  occ. eigenvalues --   -0.64284  -0.62567  -0.61611  -0.55713  -0.54787
 Alpha  occ. eigenvalues --   -0.53605  -0.53313  -0.52522  -0.52361  -0.48954
 Alpha  occ. eigenvalues --   -0.48912  -0.48001  -0.47958  -0.44860  -0.43860
 Alpha  occ. eigenvalues --   -0.37862  -0.36953  -0.36719  -0.35797
 Alpha virt. eigenvalues --    0.04731   0.05779   0.10617   0.11865   0.16189
 Alpha virt. eigenvalues --    0.17207   0.20980   0.21743   0.26874   0.27393
 Alpha virt. eigenvalues --    0.27965   0.28592   0.30478   0.31188   0.32105

 Mulliken charges:
               1
     1  C   -0.172573
     2  C   -0.219091
     3  C   -0.176606
     4  C    0.154728
     5  C   -0.173432
     6  C   -0.222160
     7  H    0.226753
     8  H    0.226220
     9  H    0.281711
    10  H    0.276583
    11  H    0.223314
    12  N    0.486514
    13  O   -0.459745
    14  O   -0.449155
    15  C   -0.171367
    16  C   -0.219091
    17  C   -0.177359
    18  C    0.167107
    19  C   -0.168873
    20  C   -0.216732
    21  H    0.220666
    22  H    0.219900
    23  H    0.273844
    24  H    0.275540
    25  H    0.221514
    26  N    0.489290
    27  O   -0.462892
    28  O   -0.454608
 Sum of Mulliken charges =  -0.00000

 Dipole moment (field-independent basis, Debye):
    X=             -5.4979    Y=              7.0607    Z=             -1.9419  Tot=              9.1570
 Quadrupole moment (field-independent basis, Debye-Ang):
   XX=            -93.5354   YY=           -103.6086   ZZ=           -105.2042
   XY=              9.6994   XZ=              8.9948   YZ=              4.4968

 Normal termination of Gaussian 16 at Thu May  6 00:18:20 2021.
