 Gaussian 16, Revision A.03,
 Gaussian 16:  EM64L-G16RevA.03 25-Dec-2016

 -------------
 #p 6-31g* mp2
 -------------

 ------------------------------------------------------
 Input file generated by CHIRIPA (05-May-2021 14:51:13)
 ------------------------------------------------------
 Symbolic Z-matrix:
 Charge =  0 Multiplicity = 1

                         Standard orientation:
 ---------------------------------------------------------------------
 Center     Atomic      Atomic             Coordinates (Angstroms)
 Number     Number       Type             X           Y           Z
 ---------------------------------------------------------------------
      1          6           0       -3.801604   -0.651507    0.148870
      2          6           0       -4.445562    0.416100   -0.736297
      3          6           0       -5.968930    0.448979   -0.609554
      4          1           0       -4.214207   -1.634986   -0.114708
      5          1           0       -4.079456   -0.466342    1.195726
      6          1           0       -4.165448    0.229784   -1.781016
      7          1           0       -4.031237    1.397128   -0.470712
      8          1           0       -6.265128    0.657727    0.423544
      9          1           0       -6.400102   -0.516249   -0.894205
     10          1           0       -6.408599    1.219288   -1.250784
     11          6           0       -2.279007   -0.696693    0.033171
     12          6           0       -1.635050   -1.764300    0.918337
     13          6           0       -0.111682   -1.797179    0.791595
     14          1           0       -2.001155   -0.881858   -1.013685
     15          1           0       -1.866405    0.286786    0.296748
     16          1           0       -2.049374   -2.745328    0.652752
     17          1           0       -1.915163   -1.577984    1.963056
     18          1           0        0.319490   -0.831951    1.076246
     19          1           0        0.184517   -2.005927   -0.241504
     20          1           0        0.327987   -2.567488    1.432825
     21          6           0        3.363362    0.182302   -0.578054
     22          6           0        4.356330   -0.769131    0.090359
     23          6           0        4.994307   -1.746927   -0.896906
     24          1           0        2.578368   -0.405644   -1.073076
     25          1           0        3.879625    0.743301   -1.369349
     26          1           0        3.838679   -1.327172    0.881082
     27          1           0        5.138946   -0.178846    0.584010
     28          1           0        5.535426   -1.205773   -1.679813
     29          1           0        4.227771   -2.360625   -1.381054
     30          1           0        5.700677   -2.417665   -0.397893
     31          6           0        2.717249    1.165897    0.396013
     32          6           0        1.724281    2.117331   -0.272399
     33          6           0        1.086304    3.095127    0.714866
     34          1           0        2.200986    0.604899    1.187309
     35          1           0        3.502242    1.753845    0.891036
     36          1           0        0.941665    1.527045   -0.766051
     37          1           0        2.241933    2.675373   -1.063122
     38          1           0        1.852840    3.708825    1.199013
     39          1           0        0.545185    2.553974    1.497773
     40          1           0        0.379935    3.765865    0.215853
 ---------------------------------------------------------------------

 SCF Done:  E(RHF) =  -470.733210530     A.U. after   11 cycles
 E2 =    -0.1583705676D+01 EUMP2 =    -0.47231691620636D+03

 The electronic state is 1-A.
 Alpha  occ. eigenvalues --  -11.21678 -11.21628 -11.21565 -11.21527 -11.21462
 Alpha  occ. eigenvalues --  -11.21398 -11.21334 -11.21272 -11.21161 -11.21091
 Alpha  occ. eigenvalues --  -11.21090 -11.21017  -1.08491  -1.08371  -1.03589
 Alpha  occ. eigenvalues --   -1.03487  -0.96054  -0.95928  -0.87063  -0.86956
 Alpha  occ. eigenvalues --   -0.79656  -0.79545  -0.78298  -0.78191  -0.65192
 Alpha  occ. eigenvalues --   -0.64964  -0.61067  -0.60811  -0.59399  -0.59309
 Alpha  occ. eigenvalues --   -0.57652  -0.57552  -0.55427  -0.55155  -0.52733
 Alpha  occ. eigenvalues --   -0.52637  -0.52491  -0.52324  -0.50116  -0.49768
 Alpha  occ. eigenvalues --   -0.47999  -0.47852  -0.46728  -0.46562  -0.45947
 Alpha  occ. eigenvalues --   -0.45796  -0.45599  -0.45518  -0.43840  -0.43736
 Alpha virt. eigenvalues --    0.19858   0.22771   0.23569   0.24720   0.25990
 Alpha virt. eigenvalues --    0.26278   0.26832   0.27620   0.28429   0.29927
 Alpha virt. eigenvalues --    0.30344   0.30814   0.31721   0.31780   0.32175

 Mulliken charges:
               1
     1  C   -0.298309
     2  C   -0.299801
     3  C   -0.475752
     4  H    0.149839
     5  H    0.149709
     6  H    0.151962
     7  H    0.152284
     8  H    0.155271
     9  H    0.155191
    10  H    0.160400
    11  C   -0.300076
    12  C   -0.299692
    13  C   -0.482680
    14  H    0.149441
    15  H    0.151179
    16  H    0.152319
    17  H    0.152143
    18  H    0.161635
    19  H    0.155554
    20  H    0.160525
    21  C   -0.299439
    22  C   -0.300098
    23  C   -0.475638
    24  H    0.152197
    25  H    0.148971
    26  H    0.153136
    27  H    0.151445
    28  H    0.154864
    29  H    0.155099
    30  H    0.159986
    31  C   -0.301747
    32  C   -0.302264
    33  C   -0.475863
    34  H    0.152441
    35  H    0.149727
    36  H    0.154362
    37  H    0.152101
    38  H    0.155511
    39  H    0.153792
    40  H    0.160276
 Sum of Mulliken charges =  -0.00000

 Dipole moment (field-independent basis, Debye):
    X=             -0.0308    Y=             -0.0161    Z=              0.0004  Tot=              0.0348
 Quadrupole moment (field-independent basis, Debye-Ang):
   XX=            -85.7741   YY=            -84.5176   ZZ=            -84.5261
   XY=              1.1366   XZ=              0.2429   YZ=             -0.0680

 Normal termination of Gaussian 16 at Thu May  6 03:56:52 2021.
