 Gaussian 16, Revision A.03,
 Gaussian 16:  EM64L-G16RevA.03 25-Dec-2016

 -------------
 #p 6-31g* mp2
 -------------

 ------------------------------------------------------
 Input file generated by CHIRIPA (05-May-2021 14:57:23)
 ------------------------------------------------------
 Symbolic Z-matrix:
 Charge =  0 Multiplicity = 1

                         Standard orientation:
 ---------------------------------------------------------------------
 Center     Atomic      Atomic             Coordinates (Angstroms)
 Number     Number       Type             X           Y           Z
 ---------------------------------------------------------------------
      1          6           0       -2.728914   -1.975268    1.546718
      2          6           0       -1.739749   -1.300221    0.823956
      3          6           0       -2.070921   -0.207484    0.017235
      4          6           0       -3.407154    0.185017   -0.043706
      5          6           0       -4.415420   -0.467101    0.664412
      6          6           0       -4.061244   -1.557290    1.464783
      7          1           0       -2.462717   -2.823143    2.170932
      8          1           0       -0.704230   -1.622614    0.885674
      9          1           0       -1.325204    0.333157   -0.552880
     10          1           0       -5.439100   -0.122392    0.582723
     11          1           0       -4.831546   -2.079649    2.024981
     12          7           0       -3.769928    1.340500   -0.894385
     13          8           0       -4.954391    1.666597   -0.931048
     14          8           0       -2.862937    1.898192   -1.508375
     15          6           0        4.185979    1.797145    1.469510
     16          6           0        5.094462    0.963868    0.808579
     17          6           0        4.641107   -0.032231   -0.061366
     18          6           0        3.266290   -0.167796   -0.247892
     19          6           0        2.336195    0.646797    0.396042
     20          6           0        2.812167    1.636234    1.261498
     21          1           0        4.546942    2.568351    2.143559
     22          1           0        6.161944    1.086546    0.968206
     23          1           0        5.322409   -0.691108   -0.585890
     24          1           0        1.277977    0.500382    0.216724
     25          1           0        2.104320    2.281922    1.773438
     26          7           0        2.774372   -1.218795   -1.166487
     27          8           0        1.558176   -1.317863   -1.313768
     28          8           0        3.614316   -1.923601   -1.721807
 ---------------------------------------------------------------------

 SCF Done:  E(RHF) =  -868.338915213     A.U. after   16 cycles
 E2 =    -0.2599926659D+01 EUMP2 =    -0.87093884187167D+03

 The electronic state is 1-A.
 Alpha  occ. eigenvalues --  -20.61526 -20.61470 -20.60558 -20.60552 -15.86527
 Alpha  occ. eigenvalues --  -15.85606 -11.31750 -11.30901 -11.28359 -11.28248
 Alpha  occ. eigenvalues --  -11.27951 -11.27464 -11.27421 -11.27254 -11.27233
 Alpha  occ. eigenvalues --  -11.27155 -11.26481 -11.26350  -1.60553  -1.59634
 Alpha  occ. eigenvalues --   -1.40119  -1.39189  -1.19891  -1.19052  -1.09302
 Alpha  occ. eigenvalues --   -1.08460  -1.05273  -1.04433  -0.96171  -0.95312
 Alpha  occ. eigenvalues --   -0.86680  -0.85835  -0.83011  -0.82137  -0.78109
 Alpha  occ. eigenvalues --   -0.77185  -0.72750  -0.71861  -0.71825  -0.71005
 Alpha  occ. eigenvalues --   -0.70955  -0.70164  -0.65545  -0.65273  -0.64696
 Alpha  occ. eigenvalues --   -0.64414  -0.62678  -0.61725  -0.55757  -0.54942
 Alpha  occ. eigenvalues --   -0.53599  -0.53359  -0.52774  -0.52510  -0.49524
 Alpha  occ. eigenvalues --   -0.49475  -0.48585  -0.48576  -0.45543  -0.44610
 Alpha  occ. eigenvalues --   -0.37841  -0.37033  -0.36862  -0.36031
 Alpha virt. eigenvalues --    0.04407   0.05301   0.10759   0.11616   0.15958
 Alpha virt. eigenvalues --    0.16780   0.19458   0.22065   0.24911   0.27319
 Alpha virt. eigenvalues --    0.28288   0.29245   0.31025   0.31287   0.32096

 Mulliken charges:
               1
     1  C   -0.171434
     2  C   -0.220628
     3  C   -0.178307
     4  C    0.160151
     5  C   -0.171766
     6  C   -0.218476
     7  H    0.225357
     8  H    0.232438
     9  H    0.278461
    10  H    0.274382
    11  H    0.222300
    12  N    0.488170
    13  O   -0.461357
    14  O   -0.461308
    15  C   -0.169952
    16  C   -0.218248
    17  C   -0.169849
    18  C    0.157983
    19  C   -0.173779
    20  C   -0.219777
    21  H    0.228273
    22  H    0.225635
    23  H    0.276900
    24  H    0.272962
    25  H    0.227553
    26  N    0.489359
    27  O   -0.470474
    28  O   -0.454566
 Sum of Mulliken charges =  -0.00000

 Dipole moment (field-independent basis, Debye):
    X=              3.3510    Y=             -0.3819    Z=              6.2345  Tot=              7.0883
 Quadrupole moment (field-independent basis, Debye-Ang):
   XX=            -92.3777   YY=           -108.2312   ZZ=           -107.5582
   XY=             25.5930   XZ=             -2.3980   YZ=             -0.3667

 Normal termination of Gaussian 16 at Fri May  7 00:16:30 2021.
