 Gaussian 16, Revision A.03,
 Gaussian 16:  EM64L-G16RevA.03 25-Dec-2016

 -------------
 #p 6-31g* mp2
 -------------

 ------------------------------------------------------
 Input file generated by CHIRIPA (05-May-2021 14:57:24)
 ------------------------------------------------------
 Symbolic Z-matrix:
 Charge =  0 Multiplicity = 1

                         Standard orientation:
 ---------------------------------------------------------------------
 Center     Atomic      Atomic             Coordinates (Angstroms)
 Number     Number       Type             X           Y           Z
 ---------------------------------------------------------------------
      1          6           0        1.476848   -2.085473    0.570404
      2          6           0        2.823669   -2.372319    0.815993
      3          6           0        3.813838   -1.426280    0.534702
      4          6           0        3.419872   -0.198030    0.006042
      5          6           0        2.086344    0.117536   -0.249718
      6          6           0        1.113125   -0.843651    0.039269
      7          1           0        0.714244   -2.826262    0.791907
      8          1           0        3.109061   -3.335901    1.228431
      9          1           0        4.863864   -1.622075    0.715058
     10          1           0        1.832628    1.086861   -0.661366
     11          1           0        0.067938   -0.618129   -0.152482
     12          7           0        4.459147    0.811517   -0.295822
     13          8           0        4.086079    1.886195   -0.761142
     14          8           0        5.627122    0.509006   -0.061386
     15          6           0       -1.949157    2.453404    0.504145
     16          6           0       -1.622042    1.709654   -0.634429
     17          6           0       -2.335223    0.550548   -0.954426
     18          6           0       -3.374211    0.162459   -0.109925
     19          6           0       -3.724106    0.882172    1.031512
     20          6           0       -2.997297    2.038022    1.332022
     21          1           0       -1.389847    3.352560    0.745156
     22          1           0       -0.808532    2.029861   -1.279189
     23          1           0       -2.103141   -0.044039   -1.829653
     24          1           0       -4.540216    0.537860    1.655074
     25          1           0       -3.253557    2.613659    2.216905
     26          7           0       -4.136437   -1.062911   -0.438376
     27          8           0       -5.047426   -1.383616    0.321810
     28          8           0       -3.808447   -1.679446   -1.449782
 ---------------------------------------------------------------------

 SCF Done:  E(RHF) =  -868.337298177     A.U. after   16 cycles
 E2 =    -0.2601722112D+01 EUMP2 =    -0.87093902028964D+03

 The electronic state is 1-A.
 Alpha  occ. eigenvalues --  -20.61630 -20.61616 -20.61087 -20.61065 -15.86684
 Alpha  occ. eigenvalues --  -15.86128 -11.32164 -11.31429 -11.28751 -11.28673
 Alpha  occ. eigenvalues --  -11.28391 -11.28028 -11.27934 -11.27773 -11.27654
 Alpha  occ. eigenvalues --  -11.27595 -11.26920 -11.26823  -1.60705  -1.60153
 Alpha  occ. eigenvalues --   -1.40253  -1.39711  -1.20342  -1.19561  -1.09679
 Alpha  occ. eigenvalues --   -1.08951  -1.05772  -1.04949  -0.96501  -0.95813
 Alpha  occ. eigenvalues --   -0.87118  -0.86351  -0.83344  -0.82647  -0.78398
 Alpha  occ. eigenvalues --   -0.77722  -0.72888  -0.72347  -0.72044  -0.71475
 Alpha  occ. eigenvalues --   -0.71360  -0.70658  -0.65972  -0.65727  -0.65199
 Alpha  occ. eigenvalues --   -0.64953  -0.63123  -0.62302  -0.56150  -0.55434
 Alpha  occ. eigenvalues --   -0.54180  -0.53802  -0.53281  -0.52875  -0.49659
 Alpha  occ. eigenvalues --   -0.49644  -0.49115  -0.49089  -0.45634  -0.45133
 Alpha  occ. eigenvalues --   -0.38283  -0.37505  -0.37341  -0.36552
 Alpha virt. eigenvalues --    0.04115   0.04801   0.10148   0.11099   0.15524
 Alpha virt. eigenvalues --    0.16332   0.19478   0.22003   0.24924   0.27118
 Alpha virt. eigenvalues --    0.28143   0.28816   0.30456   0.31064   0.31668

 Mulliken charges:
               1
     1  C   -0.173510
     2  C   -0.218067
     3  C   -0.171439
     4  C    0.159779
     5  C   -0.177889
     6  C   -0.223205
     7  H    0.230696
     8  H    0.225043
     9  H    0.275965
    10  H    0.265564
    11  H    0.233738
    12  N    0.488371
    13  O   -0.464236
    14  O   -0.458728
    15  C   -0.169197
    16  C   -0.224305
    17  C   -0.188761
    18  C    0.160961
    19  C   -0.170260
    20  C   -0.217379
    21  H    0.232800
    22  H    0.228411
    23  H    0.278526
    24  H    0.278656
    25  H    0.228314
    26  N    0.487592
    27  O   -0.457197
    28  O   -0.460240
 Sum of Mulliken charges =  -0.00000

 Dipole moment (field-independent basis, Debye):
    X=             -1.2674    Y=              0.7909    Z=              2.3911  Tot=              2.8194
 Quadrupole moment (field-independent basis, Debye-Ang):
   XX=           -144.0063   YY=           -100.2612   ZZ=           -102.1322
   XY=            -29.3444   XZ=             -2.1140   YZ=             -0.9049

 Normal termination of Gaussian 16 at Thu May  6 16:21:34 2021.
