 Gaussian 16, Revision A.03,
 Gaussian 16:  EM64L-G16RevA.03 25-Dec-2016

 -------------
 #p 6-31g* mp2
 -------------

 ------------------------------------------------------
 Input file generated by CHIRIPA (05-May-2021 14:57:23)
 ------------------------------------------------------
 Symbolic Z-matrix:
 Charge =  0 Multiplicity = 1

                         Standard orientation:
 ---------------------------------------------------------------------
 Center     Atomic      Atomic             Coordinates (Angstroms)
 Number     Number       Type             X           Y           Z
 ---------------------------------------------------------------------
      1          6           0       -3.886435    1.766131   -1.182614
      2          6           0       -3.991514    1.811610    0.211449
      3          6           0       -3.443933    0.794000    0.998323
      4          6           0       -2.795156   -0.258921    0.355100
      5          6           0       -2.674073   -0.332616   -1.031694
      6          6           0       -3.229209    0.696049   -1.798650
      7          1           0       -4.314743    2.560929   -1.786141
      8          1           0       -4.501366    2.641426    0.692594
      9          1           0       -3.510820    0.804166    2.079452
     10          1           0       -2.159947   -1.172709   -1.482622
     11          1           0       -3.146087    0.658104   -2.881099
     12          7           0       -2.211457   -1.342071    1.177585
     13          8           0       -1.644849   -2.258812    0.586673
     14          8           0       -2.331616   -1.253794    2.397588
     15          6           0        4.034254    2.055315    0.857227
     16          6           0        2.778645    2.212609    0.261221
     17          6           0        2.136082    1.125330   -0.338347
     18          6           0        2.780865   -0.110522   -0.323643
     19          6           0        4.031733   -0.299069    0.262078
     20          6           0        4.655696    0.802187    0.855756
     21          1           0        4.526188    2.905368    1.320699
     22          1           0        2.293655    3.184632    0.260868
     23          1           0        1.163918    1.219015   -0.806897
     24          1           0        4.490219   -1.280380    0.246672
     25          1           0        5.630807    0.677086    1.317873
     26          7           0        2.110457   -1.268975   -0.955261
     27          8           0        2.699598   -2.347336   -0.929002
     28          8           0        1.008546   -1.076674   -1.464623
 ---------------------------------------------------------------------

 SCF Done:  E(RHF) =  -868.337856184     A.U. after   16 cycles
 E2 =    -0.2600151788D+01 EUMP2 =    -0.87093800797253D+03

 The electronic state is 1-A.
 Alpha  occ. eigenvalues --  -20.60503 -20.60483 -20.60125 -20.60034 -15.85553
 Alpha  occ. eigenvalues --  -15.85132 -11.30982 -11.30632 -11.27589 -11.27536
 Alpha  occ. eigenvalues --  -11.27326 -11.27320 -11.27099 -11.27084 -11.26623
 Alpha  occ. eigenvalues --  -11.26579 -11.26362 -11.26241  -1.59539  -1.59164
 Alpha  occ. eigenvalues --   -1.39105  -1.38702  -1.19159  -1.18852  -1.08542
 Alpha  occ. eigenvalues --   -1.08235  -1.04582  -1.04259  -0.95371  -0.95029
 Alpha  occ. eigenvalues --   -0.85979  -0.85649  -0.82215  -0.81847  -0.77253
 Alpha  occ. eigenvalues --   -0.76845  -0.71804  -0.71345  -0.70858  -0.70475
 Alpha  occ. eigenvalues --   -0.70283  -0.69945  -0.64826  -0.64596  -0.64492
 Alpha  occ. eigenvalues --   -0.64258  -0.61937  -0.61564  -0.55087  -0.54794
 Alpha  occ. eigenvalues --   -0.52895  -0.52699  -0.52606  -0.52334  -0.48544
 Alpha  occ. eigenvalues --   -0.48509  -0.48144  -0.48074  -0.44568  -0.43987
 Alpha  occ. eigenvalues --   -0.37139  -0.36891  -0.36185  -0.35875
 Alpha virt. eigenvalues --    0.05285   0.05680   0.11466   0.11765   0.16775
 Alpha virt. eigenvalues --    0.17101   0.21532   0.21912   0.27430   0.27790
 Alpha virt. eigenvalues --    0.28385   0.28901   0.31024   0.31426   0.32576

 Mulliken charges:
               1
     1  C   -0.172644
     2  C   -0.220823
     3  C   -0.173056
     4  C    0.153238
     5  C   -0.167160
     6  C   -0.222961
     7  H    0.222674
     8  H    0.219999
     9  H    0.273222
    10  H    0.292361
    11  H    0.224170
    12  N    0.486287
    13  O   -0.448543
    14  O   -0.467355
    15  C   -0.170818
    16  C   -0.218094
    17  C   -0.171214
    18  C    0.160767
    19  C   -0.169746
    20  C   -0.218206
    21  H    0.224650
    22  H    0.221114
    23  H    0.272115
    24  H    0.276645
    25  H    0.223384
    26  N    0.492610
    27  O   -0.456103
    28  O   -0.466514
 Sum of Mulliken charges =  -0.00000

 Dipole moment (field-independent basis, Debye):
    X=              0.5231    Y=              7.5617    Z=             -0.7893  Tot=              7.6207
 Quadrupole moment (field-independent basis, Debye-Ang):
   XX=            -78.2430   YY=           -105.8737   ZZ=           -105.8408
   XY=             -2.1918   XZ=             13.0575   YZ=              2.1607

 Normal termination of Gaussian 16 at Thu May  6 19:34:45 2021.
