 Gaussian 16, Revision A.03,
 Gaussian 16:  EM64L-G16RevA.03 25-Dec-2016

 -------------
 #p 6-31g* mp2
 -------------

 ------------------------------------------------------
 Input file generated by CHIRIPA (05-May-2021 14:51:10)
 ------------------------------------------------------
 Symbolic Z-matrix:
 Charge =  0 Multiplicity = 1

                         Standard orientation:
 ---------------------------------------------------------------------
 Center     Atomic      Atomic             Coordinates (Angstroms)
 Number     Number       Type             X           Y           Z
 ---------------------------------------------------------------------
      1          6           0        2.278748   -1.054742    0.707720
      2          6           0        1.350456   -2.246264    0.469947
      3          6           0        1.007183   -2.994546    1.758369
      4          1           0        3.202798   -1.407649    1.185771
      5          1           0        1.803228   -0.364425    1.418170
      6          1           0        1.826987   -2.933448   -0.240907
      7          1           0        0.428588   -1.890507   -0.007768
      8          1           0        0.509025   -2.328069    2.469881
      9          1           0        1.915370   -3.376937    2.235418
     10          1           0        0.342619   -3.842447    1.565294
     11          6           0        2.631007   -0.296603   -0.570899
     12          6           0        3.559298    0.894918   -0.333125
     13          6           0        3.902571    1.643200   -1.621548
     14          1           0        3.106526   -0.986921   -1.281348
     15          1           0        1.706956    0.056303   -1.048950
     16          1           0        4.481167    0.539161    0.144589
     17          1           0        3.082768    1.582103    0.377728
     18          1           0        2.994385    2.025591   -2.098596
     19          1           0        4.400729    0.976724   -2.333060
     20          1           0        4.567135    2.491102   -1.428472
     21          6           0       -3.038335    0.205489   -0.216520
     22          6           0       -2.645921   -0.995052   -1.078318
     23          6           0       -3.823846   -1.926455   -1.366026
     24          1           0       -3.462974   -0.154316    0.730669
     25          1           0       -3.835554    0.766804   -0.723237
     26          1           0       -1.848717   -1.553155   -0.570774
     27          1           0       -2.221991   -0.632346   -2.023487
     28          1           0       -4.618991   -1.390168   -1.893987
     29          1           0       -4.243597   -2.316209   -0.433019
     30          1           0       -3.520949   -2.777828   -1.983502
     31          6           0       -1.871419    1.145856    0.079698
     32          6           0       -2.263833    2.346397    0.941497
     33          6           0       -1.085908    3.277800    1.229204
     34          1           0       -1.074200    0.584542    0.586416
     35          1           0       -1.446780    1.505661   -0.867491
     36          1           0       -2.687763    1.983691    1.886666
     37          1           0       -3.061037    2.904501    0.433952
     38          1           0       -0.666159    3.667555    0.296197
     39          1           0       -0.290763    2.741513    1.757166
     40          1           0       -1.388806    4.129174    1.846681
 ---------------------------------------------------------------------

 SCF Done:  E(RHF) =  -470.733380179     A.U. after   11 cycles
 E2 =    -0.1583884727D+01 EUMP2 =    -0.47231726490674D+03

 The electronic state is 1-A.
 Alpha  occ. eigenvalues --  -11.21679 -11.21644 -11.21579 -11.21565 -11.21490
 Alpha  occ. eigenvalues --  -11.21422 -11.21388 -11.21316 -11.21149 -11.21105
 Alpha  occ. eigenvalues --  -11.21101 -11.21044  -1.08513  -1.08404  -1.03597
 Alpha  occ. eigenvalues --   -1.03515  -0.96042  -0.95969  -0.87058  -0.86985
 Alpha  occ. eigenvalues --   -0.79699  -0.79549  -0.78373  -0.78175  -0.65273
 Alpha  occ. eigenvalues --   -0.64920  -0.61063  -0.60858  -0.59427  -0.59319
 Alpha  occ. eigenvalues --   -0.57663  -0.57568  -0.55334  -0.55253  -0.52736
 Alpha  occ. eigenvalues --   -0.52662  -0.52473  -0.52387  -0.49992  -0.49919
 Alpha  occ. eigenvalues --   -0.48104  -0.47830  -0.46890  -0.46505  -0.46114
 Alpha  occ. eigenvalues --   -0.45805  -0.45693  -0.45286  -0.43849  -0.43766
 Alpha virt. eigenvalues --    0.19540   0.22814   0.23724   0.24463   0.25492
 Alpha virt. eigenvalues --    0.26212   0.27122   0.27593   0.28220   0.30063
 Alpha virt. eigenvalues --    0.31117   0.31525   0.31579   0.31812   0.32050

 Mulliken charges:
               1
     1  C   -0.297872
     2  C   -0.310304
     3  C   -0.475451
     4  H    0.149682
     5  H    0.148921
     6  H    0.152225
     7  H    0.161230
     8  H    0.154203
     9  H    0.155630
    10  H    0.160132
    11  C   -0.299667
    12  C   -0.299784
    13  C   -0.475592
    14  H    0.149252
    15  H    0.151885
    16  H    0.151663
    17  H    0.152394
    18  H    0.155056
    19  H    0.155001
    20  H    0.160203
    21  C   -0.297831
    22  C   -0.308167
    23  C   -0.475133
    24  H    0.149805
    25  H    0.149938
    26  H    0.160097
    27  H    0.151818
    28  H    0.155293
    29  H    0.155288
    30  H    0.160556
    31  C   -0.302212
    32  C   -0.299738
    33  C   -0.475920
    34  H    0.152255
    35  H    0.149625
    36  H    0.152250
    37  H    0.152487
    38  H    0.155319
    39  H    0.154644
    40  H    0.160819
 Sum of Mulliken charges =  -0.00000

 Dipole moment (field-independent basis, Debye):
    X=             -0.0350    Y=              0.0070    Z=             -0.0129  Tot=              0.0379
 Quadrupole moment (field-independent basis, Debye-Ang):
   XX=            -84.7203   YY=            -85.0956   ZZ=            -84.8679
   XY=             -1.4245   XZ=              0.1276   YZ=             -0.0238

 Normal termination of Gaussian 16 at Thu May  6 06:58:43 2021.
