 Gaussian 16, Revision A.03,
 Gaussian 16:  EM64L-G16RevA.03 25-Dec-2016

 -------------
 #p 6-31g* mp2
 -------------

 ------------------------------------------------------
 Input file generated by CHIRIPA (05-May-2021 14:55:24)
 ------------------------------------------------------
 Symbolic Z-matrix:
 Charge =  0 Multiplicity = 1

                         Standard orientation:
 ---------------------------------------------------------------------
 Center     Atomic      Atomic             Coordinates (Angstroms)
 Number     Number       Type             X           Y           Z
 ---------------------------------------------------------------------
      1          6           0        1.129438    0.334150   -0.647823
      2          6           0        2.099156    1.339874   -0.716294
      3          6           0        3.435872    1.058771   -0.418438
      4          6           0        3.769221   -0.244822   -0.054000
      5          6           0        2.826086   -1.268449    0.023291
      6          6           0        1.495353   -0.964512   -0.278899
      7          1           0        0.093368    0.561386   -0.880889
      8          1           0        1.817869    2.349329   -1.002516
      9          1           0        4.206907    1.818309   -0.463441
     10          1           0        3.136914   -2.265267    0.311662
     11          1           0        0.744386   -1.747568   -0.224885
     12          7           0        5.181176   -0.554499    0.263622
     13          8           0        5.449168   -1.710950    0.582117
     14          8           0        5.993139    0.365090    0.188064
     15          6           0       -4.890189   -0.283938   -0.274157
     16          6           0       -6.076970   -0.909533    0.459443
     17          6           0       -6.793901   -1.971967   -0.374245
     18          1           0       -5.242207    0.161800   -1.214555
     19          1           0       -4.179966   -1.075658   -0.550125
     20          1           0       -6.784080   -0.116696    0.735163
     21          1           0       -5.722118   -1.353665    1.398295
     22          1           0       -6.107257   -2.782944   -0.637757
     23          1           0       -7.175253   -1.538947   -1.304656
     24          1           0       -7.638899   -2.406031    0.169287
     25          6           0       -4.163286    0.780022    0.546408
     26          6           0       -2.976506    1.405617   -0.187193
     27          6           0       -2.259574    2.468052    0.646495
     28          1           0       -4.873510    1.571742    0.822375
     29          1           0       -3.811269    0.334285    1.486805
     30          1           0       -3.331358    1.849749   -1.126045
     31          1           0       -2.269396    0.612780   -0.462913
     32          1           0       -1.878223    2.035031    1.576905
     33          1           0       -2.946218    3.279029    0.910006
     34          1           0       -1.414575    2.902115    0.102964
 ---------------------------------------------------------------------

 SCF Done:  E(RHF) =  -669.535460130     A.U. after   15 cycles
 E2 =    -0.2091286654D+01 EUMP2 =    -0.67162674678348D+03

 The electronic state is 1-A.
 Alpha  occ. eigenvalues --  -20.60730 -20.60724 -15.85784 -11.31141 -11.27717
 Alpha  occ. eigenvalues --  -11.27711 -11.27412 -11.26724 -11.26713 -11.22830
 Alpha  occ. eigenvalues --  -11.22310 -11.22250 -11.22192 -11.22165 -11.21622
 Alpha  occ. eigenvalues --   -1.59806  -1.39359  -1.19313  -1.09326  -1.08705
 Alpha  occ. eigenvalues --   -1.04719  -1.04422  -0.96843  -0.95542  -0.87854
 Alpha  occ. eigenvalues --   -0.86115  -0.82381  -0.80510  -0.79108  -0.77429
 Alpha  occ. eigenvalues --   -0.72002  -0.71129  -0.70443  -0.65955  -0.64965
 Alpha  occ. eigenvalues --   -0.64729  -0.62071  -0.61818  -0.60257  -0.58468
 Alpha  occ. eigenvalues --   -0.56135  -0.55155  -0.53553  -0.53262  -0.53038
 Alpha  occ. eigenvalues --   -0.52811  -0.50772  -0.48822  -0.48757  -0.48747
 Alpha  occ. eigenvalues --   -0.47540  -0.46645  -0.46551  -0.44767  -0.44665
 Alpha  occ. eigenvalues --   -0.37281  -0.36327
 Alpha virt. eigenvalues --    0.05103   0.11315   0.16558   0.19263   0.22421
 Alpha virt. eigenvalues --    0.23891   0.25170   0.26009   0.26321   0.27560
 Alpha virt. eigenvalues --    0.29003   0.29839   0.30779   0.31200   0.31889

 Mulliken charges:
               1
     1  C   -0.176921
     2  C   -0.220830
     3  C   -0.170662
     4  C    0.158168
     5  C   -0.170754
     6  C   -0.221398
     7  H    0.237855
     8  H    0.223471
     9  H    0.275423
    10  H    0.275370
    11  H    0.222500
    12  N    0.488032
    13  O   -0.460636
    14  O   -0.460535
    15  C   -0.298522
    16  C   -0.300377
    17  C   -0.476104
    18  H    0.151150
    19  H    0.146991
    20  H    0.153655
    21  H    0.152864
    22  H    0.155027
    23  H    0.156073
    24  H    0.162497
    25  C   -0.298328
    26  C   -0.304427
    27  C   -0.476826
    28  H    0.153399
    29  H    0.151557
    30  H    0.155580
    31  H    0.141917
    32  H    0.159949
    33  H    0.161448
    34  H    0.153393
 Sum of Mulliken charges =  -0.00000

 Dipole moment (field-independent basis, Debye):
    X=             -5.2429    Y=              1.1361    Z=             -1.0510  Tot=              5.4666
 Quadrupole moment (field-independent basis, Debye-Ang):
   XX=           -131.5225   YY=            -90.7479   ZZ=            -95.3624
   XY=              5.6554   XZ=             -4.4766   YZ=             -1.3649

 Normal termination of Gaussian 16 at Wed May  5 19:09:40 2021.
