 Gaussian 16, Revision A.03,
 Gaussian 16:  EM64L-G16RevA.03 25-Dec-2016

 -------------
 #p 6-31g* mp2
 -------------

 ------------------------------------------------------
 Input file generated by CHIRIPA (05-May-2021 14:55:20)
 ------------------------------------------------------
 Symbolic Z-matrix:
 Charge =  0 Multiplicity = 1

                         Standard orientation:
 ---------------------------------------------------------------------
 Center     Atomic      Atomic             Coordinates (Angstroms)
 Number     Number       Type             X           Y           Z
 ---------------------------------------------------------------------
      1          6           0        1.082098    0.576685   -0.241769
      2          6           0        1.419851   -0.772639   -0.389312
      3          6           0        2.749170   -1.188929   -0.270308
      4          6           0        3.719624   -0.224771   -0.002149
      5          6           0        3.414686    1.126935    0.150141
      6          6           0        2.078837    1.520502    0.027012
      7          1           0        0.046915    0.891243   -0.335816
      8          1           0        0.647863   -1.507822   -0.598085
      9          1           0        3.038505   -2.227052   -0.379863
     10          1           0        4.206288    1.836598    0.357899
     11          1           0        1.819454    2.569084    0.142085
     12          7           0        5.130371   -0.653450    0.126018
     13          8           0        5.966729    0.215564    0.362568
     14          8           0        5.373043   -1.850346   -0.012501
     15          6           0       -4.583682   -0.552988   -0.048297
     16          6           0       -6.018632   -0.973697    0.270935
     17          6           0       -6.243423   -2.477496    0.110156
     18          1           0       -4.340318   -0.853685   -1.076548
     19          1           0       -3.893733   -1.100142    0.608962
     20          1           0       -6.705759   -0.424887   -0.385784
     21          1           0       -6.258672   -0.671793    1.298481
     22          1           0       -5.581312   -3.039434    0.776815
     23          1           0       -6.030939   -2.791125   -0.917020
     24          1           0       -7.275782   -2.756295    0.343323
     25          6           0       -4.343333    0.947535    0.107874
     26          6           0       -2.908384    1.368243   -0.211358
     27          6           0       -2.683592    2.872042   -0.050578
     28          1           0       -5.033283    1.494688   -0.549384
     29          1           0       -4.586698    1.248231    1.136125
     30          1           0       -2.668343    1.066340   -1.238904
     31          1           0       -2.221258    0.819433    0.445362
     32          1           0       -2.896076    3.185672    0.976597
     33          1           0       -3.345703    3.433981   -0.717238
     34          1           0       -1.651233    3.150841   -0.283746
 ---------------------------------------------------------------------

 SCF Done:  E(RHF) =  -669.535496652     A.U. after   15 cycles
 E2 =    -0.2091385569D+01 EUMP2 =    -0.67162688222052D+03

 The electronic state is 1-A.
 Alpha  occ. eigenvalues --  -20.60705 -20.60700 -15.85759 -11.31107 -11.27679
 Alpha  occ. eigenvalues --  -11.27676 -11.27338 -11.26678 -11.26667 -11.22956
 Alpha  occ. eigenvalues --  -11.22395 -11.22344 -11.22300 -11.22231 -11.21657
 Alpha  occ. eigenvalues --   -1.59782  -1.39335  -1.19275  -1.09413  -1.08666
 Alpha  occ. eigenvalues --   -1.04680  -1.04514  -0.96930  -0.95506  -0.87942
 Alpha  occ. eigenvalues --   -0.86074  -0.82351  -0.80627  -0.79197  -0.77398
 Alpha  occ. eigenvalues --   -0.71976  -0.71105  -0.70387  -0.66028  -0.64924
 Alpha  occ. eigenvalues --   -0.64689  -0.62031  -0.61891  -0.60374  -0.58574
 Alpha  occ. eigenvalues --   -0.56184  -0.55109  -0.53641  -0.53353  -0.53008
 Alpha  occ. eigenvalues --   -0.52768  -0.50852  -0.48915  -0.48733  -0.48724
 Alpha  occ. eigenvalues --   -0.47636  -0.46724  -0.46620  -0.44752  -0.44745
 Alpha  occ. eigenvalues --   -0.37243  -0.36291
 Alpha virt. eigenvalues --    0.05129   0.11362   0.16589   0.19469   0.22260
 Alpha virt. eigenvalues --    0.23834   0.25565   0.25853   0.25999   0.27635
 Alpha virt. eigenvalues --    0.29087   0.30313   0.30515   0.31117   0.32252

 Mulliken charges:
               1
     1  C   -0.180997
     2  C   -0.222654
     3  C   -0.170628
     4  C    0.158031
     5  C   -0.170625
     6  C   -0.221984
     7  H    0.244203
     8  H    0.223633
     9  H    0.275238
    10  H    0.275240
    11  H    0.223101
    12  N    0.488002
    13  O   -0.460682
    14  O   -0.460700
    15  C   -0.299486
    16  C   -0.300398
    17  C   -0.476324
    18  H    0.149564
    19  H    0.148616
    20  H    0.153573
    21  H    0.153633
    22  H    0.155589
    23  H    0.155618
    24  H    0.162803
    25  C   -0.297108
    26  C   -0.309128
    27  C   -0.476594
    28  H    0.153257
    29  H    0.153131
    30  H    0.151994
    31  H    0.146966
    32  H    0.160610
    33  H    0.161913
    34  H    0.152594
 Sum of Mulliken charges =  -0.00000

 Dipole moment (field-independent basis, Debye):
    X=             -5.3049    Y=              1.5377    Z=             -0.4344  Tot=              5.5403
 Quadrupole moment (field-independent basis, Debye-Ang):
   XX=           -130.8132   YY=            -91.8774   ZZ=            -94.5114
   XY=              7.7114   XZ=             -1.2342   YZ=              0.8569

 Normal termination of Gaussian 16 at Thu May  6 10:51:22 2021.
