 Gaussian 16, Revision A.03,
 Gaussian 16:  EM64L-G16RevA.03 25-Dec-2016

 -------------
 #p 6-31g* mp2
 -------------

 ------------------------------------------------------
 Input file generated by CHIRIPA (05-May-2021 14:57:23)
 ------------------------------------------------------
 Symbolic Z-matrix:
 Charge =  0 Multiplicity = 1

                         Standard orientation:
 ---------------------------------------------------------------------
 Center     Atomic      Atomic             Coordinates (Angstroms)
 Number     Number       Type             X           Y           Z
 ---------------------------------------------------------------------
      1          6           0        3.610987   -2.281989    0.385958
      2          6           0        4.764993   -1.511816    0.563792
      3          6           0        4.743094   -0.134437    0.325266
      4          6           0        3.544682    0.442610   -0.092005
      5          6           0        2.378332   -0.297840   -0.278154
      6          6           0        2.423434   -1.673616   -0.033708
      7          1           0        3.637011   -3.351348    0.573550
      8          1           0        5.688671   -1.981596    0.889631
      9          1           0        5.621852    0.485535    0.455026
     10          1           0        1.472400    0.198812   -0.603797
     11          1           0        1.525684   -2.269255   -0.172645
     12          7           0        3.509217    1.899932   -0.347655
     13          8           0        2.440889    2.384375   -0.714570
     14          8           0        4.550419    2.530142   -0.176278
     15          6           0       -5.510019    1.356154    0.361548
     16          6           0       -4.499518    1.300316    1.327100
     17          6           0       -3.409166    0.440462    1.164829
     18          6           0       -3.361091   -0.353104    0.019738
     19          6           0       -4.352142   -0.320148   -0.960067
     20          6           0       -5.433242    0.547170   -0.776948
     21          1           0       -6.353437    2.027008    0.495702
     22          1           0       -4.556516    1.927432    2.212268
     23          1           0       -2.612987    0.377225    1.896618
     24          1           0       -4.267627   -0.957417   -1.831941
     25          1           0       -6.216554    0.588436   -1.528454
     26          7           0       -2.211682   -1.267344   -0.163087
     27          8           0       -2.192710   -1.956237   -1.180783
     28          8           0       -1.351511   -1.277721    0.714771
 ---------------------------------------------------------------------

 SCF Done:  E(RHF) =  -868.341125422     A.U. after   16 cycles
 E2 =    -0.2598402204D+01 EUMP2 =    -0.87093952762659D+03

 The electronic state is 1-A.
 Alpha  occ. eigenvalues --  -20.61601 -20.61596 -20.60032 -20.60027 -15.86592
 Alpha  occ. eigenvalues --  -15.85071 -11.31579 -11.30164 -11.28110 -11.28094
 Alpha  occ. eigenvalues --  -11.27786 -11.27042 -11.27021 -11.26747 -11.26556
 Alpha  occ. eigenvalues --  -11.26355 -11.25755 -11.25391  -1.60659  -1.59111
 Alpha  occ. eigenvalues --   -1.40216  -1.38672  -1.19719  -1.18289  -1.09190
 Alpha  occ. eigenvalues --   -1.07745  -1.05063  -1.03610  -0.96085  -0.94629
 Alpha  occ. eigenvalues --   -0.86481  -0.85037  -0.82930  -0.81442  -0.78016
 Alpha  occ. eigenvalues --   -0.76521  -0.72825  -0.71946  -0.71300  -0.70826
 Alpha  occ. eigenvalues --   -0.70429  -0.69415  -0.65376  -0.65067  -0.63925
 Alpha  occ. eigenvalues --   -0.63578  -0.62415  -0.60940  -0.55587  -0.54167
 Alpha  occ. eigenvalues --   -0.53410  -0.53153  -0.52007  -0.51675  -0.49598
 Alpha  occ. eigenvalues --   -0.49562  -0.48066  -0.48025  -0.45697  -0.44138
 Alpha  occ. eigenvalues --   -0.37677  -0.36643  -0.36292  -0.35199
 Alpha virt. eigenvalues --    0.04475   0.05950   0.11016   0.12432   0.16047
 Alpha virt. eigenvalues --    0.17519   0.21171   0.22640   0.27116   0.27978
 Alpha virt. eigenvalues --    0.28714   0.29306   0.30812   0.32202   0.32321

 Mulliken charges:
               1
     1  C   -0.172841
     2  C   -0.218806
     3  C   -0.173899
     4  C    0.157213
     5  C   -0.170993
     6  C   -0.220174
     7  H    0.223615
     8  H    0.219008
     9  H    0.271230
    10  H    0.275687
    11  H    0.245331
    12  N    0.488232
    13  O   -0.463471
    14  O   -0.464068
    15  C   -0.169166
    16  C   -0.218107
    17  C   -0.169230
    18  C    0.157460
    19  C   -0.169969
    20  C   -0.218461
    21  H    0.227771
    22  H    0.225976
    23  H    0.276583
    24  H    0.275665
    25  H    0.225017
    26  N    0.488533
    27  O   -0.460533
    28  O   -0.467603
 Sum of Mulliken charges =  -0.00000

 Dipole moment (field-independent basis, Debye):
    X=             -4.5103    Y=             -1.9917    Z=              1.5453  Tot=              5.1669
 Quadrupole moment (field-independent basis, Debye-Ang):
   XX=            -72.4168   YY=           -112.5098   ZZ=           -101.8357
   XY=            -27.4875   XZ=              4.1358   YZ=              2.5720

 Normal termination of Gaussian 16 at Thu May  6 22:44:36 2021.
