 Gaussian 16, Revision A.03,
 Gaussian 16:  EM64L-G16RevA.03 25-Dec-2016

 -------------
 #p 6-31g* mp2
 -------------

 ------------------------------------------------------
 Input file generated by CHIRIPA (05-May-2021 14:51:10)
 ------------------------------------------------------
 Symbolic Z-matrix:
 Charge =  0 Multiplicity = 1

                         Standard orientation:
 ---------------------------------------------------------------------
 Center     Atomic      Atomic             Coordinates (Angstroms)
 Number     Number       Type             X           Y           Z
 ---------------------------------------------------------------------
      1          6           0       -3.226016    0.570738    0.172085
      2          6           0       -4.508882    1.394072    0.052258
      3          6           0       -4.590018    2.516194    1.087658
      4          1           0       -3.164655    0.144243    1.182670
      5          1           0       -2.359305    1.236942    0.060822
      6          1           0       -5.372926    0.726294    0.162333
      7          1           0       -4.567291    1.818499   -0.958220
      8          1           0       -3.746793    3.205418    0.975665
      9          1           0       -4.557005    2.107007    2.102586
     10          1           0       -5.514952    3.092042    0.983947
     11          6           0       -3.130319   -0.554897   -0.856271
     12          6           0       -1.847452   -1.378232   -0.736445
     13          6           0       -1.766317   -2.500353   -1.771845
     14          1           0       -3.997030   -1.221102   -0.745009
     15          1           0       -3.191679   -0.128403   -1.866856
     16          1           0       -1.789043   -1.802659    0.274034
     17          1           0       -0.983408   -0.710453   -0.846520
     18          1           0       -1.799330   -2.091167   -2.786772
     19          1           0       -2.609542   -3.189577   -1.659852
     20          1           0       -0.841383   -3.076202   -1.668134
     21          6           0        2.641620   -0.551511    0.334492
     22          6           0        2.365096   -1.149897    1.714149
     23          6           0        1.289373   -2.236001    1.682639
     24          1           0        1.709486   -0.134712   -0.070906
     25          1           0        2.949197   -1.353758   -0.350485
     26          1           0        2.059468   -0.346552    2.396677
     27          1           0        3.298037   -1.565152    2.116392
     28          1           0        1.590066   -3.057027    1.023776
     29          1           0        0.344458   -1.831504    1.305653
     30          1           0        1.107573   -2.650026    2.679329
     31          6           0        3.714714    0.535671    0.349695
     32          6           0        3.991238    1.134057   -1.029963
     33          6           0        5.066961    2.220160   -0.998452
     34          1           0        3.407137    1.337917    1.034671
     35          1           0        4.646848    0.118871    0.755093
     36          1           0        3.058297    1.549311   -1.432205
     37          1           0        4.296867    0.330712   -1.712490
     38          1           0        6.011876    1.815664   -0.621466
     39          1           0        4.766269    3.041188   -0.339588
     40          1           0        5.248762    2.634185   -1.995143
 ---------------------------------------------------------------------

 SCF Done:  E(RHF) =  -470.732975565     A.U. after   11 cycles
 E2 =    -0.1583306121D+01 EUMP2 =    -0.47231628168614D+03

 The electronic state is 1-A.
 Alpha  occ. eigenvalues --  -11.21632 -11.21626 -11.21605 -11.21553 -11.21440
 Alpha  occ. eigenvalues --  -11.21392 -11.21379 -11.21332 -11.21098 -11.21074
 Alpha  occ. eigenvalues --  -11.21068 -11.20939  -1.08471  -1.08405  -1.03575
 Alpha  occ. eigenvalues --   -1.03482  -0.96010  -0.95939  -0.87024  -0.86961
 Alpha  occ. eigenvalues --   -0.79720  -0.79495  -0.78343  -0.78163  -0.65099
 Alpha  occ. eigenvalues --   -0.65041  -0.60976  -0.60896  -0.59432  -0.59268
 Alpha  occ. eigenvalues --   -0.57708  -0.57465  -0.55312  -0.55214  -0.52700
 Alpha  occ. eigenvalues --   -0.52639  -0.52426  -0.52371  -0.50013  -0.49857
 Alpha  occ. eigenvalues --   -0.48142  -0.47733  -0.46683  -0.46583  -0.45986
 Alpha  occ. eigenvalues --   -0.45738  -0.45708  -0.45428  -0.43804  -0.43758
 Alpha virt. eigenvalues --    0.21294   0.23150   0.23521   0.24916   0.25259
 Alpha virt. eigenvalues --    0.26097   0.26990   0.27672   0.28285   0.29109
 Alpha virt. eigenvalues --    0.30584   0.30865   0.31451   0.31957   0.32300

 Mulliken charges:
               1
     1  C   -0.298504
     2  C   -0.299608
     3  C   -0.475735
     4  H    0.149600
     5  H    0.148785
     6  H    0.152138
     7  H    0.152051
     8  H    0.155056
     9  H    0.155258
    10  H    0.160404
    11  C   -0.297251
    12  C   -0.306887
    13  C   -0.475845
    14  H    0.149765
    15  H    0.149679
    16  H    0.155556
    17  H    0.154539
    18  H    0.155109
    19  H    0.155156
    20  H    0.161660
    21  C   -0.301112
    22  C   -0.298953
    23  C   -0.484438
    24  H    0.151942
    25  H    0.149335
    26  H    0.151612
    27  H    0.151555
    28  H    0.154028
    29  H    0.166103
    30  H    0.159160
    31  C   -0.298218
    32  C   -0.299540
    33  C   -0.475689
    34  H    0.149475
    35  H    0.149799
    36  H    0.151424
    37  H    0.151984
    38  H    0.155261
    39  H    0.155160
    40  H    0.160188
 Sum of Mulliken charges =  -0.00000

 Dipole moment (field-independent basis, Debye):
    X=             -0.0409    Y=             -0.0056    Z=             -0.0151  Tot=              0.0439
 Quadrupole moment (field-independent basis, Debye-Ang):
   XX=            -84.6783   YY=            -85.2763   ZZ=            -84.8710
   XY=             -0.5794   XZ=             -0.2281   YZ=             -0.7177

 Normal termination of Gaussian 16 at Thu May  6 05:23:01 2021.
