 Gaussian 16, Revision A.03,
 Gaussian 16:  EM64L-G16RevA.03 25-Dec-2016

 -------------
 #p 6-31g* mp2
 -------------

 ------------------------------------------------------
 Input file generated by CHIRIPA (05-May-2021 14:55:21)
 ------------------------------------------------------
 Symbolic Z-matrix:
 Charge =  0 Multiplicity = 1

                         Standard orientation:
 ---------------------------------------------------------------------
 Center     Atomic      Atomic             Coordinates (Angstroms)
 Number     Number       Type             X           Y           Z
 ---------------------------------------------------------------------
      1          6           0       -4.662511   -1.671445   -0.524560
      2          6           0       -4.100914   -1.701103    0.756163
      3          6           0       -3.091719   -0.800591    1.109931
      4          6           0       -2.666165    0.120371    0.153885
      5          6           0       -3.205957    0.174889   -1.130226
      6          6           0       -4.214030   -0.735194   -1.462014
      7          1           0       -5.446042   -2.374702   -0.790838
      8          1           0       -4.447241   -2.427112    1.486241
      9          1           0       -2.639530   -0.801519    2.094280
     10          1           0       -2.839983    0.910158   -1.836528
     11          1           0       -4.648348   -0.709852   -2.457389
     12          7           0       -1.598369    1.078770    0.516769
     13          8           0       -1.240963    1.880390   -0.343640
     14          8           0       -1.139055    1.010195    1.654734
     15          6           0        3.831144   -0.607747    0.220115
     16          6           0        4.854572   -1.423171   -0.570874
     17          6           0        5.231036   -2.732480    0.123230
     18          1           0        4.236177   -0.391977    1.218281
     19          1           0        2.928442   -1.215150    0.373689
     20          1           0        5.754542   -0.813918   -0.724105
     21          1           0        4.447133   -1.636861   -1.567341
     22          1           0        4.346809   -3.362888    0.262260
     23          1           0        5.661646   -2.535269    1.110287
     24          1           0        5.963741   -3.299510   -0.459422
     25          6           0        3.444762    0.703963   -0.460955
     26          6           0        2.421334    1.519387    0.330035
     27          6           0        2.044869    2.828696   -0.364069
     28          1           0        4.347464    1.311366   -0.614528
     29          1           0        3.039728    0.488194   -1.459122
     30          1           0        2.828773    1.733076    1.326502
     31          1           0        1.521364    0.910134    0.483266
     32          1           0        1.614260    2.631486   -1.351127
     33          1           0        2.929097    3.459104   -0.503099
     34          1           0        1.312165    3.395725    0.218582
 ---------------------------------------------------------------------

 SCF Done:  E(RHF) =  -669.536003785     A.U. after   15 cycles
 E2 =    -0.2092495797D+01 EUMP2 =    -0.67162849958252D+03

 The electronic state is 1-A.
 Alpha  occ. eigenvalues --  -20.61067 -20.61062 -15.86063 -11.31370 -11.27926
 Alpha  occ. eigenvalues --  -11.27922 -11.27657 -11.26923 -11.26913 -11.20949
 Alpha  occ. eigenvalues --  -11.20576 -11.20499 -11.20187 -11.19840 -11.19076
 Alpha  occ. eigenvalues --   -1.60112  -1.39666  -1.19532  -1.08942  -1.07356
 Alpha  occ. eigenvalues --   -1.04922  -1.02319  -0.95790  -0.94780  -0.86324
 Alpha  occ. eigenvalues --   -0.85821  -0.82619  -0.78481  -0.77681  -0.77055
 Alpha  occ. eigenvalues --   -0.72274  -0.71437  -0.70638  -0.65185  -0.64926
 Alpha  occ. eigenvalues --   -0.64005  -0.62268  -0.59729  -0.58266  -0.56356
 Alpha  occ. eigenvalues --   -0.55418  -0.54119  -0.53250  -0.53011  -0.51476
 Alpha  occ. eigenvalues --   -0.51231  -0.49080  -0.49017  -0.48693  -0.46750
 Alpha  occ. eigenvalues --   -0.45578  -0.45082  -0.44602  -0.44418  -0.42576
 Alpha  occ. eigenvalues --   -0.37506  -0.36521
 Alpha virt. eigenvalues --    0.04804   0.11135   0.16305   0.21270   0.23809
 Alpha virt. eigenvalues --    0.25621   0.27200   0.27624   0.28160   0.28529
 Alpha virt. eigenvalues --    0.29228   0.30853   0.32384   0.32525   0.32678

 Mulliken charges:
               1
     1  C   -0.170403
     2  C   -0.218619
     3  C   -0.170724
     4  C    0.159233
     5  C   -0.170901
     6  C   -0.218604
     7  H    0.226314
     8  H    0.224150
     9  H    0.276156
    10  H    0.275971
    11  H    0.224118
    12  N    0.486818
    13  O   -0.457358
    14  O   -0.458224
    15  C   -0.296378
    16  C   -0.298502
    17  C   -0.474814
    18  H    0.148935
    19  H    0.146776
    20  H    0.150994
    21  H    0.149546
    22  H    0.153009
    23  H    0.154727
    24  H    0.157635
    25  C   -0.298117
    26  C   -0.299555
    27  C   -0.467741
    28  H    0.145447
    29  H    0.145223
    30  H    0.147279
    31  H    0.161338
    32  H    0.152811
    33  H    0.140107
    34  H    0.173351
 Sum of Mulliken charges =  -0.00000

 Dipole moment (field-independent basis, Debye):
    X=             -4.2166    Y=             -3.3047    Z=             -1.1987  Tot=              5.4898
 Quadrupole moment (field-independent basis, Debye-Ang):
   XX=            -76.1990   YY=            -96.3834   ZZ=            -91.0183
   XY=              9.4385   XZ=              3.6868   YZ=             -2.0689

 Normal termination of Gaussian 16 at Wed May  5 15:56:34 2021.
