 Gaussian 16, Revision A.03,
 Gaussian 16:  EM64L-G16RevA.03 25-Dec-2016

 -------------
 #p 6-31g* mp2
 -------------

 ------------------------------------------------------
 Input file generated by CHIRIPA (05-May-2021 14:55:21)
 ------------------------------------------------------
 Symbolic Z-matrix:
 Charge =  0 Multiplicity = 1

                         Standard orientation:
 ---------------------------------------------------------------------
 Center     Atomic      Atomic             Coordinates (Angstroms)
 Number     Number       Type             X           Y           Z
 ---------------------------------------------------------------------
      1          6           0        0.864903   -1.916396    1.641032
      2          6           0        0.586579   -0.551834    1.771522
      3          6           0        1.268412    0.389349    0.994458
      4          6           0        2.226641   -0.071162    0.092783
      5          6           0        2.526393   -1.423947   -0.060227
      6          6           0        1.832217   -2.347337    0.727185
      7          1           0        0.330445   -2.640618    2.248692
      8          1           0       -0.164138   -0.214278    2.480412
      9          1           0        1.072753    1.451713    1.075185
     10          1           0        3.280134   -1.730079   -0.775472
     11          1           0        2.050443   -3.406448    0.623718
     12          7           0        2.955001    0.915808   -0.735336
     13          8           0        3.794652    0.484465   -1.522462
     14          8           0        2.672447    2.102049   -0.581610
     15          6           0       -2.321402    0.962009   -0.353368
     16          6           0       -2.891382    2.064221    0.540072
     17          6           0       -2.130479    3.383944    0.409098
     18          1           0       -1.264046    0.803931   -0.100473
     19          1           0       -2.345768    1.298140   -1.399225
     20          1           0       -2.867226    1.725565    1.583789
     21          1           0       -3.947555    2.219560    0.285151
     22          1           0       -2.165355    3.747960   -0.622831
     23          1           0       -1.078888    3.251158    0.683185
     24          1           0       -2.554662    4.157873    1.056372
     25          6           0       -3.071490   -0.363413   -0.233557
     26          6           0       -2.501511   -1.465626   -1.126997
     27          6           0       -3.262413   -2.785348   -0.996023
     28          1           0       -3.047124   -0.699544    0.812300
     29          1           0       -4.128846   -0.205335   -0.486452
     30          1           0       -1.445338   -1.620964   -0.872077
     31          1           0       -2.525667   -1.126969   -2.170713
     32          1           0       -4.314005   -2.652562   -1.270109
     33          1           0       -3.227538   -3.149365    0.035906
     34          1           0       -2.838230   -3.559276   -1.643297
 ---------------------------------------------------------------------

 SCF Done:  E(RHF) =  -669.534639782     A.U. after   15 cycles
 E2 =    -0.2094669954D+01 EUMP2 =    -0.67162930973604D+03

 The electronic state is 1-A.
 Alpha  occ. eigenvalues --  -20.60847 -20.60842 -15.85903 -11.31321 -11.27894
 Alpha  occ. eigenvalues --  -11.27888 -11.27654 -11.26928 -11.26918 -11.21937
 Alpha  occ. eigenvalues --  -11.21836 -11.21715 -11.21517 -11.21447 -11.21308
 Alpha  occ. eigenvalues --   -1.59921  -1.39473  -1.19516  -1.08896  -1.08717
 Alpha  occ. eigenvalues --   -1.04931  -1.03831  -0.96274  -0.95716  -0.87287
 Alpha  occ. eigenvalues --   -0.86311  -0.82550  -0.79881  -0.78540  -0.77579
 Alpha  occ. eigenvalues --   -0.72121  -0.71245  -0.70614  -0.65438  -0.65142
 Alpha  occ. eigenvalues --   -0.64911  -0.62276  -0.61222  -0.59636  -0.57881
 Alpha  occ. eigenvalues --   -0.55611  -0.55409  -0.53307  -0.53010  -0.52941
 Alpha  occ. eigenvalues --   -0.52673  -0.50235  -0.48884  -0.48873  -0.48198
 Alpha  occ. eigenvalues --   -0.46938  -0.46056  -0.45981  -0.44861  -0.44066
 Alpha  occ. eigenvalues --   -0.37477  -0.36409
 Alpha virt. eigenvalues --    0.04921   0.11039   0.16326   0.19470   0.23005
 Alpha virt. eigenvalues --    0.23364   0.25545   0.25836   0.27621   0.28494
 Alpha virt. eigenvalues --    0.28657   0.30351   0.31285   0.31628   0.32044

 Mulliken charges:
               1
     1  C   -0.170853
     2  C   -0.217245
     3  C   -0.176866
     4  C    0.159600
     5  C   -0.170661
     6  C   -0.218685
     7  H    0.226694
     8  H    0.225484
     9  H    0.280891
    10  H    0.276353
    11  H    0.224512
    12  N    0.487967
    13  O   -0.459946
    14  O   -0.459971
    15  C   -0.306983
    16  C   -0.300588
    17  C   -0.476141
    18  H    0.155630
    19  H    0.153464
    20  H    0.143681
    21  H    0.154152
    22  H    0.161314
    23  H    0.152575
    24  H    0.161166
    25  C   -0.295472
    26  C   -0.303868
    27  C   -0.475029
    28  H    0.140966
    29  H    0.150874
    30  H    0.155781
    31  H    0.154471
    32  H    0.156720
    33  H    0.149759
    34  H    0.160252
 Sum of Mulliken charges =  -0.00000

 Dipole moment (field-independent basis, Debye):
    X=             -2.4508    Y=             -3.4423    Z=              2.8284  Tot=              5.0848
 Quadrupole moment (field-independent basis, Debye-Ang):
   XX=           -105.4137   YY=            -92.5635   ZZ=            -93.2873
   XY=            -10.7416   XZ=              5.7849   YZ=              0.8375

 Normal termination of Gaussian 16 at Thu May  6 12:31:04 2021.
