 Gaussian 16, Revision A.03,
 Gaussian 16:  EM64L-G16RevA.03 25-Dec-2016

 -------------
 #p 6-31g* mp2
 -------------

 ------------------------------------------------------
 Input file generated by CHIRIPA (05-May-2021 14:55:25)
 ------------------------------------------------------
 Symbolic Z-matrix:
 Charge =  0 Multiplicity = 1

                         Standard orientation:
 ---------------------------------------------------------------------
 Center     Atomic      Atomic             Coordinates (Angstroms)
 Number     Number       Type             X           Y           Z
 ---------------------------------------------------------------------
      1          6           0       -2.849010    2.513052    0.159325
      2          6           0       -3.496706    1.866146    1.216928
      3          6           0       -3.691626    0.482012    1.189960
      4          6           0       -3.223965   -0.227413    0.084836
      5          6           0       -2.574992    0.388330   -0.984268
      6          6           0       -2.391028    1.773383   -0.935967
      7          1           0       -2.701847    3.588637    0.188560
      8          1           0       -3.853431    2.438037    2.068827
      9          1           0       -4.189823   -0.044199    1.995143
     10          1           0       -2.230463   -0.208584   -1.819979
     11          1           0       -1.887680    2.273116   -1.758739
     12          7           0       -3.424519   -1.693221    0.044994
     13          8           0       -3.003160   -2.295578   -0.940023
     14          8           0       -3.999274   -2.212007    0.999538
     15          6           0        4.664846   -0.443649    0.138768
     16          6           0        5.950986    0.353854    0.357437
     17          6           0        7.103183   -0.511212    0.869195
     18          1           0        4.373527   -0.923615    1.083073
     19          1           0        4.861512   -1.254440   -0.576309
     20          1           0        5.751605    1.163748    1.070833
     21          1           0        6.239170    0.832133   -0.587452
     22          1           0        7.330631   -1.310688    0.156661
     23          1           0        6.840294   -0.977189    1.824368
     24          1           0        8.012696    0.078981    1.018585
     25          6           0        3.503887    0.407376   -0.372759
     26          6           0        2.217746   -0.390128   -0.591427
     27          6           0        1.065550    0.474938   -1.103187
     28          1           0        3.307220    1.218167    0.342318
     29          1           0        3.795204    0.887341   -1.317065
     30          1           0        1.929561   -0.868407    0.353461
     31          1           0        2.417128   -1.200022   -1.304824
     32          1           0        1.328438    0.940916   -2.058359
     33          1           0        0.838102    1.274415   -0.390652
     34          1           0        0.156036   -0.115255   -1.252576
 ---------------------------------------------------------------------

 SCF Done:  E(RHF) =  -669.534250402     A.U. after   15 cycles
 E2 =    -0.2092476602D+01 EUMP2 =    -0.67162672700416D+03

 The electronic state is 1-A.
 Alpha  occ. eigenvalues --  -20.60773 -20.60768 -15.85825 -11.31173 -11.27734
 Alpha  occ. eigenvalues --  -11.27726 -11.27477 -11.26754 -11.26723 -11.21719
 Alpha  occ. eigenvalues --  -11.21690 -11.21534 -11.21442 -11.21359 -11.21124
 Alpha  occ. eigenvalues --   -1.59848  -1.39402  -1.19351  -1.08745  -1.08549
 Alpha  occ. eigenvalues --   -1.04761  -1.03664  -0.96148  -0.95582  -0.87176
 Alpha  occ. eigenvalues --   -0.86152  -0.82416  -0.79741  -0.78356  -0.77461
 Alpha  occ. eigenvalues --   -0.72044  -0.71172  -0.70474  -0.65178  -0.65002
 Alpha  occ. eigenvalues --   -0.64761  -0.62140  -0.61065  -0.59507  -0.57744
 Alpha  occ. eigenvalues --   -0.55445  -0.55255  -0.53396  -0.52911  -0.52561
 Alpha  occ. eigenvalues --   -0.52448  -0.50072  -0.48801  -0.48799  -0.48049
 Alpha  occ. eigenvalues --   -0.46752  -0.45902  -0.45818  -0.44812  -0.43937
 Alpha  occ. eigenvalues --   -0.37330  -0.36243
 Alpha virt. eigenvalues --    0.05056   0.11188   0.16531   0.21124   0.22773
 Alpha virt. eigenvalues --    0.24158   0.26443   0.26584   0.27250   0.28024
 Alpha virt. eigenvalues --    0.28665   0.29995   0.31185   0.31591   0.32003

 Mulliken charges:
               1
     1  C   -0.172683
     2  C   -0.218362
     3  C   -0.171582
     4  C    0.157936
     5  C   -0.171311
     6  C   -0.212805
     7  H    0.225491
     8  H    0.223222
     9  H    0.275387
    10  H    0.275499
    11  H    0.224977
    12  N    0.488353
    13  O   -0.461175
    14  O   -0.460296
    15  C   -0.298548
    16  C   -0.299601
    17  C   -0.475800
    18  H    0.150854
    19  H    0.150825
    20  H    0.151106
    21  H    0.151463
    22  H    0.155868
    23  H    0.155747
    24  H    0.160088
    25  C   -0.298762
    26  C   -0.299227
    27  C   -0.479757
    28  H    0.147861
    29  H    0.148478
    30  H    0.155200
    31  H    0.154825
    32  H    0.150208
    33  H    0.154016
    34  H    0.162506
 Sum of Mulliken charges =  -0.00000

 Dipole moment (field-independent basis, Debye):
    X=              0.7232    Y=              5.1377    Z=              0.1628  Tot=              5.1909
 Quadrupole moment (field-independent basis, Debye-Ang):
   XX=            -99.7619   YY=            -97.9729   ZZ=            -90.2332
   XY=            -16.8979   XZ=             -3.3019   YZ=              1.0025

 Normal termination of Gaussian 16 at Thu May  6 01:37:48 2021.
