 Gaussian 16, Revision A.03,
 Gaussian 16:  EM64L-G16RevA.03 25-Dec-2016

 -------------
 #p 6-31g* mp2
 -------------

 ------------------------------------------------------
 Input file generated by CHIRIPA (05-May-2021 14:55:20)
 ------------------------------------------------------
 Symbolic Z-matrix:
 Charge =  0 Multiplicity = 1

                         Standard orientation:
 ---------------------------------------------------------------------
 Center     Atomic      Atomic             Coordinates (Angstroms)
 Number     Number       Type             X           Y           Z
 ---------------------------------------------------------------------
      1          6           0       -1.984973    2.192210   -0.666592
      2          6           0       -3.236664    2.052626   -0.058063
      3          6           0       -3.738355    0.784874    0.251225
      4          6           0       -2.958229   -0.326756   -0.063373
      5          6           0       -1.707478   -0.220324   -0.669662
      6          6           0       -1.225714    1.057291   -0.969914
      7          1           0       -1.602987    3.180861   -0.903345
      8          1           0       -3.828503    2.932250    0.178647
      9          1           0       -4.704143    0.648012    0.722331
     10          1           0       -1.140560   -1.115810   -0.893550
     11          1           0       -0.253296    1.162676   -1.442505
     12          7           0       -3.478799   -1.674089    0.259274
     13          8           0       -2.772041   -2.637705   -0.028083
     14          8           0       -4.583723   -1.741000    0.793412
     15          6           0        3.496281    0.723754    0.599831
     16          6           0        2.888774    1.903618   -0.159670
     17          6           0        2.533076    3.075686    0.755496
     18          1           0        2.788264    0.387869    1.369792
     19          1           0        4.397073    1.062677    1.130020
     20          1           0        1.990172    1.562250   -0.689386
     21          1           0        3.598241    2.236610   -0.928039
     22          1           0        3.424262    3.443823    1.274015
     23          1           0        1.807058    2.765632    1.514026
     24          1           0        2.100338    3.908133    0.191911
     25          6           0        3.857146   -0.455724   -0.301465
     26          6           0        4.464652   -1.635589    0.458036
     27          6           0        4.820351   -2.807656   -0.457131
     28          1           0        2.956353   -0.794647   -0.831654
     29          1           0        4.565162   -0.119840   -1.071426
     30          1           0        3.755186   -1.968581    1.226405
     31          1           0        5.363254   -1.294220    0.987751
     32          1           0        5.546369   -2.497602   -1.215659
     33          1           0        3.929164   -3.175794   -0.975650
     34          1           0        5.253089   -3.640103    0.106456
 ---------------------------------------------------------------------

 SCF Done:  E(RHF) =  -669.535502701     A.U. after   15 cycles
 E2 =    -0.2091330003D+01 EUMP2 =    -0.67162683270403D+03

 The electronic state is 1-A.
 Alpha  occ. eigenvalues --  -20.60782 -20.60777 -15.85836 -11.31204 -11.27778
 Alpha  occ. eigenvalues --  -11.27774 -11.27512 -11.26784 -11.26767 -11.22452
 Alpha  occ. eigenvalues --  -11.21974 -11.21925 -11.21864 -11.21844 -11.21285
 Alpha  occ. eigenvalues --   -1.59858  -1.39411  -1.19378  -1.08992  -1.08769
 Alpha  occ. eigenvalues --   -1.04783  -1.04070  -0.96500  -0.95604  -0.87519
 Alpha  occ. eigenvalues --   -0.86181  -0.82439  -0.80162  -0.78786  -0.77485
 Alpha  occ. eigenvalues --   -0.72054  -0.71181  -0.70480  -0.65669  -0.65029
 Alpha  occ. eigenvalues --   -0.64773  -0.62172  -0.61423  -0.59897  -0.58112
 Alpha  occ. eigenvalues --   -0.55774  -0.55278  -0.53212  -0.53105  -0.52957
 Alpha  occ. eigenvalues --   -0.52855  -0.50435  -0.48822  -0.48809  -0.48450
 Alpha  occ. eigenvalues --   -0.47184  -0.46322  -0.46229  -0.44816  -0.44325
 Alpha  occ. eigenvalues --   -0.37352  -0.36381
 Alpha virt. eigenvalues --    0.05049   0.11194   0.16501   0.19613   0.22840
 Alpha virt. eigenvalues --    0.23867   0.24882   0.26603   0.27068   0.28562
 Alpha virt. eigenvalues --    0.29086   0.29804   0.31218   0.31360   0.32174

 Mulliken charges:
               1
     1  C   -0.171808
     2  C   -0.218666
     3  C   -0.170880
     4  C    0.158636
     5  C   -0.172557
     6  C   -0.222112
     7  H    0.226267
     8  H    0.223569
     9  H    0.275687
    10  H    0.275296
    11  H    0.230028
    12  N    0.488091
    13  O   -0.460562
    14  O   -0.460361
    15  C   -0.299047
    16  C   -0.302410
    17  C   -0.476500
    18  H    0.152659
    19  H    0.152387
    20  H    0.142608
    21  H    0.154329
    22  H    0.159496
    23  H    0.158257
    24  H    0.155473
    25  C   -0.297375
    26  C   -0.300544
    27  C   -0.476161
    28  H    0.144455
    29  H    0.150439
    30  H    0.154650
    31  H    0.152850
    32  H    0.154889
    33  H    0.156286
    34  H    0.162629
 Sum of Mulliken charges =  -0.00000

 Dipole moment (field-independent basis, Debye):
    X=              1.9597    Y=              4.7228    Z=             -1.0453  Tot=              5.2189
 Quadrupole moment (field-independent basis, Debye-Ang):
   XX=           -100.9511   YY=            -98.1351   ZZ=            -94.8987
   XY=            -16.2336   XZ=              1.7277   YZ=              0.4868

 Normal termination of Gaussian 16 at Thu May  6 12:26:53 2021.
