 Gaussian 16, Revision A.03,
 Gaussian 16:  EM64L-G16RevA.03 25-Dec-2016

 -------------
 #p 6-31g* mp2
 -------------

 ------------------------------------------------------
 Input file generated by CHIRIPA (05-May-2021 14:51:14)
 ------------------------------------------------------
 Symbolic Z-matrix:
 Charge =  0 Multiplicity = 1

                         Standard orientation:
 ---------------------------------------------------------------------
 Center     Atomic      Atomic             Coordinates (Angstroms)
 Number     Number       Type             X           Y           Z
 ---------------------------------------------------------------------
      1          6           0        3.041120   -0.099066   -0.251233
      2          6           0        3.353114   -1.180293    0.783944
      3          6           0        3.590808   -2.552326    0.152421
      4          1           0        2.154894   -0.397353   -0.827925
      5          1           0        3.872691   -0.035348   -0.966651
      6          1           0        2.521822   -1.240998    1.498007
      7          1           0        4.238587   -0.879307    1.358367
      8          1           0        4.433313   -2.514348   -0.545681
      9          1           0        2.706794   -2.878094   -0.405248
     10          1           0        3.812134   -3.310233    0.910346
     11          6           0        2.801072    1.278134    0.364742
     12          6           0        2.489078    2.359361   -0.670435
     13          6           0        2.251383    3.731394   -0.038911
     14          1           0        1.969500    1.214416    1.080160
     15          1           0        3.687298    1.576421    0.941434
     16          1           0        1.603605    2.058375   -1.244858
     17          1           0        3.320369    2.420066   -1.384497
     18          1           0        3.135398    4.057162    0.518757
     19          1           0        1.408879    3.693416    0.659190
     20          1           0        2.030058    4.489301   -0.796837
     21          6           0       -2.685189   -1.315465   -0.085112
     22          6           0       -1.185383   -1.455839   -0.347527
     23          6           0       -0.728620   -2.914006   -0.401467
     24          1           0       -2.933567   -1.814258    0.861703
     25          1           0       -3.239247   -1.845344   -0.872285
     26          1           0       -0.634343   -0.924684    0.439140
     27          1           0       -0.940514   -0.956488   -1.293733
     28          1           0       -1.252327   -3.452538   -1.197907
     29          1           0       -0.944416   -3.420554    0.544811
     30          1           0        0.346716   -2.991151   -0.590046
     31          6           0       -3.157003    0.136397   -0.028398
     32          6           0       -4.656809    0.276772    0.234018
     33          6           0       -5.113572    1.734939    0.287958
     34          1           0       -2.602943    0.666277    0.758776
     35          1           0       -2.908625    0.635190   -0.975212
     36          1           0       -4.901677   -0.222580    1.180223
     37          1           0       -5.207848   -0.254384   -0.552649
     38          1           0       -4.897775    2.241486   -0.658321
     39          1           0       -4.589865    2.273470    1.084397
     40          1           0       -6.188907    1.812083    0.476536
 ---------------------------------------------------------------------

 SCF Done:  E(RHF) =  -470.733300679     A.U. after   11 cycles
 E2 =    -0.1583404736D+01 EUMP2 =    -0.47231670541529D+03

 The electronic state is 1-A.
 Alpha  occ. eigenvalues --  -11.21697 -11.21642 -11.21592 -11.21577 -11.21467
 Alpha  occ. eigenvalues --  -11.21407 -11.21380 -11.21319 -11.21131 -11.21102
 Alpha  occ. eigenvalues --  -11.21063 -11.21052  -1.08497  -1.08405  -1.03600
 Alpha  occ. eigenvalues --   -1.03506  -0.96045  -0.95958  -0.87070  -0.86966
 Alpha  occ. eigenvalues --   -0.79658  -0.79573  -0.78312  -0.78217  -0.65147
 Alpha  occ. eigenvalues --   -0.65031  -0.61030  -0.60929  -0.59422  -0.59293
 Alpha  occ. eigenvalues --   -0.57672  -0.57545  -0.55327  -0.55268  -0.52773
 Alpha  occ. eigenvalues --   -0.52658  -0.52494  -0.52321  -0.49978  -0.49902
 Alpha  occ. eigenvalues --   -0.47990  -0.47855  -0.46693  -0.46598  -0.45904
 Alpha  occ. eigenvalues --   -0.45804  -0.45698  -0.45641  -0.43826  -0.43764
 Alpha virt. eigenvalues --    0.19655   0.23057   0.23453   0.25110   0.25598
 Alpha virt. eigenvalues --    0.26055   0.26791   0.27632   0.28343   0.29233
 Alpha virt. eigenvalues --    0.30141   0.31266   0.31694   0.31840   0.32292

 Mulliken charges:
               1
     1  C   -0.301484
     2  C   -0.299839
     3  C   -0.481030
     4  H    0.153433
     5  H    0.149297
     6  H    0.152222
     7  H    0.152017
     8  H    0.155363
     9  H    0.159541
    10  H    0.160539
    11  C   -0.298250
    12  C   -0.299771
    13  C   -0.475657
    14  H    0.149334
    15  H    0.149499
    16  H    0.152440
    17  H    0.151742
    18  H    0.155029
    19  H    0.155172
    20  H    0.160190
    21  C   -0.298713
    22  C   -0.300662
    23  C   -0.483319
    24  H    0.149962
    25  H    0.149950
    26  H    0.152587
    27  H    0.151806
    28  H    0.155757
    29  H    0.155794
    30  H    0.166773
    31  C   -0.298262
    32  C   -0.299701
    33  C   -0.475751
    34  H    0.149236
    35  H    0.149683
    36  H    0.152058
    37  H    0.152083
    38  H    0.155284
    39  H    0.155216
    40  H    0.160431
 Sum of Mulliken charges =  -0.00000

 Dipole moment (field-independent basis, Debye):
    X=             -0.0246    Y=             -0.0108    Z=             -0.0058  Tot=              0.0275
 Quadrupole moment (field-independent basis, Debye-Ang):
   XX=            -84.0047   YY=            -86.8462   ZZ=            -83.8456
   XY=              0.9097   XZ=              0.1879   YZ=             -0.3904

 Normal termination of Gaussian 16 at Wed May  5 16:54:18 2021.
