 Gaussian 16, Revision A.03,
 Gaussian 16:  EM64L-G16RevA.03 25-Dec-2016

 -------------
 #p 6-31g* mp2
 -------------

 ------------------------------------------------------
 Input file generated by CHIRIPA (05-May-2021 14:53:18)
 ------------------------------------------------------
 Symbolic Z-matrix:
 Charge =  0 Multiplicity = 1

                         Standard orientation:
 ---------------------------------------------------------------------
 Center     Atomic      Atomic             Coordinates (Angstroms)
 Number     Number       Type             X           Y           Z
 ---------------------------------------------------------------------
      1          6           0       -3.377108    0.561130   -0.457902
      2          6           0       -3.314047    2.011305    0.022725
      3          6           0       -2.241132    2.827177   -0.699078
      4          1           0       -2.395578    0.089920   -0.311258
      5          1           0       -3.571354    0.548707   -1.539341
      6          1           0       -3.121353    2.020965    1.103184
      7          1           0       -4.295895    2.479061   -0.124904
      8          1           0       -2.432518    2.847316   -1.776838
      9          1           0       -1.251302    2.386617   -0.541773
     10          1           0       -2.213414    3.860714   -0.340061
     11          6           0       -4.444914   -0.267256    0.254345
     12          6           0       -4.507975   -1.717430   -0.226282
     13          6           0       -5.580890   -2.533303    0.495521
     14          1           0       -4.250668   -0.254833    1.335784
     15          1           0       -5.426444    0.203955    0.107701
     16          1           0       -3.526126   -2.185187   -0.078653
     17          1           0       -4.700669   -1.727091   -1.306741
     18          1           0       -6.570720   -2.092743    0.338216
     19          1           0       -5.389504   -2.553442    1.573281
     20          1           0       -5.608608   -3.566840    0.136504
     21          6           0        5.438344   -0.846744   -0.310511
     22          6           0        4.485710   -0.995100   -1.323922
     23          6           0        3.162510   -0.593020   -1.118928
     24          6           0        2.825110   -0.044033    0.117221
     25          6           0        3.751356    0.116798    1.146537
     26          6           0        5.068778   -0.292246    0.919315
     27          1           0        6.463993   -1.161795   -0.478389
     28          1           0        4.769870   -1.425409   -2.280023
     29          1           0        2.404818   -0.696383   -1.886155
     30          1           0        3.438067    0.549137    2.089062
     31          1           0        5.806489   -0.175826    1.708159
     32          7           0        1.427357    0.385319    0.346004
     33          8           0        1.155455    0.866120    1.443973
     34          8           0        0.630164    0.232912   -0.576977
 ---------------------------------------------------------------------

 SCF Done:  E(RHF) =  -669.536997643     A.U. after   15 cycles
 E2 =    -0.2091811105D+01 EUMP2 =    -0.67162880874787D+03

 The electronic state is 1-A.
 Alpha  occ. eigenvalues --  -20.61204 -20.61176 -15.86181 -11.31423 -11.27971
 Alpha  occ. eigenvalues --  -11.27967 -11.27695 -11.26957 -11.26947 -11.20598
 Alpha  occ. eigenvalues --  -11.20278 -11.20133 -11.19986 -11.19668 -11.19209
 Alpha  occ. eigenvalues --   -1.60227  -1.39785  -1.19579  -1.09001  -1.07046
 Alpha  occ. eigenvalues --   -1.04960  -1.02176  -0.95854  -0.94625  -0.86365
 Alpha  occ. eigenvalues --   -0.85647  -0.82690  -0.78304  -0.77755  -0.76791
 Alpha  occ. eigenvalues --   -0.72389  -0.71527  -0.70687  -0.65235  -0.64964
 Alpha  occ. eigenvalues --   -0.63673  -0.62307  -0.59569  -0.58057  -0.56232
 Alpha  occ. eigenvalues --   -0.55470  -0.53901  -0.53295  -0.53050  -0.51383
 Alpha  occ. eigenvalues --   -0.51046  -0.49247  -0.49158  -0.48521  -0.46586
 Alpha  occ. eigenvalues --   -0.45359  -0.45156  -0.44357  -0.44110  -0.42422
 Alpha  occ. eigenvalues --   -0.37553  -0.36556
 Alpha virt. eigenvalues --    0.04739   0.11101   0.16254   0.21238   0.24184
 Alpha virt. eigenvalues --    0.25740   0.27171   0.27940   0.28219   0.28921
 Alpha virt. eigenvalues --    0.29358   0.30824   0.32338   0.32770   0.32879

 Mulliken charges:
               1
     1  C   -0.305971
     2  C   -0.295990
     3  C   -0.484562
     4  H    0.173376
     5  H    0.142509
     6  H    0.152670
     7  H    0.142913
     8  H    0.146218
     9  H    0.180890
    10  H    0.150588
    11  C   -0.297464
    12  C   -0.298525
    13  C   -0.474827
    14  H    0.148674
    15  H    0.144608
    16  H    0.152776
    17  H    0.149221
    18  H    0.153259
    19  H    0.154139
    20  H    0.156431
    21  C   -0.170218
    22  C   -0.218608
    23  C   -0.170515
    24  C    0.158097
    25  C   -0.170412
    26  C   -0.218659
    27  H    0.226509
    28  H    0.224366
    29  H    0.276394
    30  H    0.276129
    31  H    0.224280
    32  N    0.488862
    33  O   -0.458090
    34  O   -0.459065
 Sum of Mulliken charges =  -0.00000

 Dipole moment (field-independent basis, Debye):
    X=              5.4921    Y=             -1.6080    Z=             -0.7433  Tot=              5.7707
 Quadrupole moment (field-independent basis, Debye-Ang):
   XX=            -68.9016   YY=            -96.4015   ZZ=            -90.5324
   XY=             -4.7214   XZ=              0.1580   YZ=              1.8252

 Normal termination of Gaussian 16 at Thu May  6 02:48:29 2021.
