 Gaussian 16, Revision A.03,
 Gaussian 16:  EM64L-G16RevA.03 25-Dec-2016

 -------------
 #p 6-31g* mp2
 -------------

 ------------------------------------------------------
 Input file generated by CHIRIPA (05-May-2021 14:53:13)
 ------------------------------------------------------
 Symbolic Z-matrix:
 Charge =  0 Multiplicity = 1

                         Standard orientation:
 ---------------------------------------------------------------------
 Center     Atomic      Atomic             Coordinates (Angstroms)
 Number     Number       Type             X           Y           Z
 ---------------------------------------------------------------------
      1          6           0       -3.047000    1.386091   -0.046180
      2          6           0       -1.597967    1.842006    0.128259
      3          6           0       -1.474675    3.350937    0.342086
      4          1           0       -3.491311    1.916317   -0.899640
      5          1           0       -3.625852    1.680247    0.840272
      6          1           0       -1.021710    1.545857   -0.757652
      7          1           0       -1.156995    1.310491    0.981284
      8          1           0       -2.025112    3.659488    1.236745
      9          1           0       -1.889058    3.896192   -0.512072
     10          1           0       -0.430462    3.655071    0.464488
     11          6           0       -3.186567   -0.119948   -0.260881
     12          6           0       -4.635600   -0.575863   -0.435321
     13          6           0       -4.758893   -2.084794   -0.649148
     14          1           0       -2.607715   -0.414104   -1.147334
     15          1           0       -2.742256   -0.650174    0.592578
     16          1           0       -5.076572   -0.044348   -1.288346
     17          1           0       -5.211857   -0.279714    0.450590
     18          1           0       -4.344509   -2.630048    0.205010
     19          1           0       -4.208455   -2.393345   -1.543807
     20          1           0       -5.803105   -2.388928   -0.771550
     21          6           0        4.178307    1.111311   -0.744838
     22          6           0        4.301428   -0.258733   -0.998495
     23          6           0        3.341493   -1.157698   -0.524221
     24          6           0        2.266449   -0.649840    0.203550
     25          6           0        2.115896    0.709635    0.472722
     26          6           0        3.087856    1.590278   -0.011332
     27          1           0        4.928677    1.802533   -1.117065
     28          1           0        5.147231   -0.633540   -1.567863
     29          1           0        3.412204   -2.223224   -0.706079
     30          1           0        1.261649    1.053388    1.043259
     31          1           0        2.989660    2.653761    0.187180
     32          7           0        1.243844   -1.591835    0.710820
     33          8           0        0.306109   -1.119191    1.349487
     34          8           0        1.399425   -2.784980    0.460145
 ---------------------------------------------------------------------

 SCF Done:  E(RHF) =  -669.535715758     A.U. after   15 cycles
 E2 =    -0.2092952026D+01 EUMP2 =    -0.67162866778388D+03

 The electronic state is 1-A.
 Alpha  occ. eigenvalues --  -20.60896 -20.60884 -15.85921 -11.31216 -11.27793
 Alpha  occ. eigenvalues --  -11.27747 -11.27529 -11.26795 -11.26778 -11.21281
 Alpha  occ. eigenvalues --  -11.21151 -11.20901 -11.20897 -11.20488 -11.20319
 Alpha  occ. eigenvalues --   -1.59949  -1.39507  -1.19391  -1.08801  -1.07864
 Alpha  occ. eigenvalues --   -1.04785  -1.03081  -0.95648  -0.95527  -0.86543
 Alpha  occ. eigenvalues --   -0.86186  -0.82485  -0.79187  -0.77743  -0.77387
 Alpha  occ. eigenvalues --   -0.72151  -0.71255  -0.70505  -0.65054  -0.64806
 Alpha  occ. eigenvalues --   -0.64473  -0.62165  -0.60466  -0.58946  -0.57132
 Alpha  occ. eigenvalues --   -0.55290  -0.54800  -0.53115  -0.52881  -0.52281
 Alpha  occ. eigenvalues --   -0.51946  -0.49471  -0.48923  -0.48896  -0.47429
 Alpha  occ. eigenvalues --   -0.46152  -0.45363  -0.45089  -0.44610  -0.43287
 Alpha  occ. eigenvalues --   -0.37373  -0.36374
 Alpha virt. eigenvalues --    0.04966   0.11238   0.16431   0.20464   0.23448
 Alpha virt. eigenvalues --    0.24278   0.26449   0.27072   0.27619   0.28408
 Alpha virt. eigenvalues --    0.29464   0.30400   0.31670   0.31916   0.32861

 Mulliken charges:
               1
     1  C   -0.296939
     2  C   -0.312506
     3  C   -0.474537
     4  H    0.145979
     5  H    0.148647
     6  H    0.148551
     7  H    0.169097
     8  H    0.157302
     9  H    0.155926
    10  H    0.146553
    11  C   -0.302936
    12  C   -0.299625
    13  C   -0.475547
    14  H    0.146490
    15  H    0.170313
    16  H    0.147674
    17  H    0.150118
    18  H    0.160666
    19  H    0.154578
    20  H    0.156751
    21  C   -0.170285
    22  C   -0.218994
    23  C   -0.170335
    24  C    0.155280
    25  C   -0.169535
    26  C   -0.221897
    27  H    0.225768
    28  H    0.223489
    29  H    0.275526
    30  H    0.283373
    31  H    0.224021
    32  N    0.490168
    33  O   -0.463680
    34  O   -0.459451
 Sum of Mulliken charges =  -0.00000

 Dipole moment (field-independent basis, Debye):
    X=              3.6630    Y=              3.1102    Z=             -1.6783  Tot=              5.0899
 Quadrupole moment (field-independent basis, Debye-Ang):
   XX=            -78.1094   YY=            -98.0866   ZZ=            -94.4197
   XY=              3.0357   XZ=             -5.1660   YZ=              3.2707

 Normal termination of Gaussian 16 at Wed May  5 23:24:29 2021.
