 Gaussian 16, Revision A.03,
 Gaussian 16:  EM64L-G16RevA.03 25-Dec-2016

 -------------
 #p 6-31g* mp2
 -------------

 ------------------------------------------------------
 Input file generated by CHIRIPA (05-May-2021 14:57:26)
 ------------------------------------------------------
 Symbolic Z-matrix:
 Charge =  0 Multiplicity = 1

                         Standard orientation:
 ---------------------------------------------------------------------
 Center     Atomic      Atomic             Coordinates (Angstroms)
 Number     Number       Type             X           Y           Z
 ---------------------------------------------------------------------
      1          6           0        2.830018    2.416376    0.433300
      2          6           0        4.003628    2.290274   -0.317205
      3          6           0        4.537729    1.028091   -0.593209
      4          6           0        3.869278   -0.091779   -0.100914
      5          6           0        2.698287    0.001185    0.649704
      6          6           0        2.182235    1.273444    0.913513
      7          1           0        2.422126    3.400784    0.642970
      8          1           0        4.508837    3.176146   -0.691425
      9          1           0        5.444804    0.901636   -1.171691
     10          1           0        2.217132   -0.900278    1.009250
     11          1           0        1.270637    1.368354    1.496630
     12          7           0        4.425153   -1.433329   -0.386651
     13          8           0        3.817283   -2.404417    0.058455
     14          8           0        5.458192   -1.488346   -1.050309
     15          6           0       -1.464179   -0.510538    0.985696
     16          6           0       -1.853880    0.770762    0.582060
     17          6           0       -3.133248    0.993636    0.064284
     18          6           0       -4.001322   -0.092471   -0.036270
     19          6           0       -3.642545   -1.380736    0.357354
     20          6           0       -2.358180   -1.580313    0.872255
     21          1           0       -0.468395   -0.674624    1.386800
     22          1           0       -1.161682    1.603437    0.669007
     23          1           0       -3.460964    1.975276   -0.255722
     24          1           0       -4.354628   -2.191039    0.258529
     25          1           0       -2.058261   -2.576468    1.184934
     26          7           0       -5.358378    0.131145   -0.582894
     27          8           0       -6.104523   -0.842390   -0.661222
     28          8           0       -5.650196    1.275714   -0.922659
 ---------------------------------------------------------------------

 SCF Done:  E(RHF) =  -868.335914523     A.U. after   16 cycles
 E2 =    -0.2600883372D+01 EUMP2 =    -0.87093679789527D+03

 The electronic state is 1-A.
 Alpha  occ. eigenvalues --  -20.61533 -20.61516 -20.61112 -20.61102 -15.86589
 Alpha  occ. eigenvalues --  -15.86167 -11.32103 -11.31645 -11.28820 -11.28633
 Alpha  occ. eigenvalues --  -11.28466 -11.28261 -11.28181 -11.28111 -11.27880
 Alpha  occ. eigenvalues --  -11.27646 -11.27393 -11.27235  -1.60598  -1.60182
 Alpha  occ. eigenvalues --   -1.40149  -1.39732  -1.20298  -1.19841  -1.09659
 Alpha  occ. eigenvalues --   -1.09242  -1.05753  -1.05258  -0.96470  -0.96054
 Alpha  occ. eigenvalues --   -0.87150  -0.86664  -0.83328  -0.82874  -0.78363
 Alpha  occ. eigenvalues --   -0.77877  -0.72807  -0.72387  -0.71921  -0.71505
 Alpha  occ. eigenvalues --   -0.71448  -0.70997  -0.65963  -0.65926  -0.65491
 Alpha  occ. eigenvalues --   -0.65217  -0.63116  -0.62565  -0.56234  -0.55832
 Alpha  occ. eigenvalues --   -0.54032  -0.53890  -0.53571  -0.53334  -0.49575
 Alpha  occ. eigenvalues --   -0.49550  -0.49154  -0.49131  -0.45523  -0.45113
 Alpha  occ. eigenvalues --   -0.38258  -0.37878  -0.37314  -0.36836
 Alpha virt. eigenvalues --    0.04210   0.04665   0.10211   0.10814   0.15586
 Alpha virt. eigenvalues --    0.16109   0.17529   0.22363   0.24166   0.25030
 Alpha virt. eigenvalues --    0.27960   0.29137   0.30301   0.30785   0.33087

 Mulliken charges:
               1
     1  C   -0.170466
     2  C   -0.217824
     3  C   -0.168720
     4  C    0.160254
     5  C   -0.171822
     6  C   -0.221121
     7  H    0.227367
     8  H    0.227456
     9  H    0.279075
    10  H    0.270497
    11  H    0.216116
    12  N    0.488523
    13  O   -0.461202
    14  O   -0.456687
    15  C   -0.170717
    16  C   -0.218443
    17  C   -0.170022
    18  C    0.159295
    19  C   -0.169753
    20  C   -0.218168
    21  H    0.218775
    22  H    0.215321
    23  H    0.276063
    24  H    0.278230
    25  H    0.228254
    26  N    0.487926
    27  O   -0.458232
    28  O   -0.459975
 Sum of Mulliken charges =  -0.00000

 Dipole moment (field-independent basis, Debye):
    X=              2.9319    Y=              3.8939    Z=              2.7574  Tot=              5.6001
 Quadrupole moment (field-independent basis, Debye-Ang):
   XX=           -154.0436   YY=           -100.0347   ZZ=           -105.4058
   XY=             24.8950   XZ=             -6.4608   YZ=             -2.7875

 Normal termination of Gaussian 16 at Thu May  6 22:54:23 2021.
