 Gaussian 16, Revision A.03,
 Gaussian 16:  EM64L-G16RevA.03 25-Dec-2016

 -------------
 #p 6-31g* mp2
 -------------

 ------------------------------------------------------
 Input file generated by CHIRIPA (05-May-2021 14:57:23)
 ------------------------------------------------------
 Symbolic Z-matrix:
 Charge =  0 Multiplicity = 1

                         Standard orientation:
 ---------------------------------------------------------------------
 Center     Atomic      Atomic             Coordinates (Angstroms)
 Number     Number       Type             X           Y           Z
 ---------------------------------------------------------------------
      1          6           0        2.138180    1.745503   -0.539553
      2          6           0        1.770362    0.562178    0.109272
      3          6           0        2.730339   -0.406091    0.418218
      4          6           0        4.054944   -0.157182    0.062191
      5          6           0        4.452686    1.011782   -0.584813
      6          6           0        3.475810    1.966139   -0.883917
      7          1           0        1.385883    2.492274   -0.775726
      8          1           0        0.732291    0.388139    0.377906
      9          1           0        2.473184   -1.331016    0.920018
     10          1           0        5.495389    1.156929   -0.840001
     11          1           0        3.764355    2.884199   -1.387855
     12          7           0        5.080174   -1.174881    0.384048
     13          8           0        6.240481   -0.931662    0.059751
     14          8           0        4.704029   -2.196503    0.954523
     15          6           0       -2.829575    2.218462    0.521386
     16          6           0       -4.059640    1.873505    1.091004
     17          6           0       -4.654260    0.641153    0.804147
     18          6           0       -3.988103   -0.226039   -0.060435
     19          6           0       -2.761731    0.088822   -0.643673
     20          6           0       -2.185682    1.326593   -0.342611
     21          1           0       -2.374873    3.177887    0.749741
     22          1           0       -4.561974    2.564162    1.762343
     23          1           0       -5.605806    0.348660    1.231259
     24          1           0       -2.284985   -0.620515   -1.309233
     25          1           0       -1.230320    1.591825   -0.786436
     26          7           0       -4.607770   -1.533544   -0.371636
     27          8           0       -4.000618   -2.279933   -1.136427
     28          8           0       -5.688884   -1.787216    0.155128
 ---------------------------------------------------------------------

 SCF Done:  E(RHF) =  -868.336438008     A.U. after   16 cycles
 E2 =    -0.2600493453D+01 EUMP2 =    -0.87093693146129D+03

 The electronic state is 1-A.
 Alpha  occ. eigenvalues --  -20.61381 -20.61375 -20.61117 -20.61110 -15.86445
 Alpha  occ. eigenvalues --  -15.86174 -11.32004 -11.31695 -11.28681 -11.28589
 Alpha  occ. eigenvalues --  -11.28445 -11.28267 -11.28264 -11.28186 -11.27802
 Alpha  occ. eigenvalues --  -11.27605 -11.27366 -11.27356  -1.60453  -1.60188
 Alpha  occ. eigenvalues --   -1.40001  -1.39737  -1.20228  -1.19895  -1.09587
 Alpha  occ. eigenvalues --   -1.09294  -1.05675  -1.05308  -0.96376  -0.96097
 Alpha  occ. eigenvalues --   -0.87082  -0.86712  -0.83215  -0.82910  -0.78237
 Alpha  occ. eigenvalues --   -0.77894  -0.72657  -0.72392  -0.71782  -0.71512
 Alpha  occ. eigenvalues --   -0.71326  -0.71090  -0.65885  -0.65874  -0.65541
 Alpha  occ. eigenvalues --   -0.65213  -0.63048  -0.62578  -0.56166  -0.55922
 Alpha  occ. eigenvalues --   -0.54003  -0.53804  -0.53632  -0.53340  -0.49433
 Alpha  occ. eigenvalues --   -0.49399  -0.49163  -0.49134  -0.45363  -0.45106
 Alpha  occ. eigenvalues --   -0.38214  -0.37934  -0.37276  -0.36900
 Alpha virt. eigenvalues --    0.04321   0.04613   0.10284   0.10691   0.15616
 Alpha virt. eigenvalues --    0.16045   0.18266   0.22028   0.24817   0.26514
 Alpha virt. eigenvalues --    0.27691   0.28828   0.29916   0.30884   0.31925

 Mulliken charges:
               1
     1  C   -0.174730
     2  C   -0.223784
     3  C   -0.170230
     4  C    0.159523
     5  C   -0.170324
     6  C   -0.217404
     7  H    0.217033
     8  H    0.224564
     9  H    0.279248
    10  H    0.277564
    11  H    0.224554
    12  N    0.487884
    13  O   -0.459064
    14  O   -0.457933
    15  C   -0.170985
    16  C   -0.218342
    17  C   -0.168545
    18  C    0.159465
    19  C   -0.172895
    20  C   -0.226508
    21  H    0.225581
    22  H    0.226811
    23  H    0.279024
    24  H    0.278582
    25  H    0.219017
    26  N    0.487976
    27  O   -0.458357
    28  O   -0.457727
 Sum of Mulliken charges =  -0.00000

 Dipole moment (field-independent basis, Debye):
    X=             -1.5491    Y=              8.0479    Z=              0.0434  Tot=              8.1958
 Quadrupole moment (field-independent basis, Debye-Ang):
   XX=           -144.3899   YY=           -107.1394   ZZ=           -103.6950
   XY=             -2.5906   XZ=            -13.8891   YZ=             -0.6093

 Normal termination of Gaussian 16 at Fri May  7 04:52:57 2021.
