 Gaussian 16, Revision A.03,
 Gaussian 16:  EM64L-G16RevA.03 25-Dec-2016

 -------------
 #p 6-31g* mp2
 -------------

 ------------------------------------------------------
 Input file generated by CHIRIPA (05-May-2021 14:55:24)
 ------------------------------------------------------
 Symbolic Z-matrix:
 Charge =  0 Multiplicity = 1

                         Standard orientation:
 ---------------------------------------------------------------------
 Center     Atomic      Atomic             Coordinates (Angstroms)
 Number     Number       Type             X           Y           Z
 ---------------------------------------------------------------------
      1          6           0       -5.040074   -0.763608   -0.833055
      2          6           0       -4.078259   -1.768820   -0.688200
      3          6           0       -2.838957   -1.487064   -0.105711
      4          6           0       -2.593906   -0.183348    0.322733
      5          6           0       -3.531714    0.839779    0.192289
      6          6           0       -4.764219    0.535193   -0.393124
      7          1           0       -6.000154   -0.991351   -1.286682
      8          1           0       -4.289737   -2.778382   -1.028944
      9          1           0       -2.076288   -2.246196    0.018676
     10          1           0       -3.291870    1.836719    0.541578
     11          1           0       -5.509284    1.317852   -0.504336
     12          7           0       -1.285511    0.127018    0.940936
     13          8           0       -1.094131    1.283565    1.310275
     14          8           0       -0.476145   -0.792139    1.044438
     15          6           0        3.905325   -0.334165   -0.575112
     16          6           0        4.717400   -1.137273    0.441518
     17          6           0        5.329454   -2.403433   -0.158500
     18          1           0        3.108214   -0.970629   -0.983121
     19          1           0        4.553293   -0.064221   -1.420489
     20          1           0        4.068448   -1.404438    1.285379
     21          1           0        5.512552   -0.498765    0.847296
     22          1           0        5.998976   -2.152151   -0.987474
     23          1           0        4.546666   -3.062970   -0.546902
     24          1           0        5.905641   -2.962286    0.585510
     25          6           0        3.287110    0.934486    0.009746
     26          6           0        2.475036    1.737595   -1.006884
     27          6           0        1.862982    3.003755   -0.406865
     28          1           0        2.639143    0.664543    0.855125
     29          1           0        4.084222    1.570950    0.417756
     30          1           0        1.679883    1.099086   -1.412662
     31          1           0        3.123988    2.004759   -1.850744
     32          1           0        2.645769    3.663292   -0.018464
     33          1           0        1.193459    2.752472    0.422109
     34          1           0        1.286794    3.562607   -1.150876
 ---------------------------------------------------------------------

 SCF Done:  E(RHF) =  -669.536864693     A.U. after   15 cycles
 E2 =    -0.2091601210D+01 EUMP2 =    -0.67162846590302D+03

 The electronic state is 1-A.
 Alpha  occ. eigenvalues --  -20.61116 -20.61107 -15.86121 -11.31379 -11.27933
 Alpha  occ. eigenvalues --  -11.27927 -11.27659 -11.26925 -11.26914 -11.20592
 Alpha  occ. eigenvalues --  -11.20325 -11.20288 -11.20242 -11.19941 -11.19555
 Alpha  occ. eigenvalues --   -1.60156  -1.39714  -1.19539  -1.08956  -1.07206
 Alpha  occ. eigenvalues --   -1.04925  -1.02361  -0.95808  -0.94801  -0.86329
 Alpha  occ. eigenvalues --   -0.85823  -0.82644  -0.78450  -0.77704  -0.77004
 Alpha  occ. eigenvalues --   -0.72343  -0.71464  -0.70647  -0.65195  -0.64929
 Alpha  occ. eigenvalues --   -0.63813  -0.62272  -0.59744  -0.58212  -0.56427
 Alpha  occ. eigenvalues --   -0.55433  -0.54065  -0.53258  -0.53015  -0.51549
 Alpha  occ. eigenvalues --   -0.51236  -0.49157  -0.49103  -0.48671  -0.46762
 Alpha  occ. eigenvalues --   -0.45515  -0.45056  -0.44577  -0.44374  -0.42606
 Alpha  occ. eigenvalues --   -0.37514  -0.36522
 Alpha virt. eigenvalues --    0.04792   0.11134   0.16283   0.21264   0.24061
 Alpha virt. eigenvalues --    0.25459   0.27199   0.27765   0.28224   0.28781
 Alpha virt. eigenvalues --    0.29175   0.30856   0.32340   0.32566   0.32795

 Mulliken charges:
               1
     1  C   -0.170330
     2  C   -0.218594
     3  C   -0.170566
     4  C    0.158039
     5  C   -0.170453
     6  C   -0.218597
     7  H    0.226356
     8  H    0.224131
     9  H    0.275812
    10  H    0.276289
    11  H    0.224215
    12  N    0.489458
    13  O   -0.459520
    14  O   -0.460195
    15  C   -0.296739
    16  C   -0.299954
    17  C   -0.474926
    18  H    0.150419
    19  H    0.143709
    20  H    0.157295
    21  H    0.149134
    22  H    0.152355
    23  H    0.153763
    24  H    0.157439
    25  C   -0.302658
    26  C   -0.295320
    27  C   -0.486837
    28  H    0.168987
    29  H    0.143849
    30  H    0.148119
    31  H    0.144303
    32  H    0.148476
    33  H    0.182148
    34  H    0.150392
 Sum of Mulliken charges =  -0.00000

 Dipole moment (field-independent basis, Debye):
    X=             -5.0063    Y=             -1.1739    Z=             -1.9640  Tot=              5.5044
 Quadrupole moment (field-independent basis, Debye-Ang):
   XX=            -71.6396   YY=            -91.1130   ZZ=            -97.1632
   XY=              2.9683   XZ=              4.6768   YZ=              0.7195

 Normal termination of Gaussian 16 at Thu May  6 20:53:04 2021.
