 Gaussian 16, Revision A.03,
 Gaussian 16:  EM64L-G16RevA.03 25-Dec-2016

 -------------
 #p 6-31g* mp2
 -------------

 ------------------------------------------------------
 Input file generated by CHIRIPA (05-May-2021 14:57:23)
 ------------------------------------------------------
 Symbolic Z-matrix:
 Charge =  0 Multiplicity = 1

                         Standard orientation:
 ---------------------------------------------------------------------
 Center     Atomic      Atomic             Coordinates (Angstroms)
 Number     Number       Type             X           Y           Z
 ---------------------------------------------------------------------
      1          6           0        3.631893    2.373893    0.225058
      2          6           0        4.527354    1.304146    0.326610
      3          6           0        4.101272   -0.004326    0.079819
      4          6           0        2.766714   -0.207736   -0.267842
      5          6           0        1.850518    0.837217   -0.377158
      6          6           0        2.298684    2.137431   -0.125883
      7          1           0        3.971461    3.387137    0.418514
      8          1           0        5.563319    1.484808    0.598972
      9          1           0        4.773308   -0.850897    0.151256
     10          1           0        0.823906    0.625759   -0.650602
     11          1           0        1.601035    2.966281   -0.205502
     12          7           0        2.303951   -1.588585   -0.531483
     13          8           0        1.123062   -1.741309   -0.836135
     14          8           0        3.130889   -2.492023   -0.428480
     15          6           0       -3.787843    0.751770   -1.984177
     16          6           0       -3.100414   -0.463719   -1.903246
     17          6           0       -2.572667   -0.901182   -0.684781
     18          6           0       -2.751637   -0.094442    0.437908
     19          6           0       -3.431672    1.121489    0.389382
     20          6           0       -3.950990    1.539107   -0.839622
     21          1           0       -4.194536    1.083894   -2.934803
     22          1           0       -2.972193   -1.077237   -2.790489
     23          1           0       -2.036187   -1.837840   -0.593796
     24          1           0       -3.543483    1.711345    1.291040
     25          1           0       -4.484406    2.483525   -0.899505
     26          7           0       -2.197397   -0.547060    1.733420
     27          8           0       -2.368582    0.182025    2.707980
     28          8           0       -1.602292   -1.622336    1.749753
 ---------------------------------------------------------------------

 SCF Done:  E(RHF) =  -868.338504608     A.U. after   16 cycles
 E2 =    -0.2600123090D+01 EUMP2 =    -0.87093862769789D+03

 The electronic state is 1-A.
 Alpha  occ. eigenvalues --  -20.60613 -20.60607 -20.60431 -20.60360 -15.85665
 Alpha  occ. eigenvalues --  -15.85451 -11.30993 -11.30902 -11.27574 -11.27563
 Alpha  occ. eigenvalues --  -11.27554 -11.27332 -11.27315 -11.27281 -11.26592
 Alpha  occ. eigenvalues --  -11.26580 -11.26574 -11.26433  -1.59665  -1.59484
 Alpha  occ. eigenvalues --   -1.39227  -1.39023  -1.19163  -1.19100  -1.08566
 Alpha  occ. eigenvalues --   -1.08486  -1.04572  -1.04482  -0.95414  -0.95288
 Alpha  occ. eigenvalues --   -0.85974  -0.85875  -0.82257  -0.82101  -0.77319
 Alpha  occ. eigenvalues --   -0.77107  -0.71921  -0.71653  -0.70975  -0.70812
 Alpha  occ. eigenvalues --   -0.70291  -0.70165  -0.64834  -0.64728  -0.64588
 Alpha  occ. eigenvalues --   -0.64462  -0.61931  -0.61780  -0.55086  -0.55001
 Alpha  occ. eigenvalues --   -0.52894  -0.52882  -0.52646  -0.52543  -0.48655
 Alpha  occ. eigenvalues --   -0.48631  -0.48450  -0.48395  -0.44681  -0.44354
 Alpha  occ. eigenvalues --   -0.37142  -0.37127  -0.36167  -0.36096
 Alpha virt. eigenvalues --    0.05245   0.05379   0.11471   0.11533   0.16722
 Alpha virt. eigenvalues --    0.16853   0.21505   0.21759   0.27352   0.27642
 Alpha virt. eigenvalues --    0.28260   0.28734   0.30882   0.31324   0.32359

 Mulliken charges:
               1
     1  C   -0.170340
     2  C   -0.218346
     3  C   -0.170152
     4  C    0.160646
     5  C   -0.170023
     6  C   -0.217770
     7  H    0.224928
     8  H    0.223141
     9  H    0.275667
    10  H    0.272562
    11  H    0.221954
    12  N    0.492110
    13  O   -0.466322
    14  O   -0.458970
    15  C   -0.172223
    16  C   -0.221777
    17  C   -0.168773
    18  C    0.150574
    19  C   -0.174494
    20  C   -0.220825
    21  H    0.224272
    22  H    0.226912
    23  H    0.293382
    24  H    0.273259
    25  H    0.220861
    26  N    0.486452
    27  O   -0.466220
    28  O   -0.450483
 Sum of Mulliken charges =  -0.00000

 Dipole moment (field-independent basis, Debye):
    X=             -0.1775    Y=              6.1653    Z=             -3.6472  Tot=              7.1655
 Quadrupole moment (field-independent basis, Debye-Ang):
   XX=            -81.2721   YY=           -103.7481   ZZ=           -109.7663
   XY=              6.0739   XZ=             14.4684   YZ=              1.3821

 Normal termination of Gaussian 16 at Thu May  6 12:56:08 2021.
