 Gaussian 16, Revision A.03,
 Gaussian 16:  EM64L-G16RevA.03 25-Dec-2016

 -------------
 #p 6-31g* mp2
 -------------

 ------------------------------------------------------
 Input file generated by CHIRIPA (05-May-2021 14:53:16)
 ------------------------------------------------------
 Symbolic Z-matrix:
 Charge =  0 Multiplicity = 1

                         Standard orientation:
 ---------------------------------------------------------------------
 Center     Atomic      Atomic             Coordinates (Angstroms)
 Number     Number       Type             X           Y           Z
 ---------------------------------------------------------------------
      1          6           0       -3.693097   -0.466597    0.336516
      2          6           0       -3.210307   -1.880854    0.012823
      3          6           0       -4.073478   -2.963202    0.661863
      4          1           0       -3.698856   -0.328435    1.426389
      5          1           0       -4.733933   -0.356422    0.001975
      6          1           0       -2.170243   -1.987889    0.346627
      7          1           0       -3.205515   -2.015601   -1.076413
      8          1           0       -5.110722   -2.884979    0.320384
      9          1           0       -4.069567   -2.857110    1.751510
     10          1           0       -3.710552   -3.966380    0.417368
     11          6           0       -2.840278    0.626392   -0.305201
     12          6           0       -3.323068    2.040649    0.018491
     13          6           0       -2.459897    3.122997   -0.630549
     14          1           0       -1.799442    0.516217    0.029340
     15          1           0       -2.834519    0.488231   -1.395074
     16          1           0       -3.327860    2.175396    1.107728
     17          1           0       -4.363132    2.147684   -0.315313
     18          1           0       -2.463808    3.016905   -1.720195
     19          1           0       -1.422653    3.044774   -0.289070
     20          1           0       -2.822823    4.126176   -0.386053
     21          6           0        2.765749    0.413689    2.456289
     22          6           0        3.813100   -0.210236    1.770508
     23          6           0        3.705686   -0.478914    0.402728
     24          6           0        2.531445   -0.108448   -0.250880
     25          6           0        1.470503    0.514500    0.404580
     26          6           0        1.599849    0.773431    1.772342
     27          1           0        2.857710    0.618618    3.518806
     28          1           0        4.719721   -0.490731    2.299097
     29          1           0        4.501121   -0.960775   -0.152711
     30          1           0        0.579044    0.782373   -0.149460
     31          1           0        0.784850    1.258101    2.302358
     32          7           0        2.406121   -0.387727   -1.698877
     33          8           0        1.361225   -0.051434   -2.251813
     34          8           0        3.355161   -0.937629   -2.253465
 ---------------------------------------------------------------------

 SCF Done:  E(RHF) =  -669.535406942     A.U. after   15 cycles
 E2 =    -0.2091771654D+01 EUMP2 =    -0.67162717859605D+03

 The electronic state is 1-A.
 Alpha  occ. eigenvalues --  -20.60748 -20.60742 -15.85800 -11.31182 -11.27760
 Alpha  occ. eigenvalues --  -11.27732 -11.27510 -11.26786 -11.26776 -11.21882
 Alpha  occ. eigenvalues --  -11.21649 -11.21610 -11.21522 -11.21343 -11.21091
 Alpha  occ. eigenvalues --   -1.59823  -1.39375  -1.19362  -1.08754  -1.08619
 Alpha  occ. eigenvalues --   -1.04771  -1.03687  -0.96143  -0.95585  -0.87156
 Alpha  occ. eigenvalues --   -0.86166  -0.82418  -0.79744  -0.78432  -0.77451
 Alpha  occ. eigenvalues --   -0.72020  -0.71146  -0.70479  -0.65298  -0.65010
 Alpha  occ. eigenvalues --   -0.64759  -0.62133  -0.61076  -0.59506  -0.57740
 Alpha  occ. eigenvalues --   -0.55455  -0.55266  -0.53097  -0.52895  -0.52809
 Alpha  occ. eigenvalues --   -0.52544  -0.50095  -0.48782  -0.48773  -0.48050
 Alpha  occ. eigenvalues --   -0.46785  -0.45948  -0.45875  -0.44776  -0.43950
 Alpha  occ. eigenvalues --   -0.37345  -0.36370
 Alpha virt. eigenvalues --    0.05050   0.11251   0.16539   0.19444   0.22990
 Alpha virt. eigenvalues --    0.23775   0.25383   0.26988   0.27781   0.27853
 Alpha virt. eigenvalues --    0.29651   0.30652   0.31430   0.31755   0.32051

 Mulliken charges:
               1
     1  C   -0.298119
     2  C   -0.299862
     3  C   -0.475928
     4  H    0.146224
     5  H    0.151288
     6  H    0.151234
     7  H    0.157436
     8  H    0.155544
     9  H    0.153057
    10  H    0.161865
    11  C   -0.300856
    12  C   -0.300668
    13  C   -0.475332
    14  H    0.140462
    15  H    0.159917
    16  H    0.147701
    17  H    0.154972
    18  H    0.162836
    19  H    0.147342
    20  H    0.161218
    21  C   -0.170734
    22  C   -0.218768
    23  C   -0.170283
    24  C    0.159722
    25  C   -0.181518
    26  C   -0.221256
    27  H    0.225603
    28  H    0.223537
    29  H    0.275655
    30  H    0.287858
    31  H    0.222976
    32  N    0.487138
    33  O   -0.459621
    34  O   -0.460641
 Sum of Mulliken charges =  -0.00000

 Dipole moment (field-independent basis, Debye):
    X=              0.3440    Y=              0.9495    Z=              4.9567  Tot=              5.0586
 Quadrupole moment (field-independent basis, Debye-Ang):
   XX=            -87.9215   YY=            -95.6161   ZZ=            -97.3368
   XY=             -0.2065   XZ=             14.1956   YZ=             -0.5033

 Normal termination of Gaussian 16 at Thu May  6 04:20:17 2021.
