 Gaussian 16, Revision A.03,
 Gaussian 16:  EM64L-G16RevA.03 25-Dec-2016

 -------------
 #p 6-31g* mp2
 -------------

 ------------------------------------------------------
 Input file generated by CHIRIPA (05-May-2021 14:51:08)
 ------------------------------------------------------
 Symbolic Z-matrix:
 Charge =  0 Multiplicity = 1

                         Standard orientation:
 ---------------------------------------------------------------------
 Center     Atomic      Atomic             Coordinates (Angstroms)
 Number     Number       Type             X           Y           Z
 ---------------------------------------------------------------------
      1          6           0        3.864775    1.036675   -0.024500
      2          6           0        2.488972    1.703276    0.003682
      3          6           0        2.572282    3.229382    0.046743
      4          1           0        4.434875    1.349350    0.861031
      5          1           0        4.422300    1.399205   -0.899218
      6          1           0        1.933686    1.338550    0.877323
      7          1           0        1.922010    1.388826   -0.881920
      8          1           0        3.103313    3.611129   -0.831252
      9          1           0        3.115055    3.560567    0.937986
     10          1           0        1.577514    3.685355    0.066376
     11          6           0        3.798009   -0.488910   -0.067656
     12          6           0        5.173812   -1.155511   -0.095837
     13          6           0        5.090502   -2.681617   -0.138898
     14          1           0        3.240484   -0.851439    0.807063
     15          1           0        3.227909   -0.801585   -0.953186
     16          1           0        5.740774   -0.841061    0.789765
     17          1           0        5.729098   -0.790784   -0.969478
     18          1           0        4.547729   -3.012802   -1.030142
     19          1           0        4.559471   -3.063364    0.739097
     20          1           0        6.085270   -3.137589   -0.158531
     21          6           0       -4.521538   -0.564115    0.197390
     22          6           0       -5.666242    0.240778   -0.418877
     23          6           0       -7.040637   -0.352332   -0.107347
     24          1           0       -4.568526   -1.597880   -0.171483
     25          1           0       -4.662191   -0.613998    1.286024
     26          1           0       -5.522726    0.290301   -1.505876
     27          1           0       -5.616409    1.272796   -0.048643
     28          1           0       -7.209312   -0.386679    0.973842
     29          1           0       -7.115097   -1.374757   -0.491670
     30          1           0       -7.844338    0.238681   -0.557489
     31          6           0       -3.141245    0.016350   -0.105234
     32          6           0       -1.996542   -0.788544    0.511032
     33          6           0       -0.622147   -0.195433    0.199502
     34          1           0       -3.000593    0.066232   -1.193869
     35          1           0       -3.094257    1.050115    0.263638
     36          1           0       -2.046375   -1.820561    0.140799
     37          1           0       -2.140058   -0.838066    1.598031
     38          1           0       -0.547687    0.826991    0.583826
     39          1           0       -0.453471   -0.161086   -0.881687
     40          1           0        0.181555   -0.786447    0.649644
 ---------------------------------------------------------------------

 SCF Done:  E(RHF) =  -470.732578317     A.U. after   11 cycles
 E2 =    -0.1583222183D+01 EUMP2 =    -0.47231580049994D+03

 The electronic state is 1-A.
 Alpha  occ. eigenvalues --  -11.21592 -11.21572 -11.21540 -11.21424 -11.21386
 Alpha  occ. eigenvalues --  -11.21348 -11.21327 -11.21276 -11.21064 -11.21054
 Alpha  occ. eigenvalues --  -11.20996 -11.20981  -1.08415  -1.08357  -1.03531
 Alpha  occ. eigenvalues --   -1.03435  -0.95964  -0.95914  -0.87024  -0.86895
 Alpha  occ. eigenvalues --   -0.79737  -0.79389  -0.78276  -0.78086  -0.65060
 Alpha  occ. eigenvalues --   -0.64981  -0.60967  -0.60804  -0.59374  -0.59249
 Alpha  occ. eigenvalues --   -0.57665  -0.57437  -0.55268  -0.55187  -0.52771
 Alpha  occ. eigenvalues --   -0.52533  -0.52425  -0.52287  -0.49974  -0.49807
 Alpha  occ. eigenvalues --   -0.48074  -0.47642  -0.46717  -0.46445  -0.45884
 Alpha  occ. eigenvalues --   -0.45727  -0.45572  -0.45559  -0.43758  -0.43654
 Alpha virt. eigenvalues --    0.21930   0.23054   0.23820   0.24539   0.25919
 Alpha virt. eigenvalues --    0.25970   0.26627   0.27353   0.27844   0.29428
 Alpha virt. eigenvalues --    0.30537   0.30925   0.31706   0.31855   0.32371

 Mulliken charges:
               1
     1  C   -0.298276
     2  C   -0.302276
     3  C   -0.476089
     4  H    0.148889
     5  H    0.148842
     6  H    0.156063
     7  H    0.154976
     8  H    0.154704
     9  H    0.154529
    10  H    0.159492
    11  C   -0.298934
    12  C   -0.299568
    13  C   -0.475631
    14  H    0.149457
    15  H    0.150040
    16  H    0.151831
    17  H    0.151923
    18  H    0.155108
    19  H    0.154935
    20  H    0.160165
    21  C   -0.298148
    22  C   -0.299596
    23  C   -0.475684
    24  H    0.149622
    25  H    0.149441
    26  H    0.151855
    27  H    0.151871
    28  H    0.155155
    29  H    0.155161
    30  H    0.160203
    31  C   -0.298303
    32  C   -0.301445
    33  C   -0.474951
    34  H    0.149258
    35  H    0.149426
    36  H    0.151497
    37  H    0.151303
    38  H    0.156921
    39  H    0.154256
    40  H    0.161981
 Sum of Mulliken charges =  -0.00000

 Dipole moment (field-independent basis, Debye):
    X=             -0.0029    Y=             -0.0033    Z=             -0.0026  Tot=              0.0052
 Quadrupole moment (field-independent basis, Debye-Ang):
   XX=            -86.2048   YY=            -85.9225   ZZ=            -83.0118
   XY=             -0.3067   XZ=              0.1103   YZ=              0.4851

 Normal termination of Gaussian 16 at Wed May  5 19:41:55 2021.
