 Gaussian 16, Revision A.03,
 Gaussian 16:  EM64L-G16RevA.03 25-Dec-2016

 -------------
 #p 6-31g* mp2
 -------------

 ------------------------------------------------------
 Input file generated by CHIRIPA (05-May-2021 14:53:14)
 ------------------------------------------------------
 Symbolic Z-matrix:
 Charge =  0 Multiplicity = 1

                         Standard orientation:
 ---------------------------------------------------------------------
 Center     Atomic      Atomic             Coordinates (Angstroms)
 Number     Number       Type             X           Y           Z
 ---------------------------------------------------------------------
      1          6           0       -3.842625   -0.347686   -0.137353
      2          6           0       -3.079178   -1.644022    0.135864
      3          6           0       -1.602278   -1.552647   -0.249115
      4          1           0       -3.754943   -0.095645   -1.203060
      5          1           0       -3.368084    0.473136    0.418035
      6          1           0       -3.555851   -2.462415   -0.418782
      7          1           0       -3.168848   -1.893109    1.201008
      8          1           0       -1.106064   -0.755418    0.313734
      9          1           0       -1.495266   -1.327958   -1.315259
     10          1           0       -1.075561   -2.490171   -0.045449
     11          6           0       -5.320405   -0.423402    0.242332
     12          6           0       -6.083851    0.872933   -0.030885
     13          6           0       -7.560752    0.781558    0.354094
     14          1           0       -5.794946   -1.244225   -0.313056
     15          1           0       -5.408087   -0.675444    1.308040
     16          1           0       -5.994181    1.122021   -1.096029
     17          1           0       -5.607178    1.691326    0.523762
     18          1           0       -7.667764    0.556869    1.420239
     19          1           0       -8.056966   -0.015671   -0.208755
     20          1           0       -8.087468    1.719082    0.150428
     21          6           0        5.654123   -1.071645    0.378930
     22          6           0        4.484284   -1.691316   -0.072743
     23          6           0        3.328773   -0.940554   -0.308745
     24          6           0        3.378723    0.433929   -0.081606
     25          6           0        4.528957    1.080382    0.368228
     26          6           0        5.672693    0.309791    0.597588
     27          1           0        6.547178   -1.662558    0.559682
     28          1           0        4.466954   -2.763983   -0.243414
     29          1           0        2.409619   -1.394641   -0.658572
     30          1           0        4.515584    2.151498    0.529315
     31          1           0        6.579788    0.793722    0.948346
     32          7           0        2.161669    1.239224   -0.327934
     33          8           0        2.231550    2.448601   -0.120185
     34          8           0        1.160903    0.645787   -0.724091
 ---------------------------------------------------------------------

 SCF Done:  E(RHF) =  -669.535783816     A.U. after   15 cycles
 E2 =    -0.2090876620D+01 EUMP2 =    -0.67162666043645D+03

 The electronic state is 1-A.
 Alpha  occ. eigenvalues --  -20.60843 -20.60838 -15.85878 -11.31221 -11.27794
 Alpha  occ. eigenvalues --  -11.27778 -11.27536 -11.26805 -11.26793 -11.21005
 Alpha  occ. eigenvalues --  -11.20785 -11.20732 -11.20587 -11.20531 -11.19964
 Alpha  occ. eigenvalues --   -1.59913  -1.39466  -1.19395  -1.08797  -1.07698
 Alpha  occ. eigenvalues --   -1.04794  -1.02788  -0.95640  -0.95217  -0.86236
 Alpha  occ. eigenvalues --   -0.86193  -0.82467  -0.78861  -0.77552  -0.77444
 Alpha  occ. eigenvalues --   -0.72101  -0.71231  -0.70503  -0.65050  -0.64798
 Alpha  occ. eigenvalues --   -0.64334  -0.62139  -0.60187  -0.58629  -0.56829
 Alpha  occ. eigenvalues --   -0.55300  -0.54496  -0.53127  -0.52886  -0.51958
 Alpha  occ. eigenvalues --   -0.51613  -0.49152  -0.48860  -0.48854  -0.47150
 Alpha  occ. eigenvalues --   -0.45913  -0.45072  -0.44992  -0.44736  -0.43064
 Alpha  occ. eigenvalues --   -0.37378  -0.36397
 Alpha virt. eigenvalues --    0.04988   0.11256   0.16461   0.21289   0.23570
 Alpha virt. eigenvalues --    0.24974   0.26937   0.27405   0.27728   0.28246
 Alpha virt. eigenvalues --    0.29123   0.30815   0.31857   0.32244   0.32598

 Mulliken charges:
               1
     1  C   -0.297800
     2  C   -0.300322
     3  C   -0.476143
     4  H    0.151034
     5  H    0.154175
     6  H    0.147018
     7  H    0.147728
     8  H    0.172171
     9  H    0.158471
    10  H    0.146247
    11  C   -0.297835
    12  C   -0.299340
    13  C   -0.475322
    14  H    0.147176
    15  H    0.147650
    16  H    0.152168
    17  H    0.153123
    18  H    0.154056
    19  H    0.153849
    20  H    0.159195
    21  C   -0.170658
    22  C   -0.218723
    23  C   -0.171445
    24  C    0.157734
    25  C   -0.170914
    26  C   -0.218653
    27  H    0.225706
    28  H    0.223710
    29  H    0.277716
    30  H    0.275586
    31  H    0.223510
    32  N    0.490247
    33  O   -0.460068
    34  O   -0.461048
 Sum of Mulliken charges =  -0.00000

 Dipole moment (field-independent basis, Debye):
    X=              4.4969    Y=             -2.6961    Z=              0.8359  Tot=              5.3094
 Quadrupole moment (field-independent basis, Debye-Ang):
   XX=            -67.1000   YY=            -94.3610   ZZ=            -94.5428
   XY=             -5.7896   XZ=              4.0386   YZ=              2.2755

 Normal termination of Gaussian 16 at Wed May  5 20:13:38 2021.
