 Gaussian 16, Revision A.03,
 Gaussian 16:  EM64L-G16RevA.03 25-Dec-2016

 -------------
 #p 6-31g* mp2
 -------------

 ------------------------------------------------------
 Input file generated by CHIRIPA (05-May-2021 14:53:12)
 ------------------------------------------------------
 Symbolic Z-matrix:
 Charge =  0 Multiplicity = 1

                         Standard orientation:
 ---------------------------------------------------------------------
 Center     Atomic      Atomic             Coordinates (Angstroms)
 Number     Number       Type             X           Y           Z
 ---------------------------------------------------------------------
      1          6           0       -3.852442    0.740167    0.205091
      2          6           0       -3.418822    1.683235   -0.917665
      3          6           0       -2.876444    3.014002   -0.395477
      4          1           0       -4.619233    1.235869    0.816038
      5          1           0       -2.996711    0.553387    0.868591
      6          1           0       -4.274752    1.867081   -1.579632
      7          1           0       -2.653112    1.185157   -1.526125
      8          1           0       -2.006406    2.849378    0.248366
      9          1           0       -3.637260    3.535176    0.194555
     10          1           0       -2.572359    3.672838   -1.214822
     11          6           0       -4.396935   -0.594376   -0.301120
     12          6           0       -4.830555   -1.537444    0.821637
     13          6           0       -5.372932   -2.868211    0.299448
     14          1           0       -5.252666   -0.407596   -0.964620
     15          1           0       -3.630144   -1.090078   -0.912067
     16          1           0       -5.596265   -1.039366    1.430096
     17          1           0       -3.974624   -1.721290    1.483603
     18          1           0       -4.612116   -3.389385   -0.290583
     19          1           0       -6.242970   -2.703587   -0.344394
     20          1           0       -5.677018   -3.527047    1.118794
     21          6           0        0.991472    1.094427    0.288823
     22          6           0        2.132006    1.639750    0.887426
     23          6           0        3.373306    1.010359    0.754801
     24          6           0        3.438092   -0.168260    0.013215
     25          6           0        2.319800   -0.736299   -0.595098
     26          6           0        1.088837   -0.089769   -0.449228
     27          1           0        0.031216    1.590011    0.396995
     28          1           0        2.059371    2.559300    1.461185
     29          1           0        4.272196    1.410717    1.207711
     30          1           0        2.423608   -1.654145   -1.160960
     31          1           0        0.204753   -0.515561   -0.915212
     32          7           0        4.746728   -0.843641   -0.134200
     33          8           0        4.777294   -1.880998   -0.792679
     34          8           0        5.717093   -0.322860    0.411524
 ---------------------------------------------------------------------

 SCF Done:  E(RHF) =  -669.535446134     A.U. after   15 cycles
 E2 =    -0.2091326226D+01 EUMP2 =    -0.67162677236003D+03

 The electronic state is 1-A.
 Alpha  occ. eigenvalues --  -20.60751 -20.60746 -15.85805 -11.31170 -11.27744
 Alpha  occ. eigenvalues --  -11.27739 -11.27463 -11.26760 -11.26745 -11.22747
 Alpha  occ. eigenvalues --  -11.22420 -11.22334 -11.22303 -11.22229 -11.21636
 Alpha  occ. eigenvalues --   -1.59826  -1.39380  -1.19344  -1.09384  -1.08737
 Alpha  occ. eigenvalues --   -1.04749  -1.04456  -0.96907  -0.95573  -0.87920
 Alpha  occ. eigenvalues --   -0.86145  -0.82409  -0.80523  -0.79159  -0.77454
 Alpha  occ. eigenvalues --   -0.72023  -0.71150  -0.70482  -0.66036  -0.64995
 Alpha  occ. eigenvalues --   -0.64749  -0.62101  -0.61866  -0.60278  -0.58497
 Alpha  occ. eigenvalues --   -0.56304  -0.55178  -0.53579  -0.53307  -0.53076
 Alpha  occ. eigenvalues --   -0.52841  -0.50858  -0.48830  -0.48778  -0.48776
 Alpha  occ. eigenvalues --   -0.47572  -0.46699  -0.46622  -0.44785  -0.44699
 Alpha  occ. eigenvalues --   -0.37320  -0.36355
 Alpha virt. eigenvalues --    0.05081   0.11293   0.16566   0.17891   0.22593
 Alpha virt. eigenvalues --    0.23702   0.24701   0.25400   0.26944   0.28271
 Alpha virt. eigenvalues --    0.28910   0.30440   0.30812   0.31293   0.32007

 Mulliken charges:
               1
     1  C   -0.299283
     2  C   -0.301723
     3  C   -0.478572
     4  H    0.153874
     5  H    0.144239
     6  H    0.158223
     7  H    0.147275
     8  H    0.145045
     9  H    0.161548
    10  H    0.165441
    11  C   -0.297945
    12  C   -0.300438
    13  C   -0.476120
    14  H    0.152729
    15  H    0.146214
    16  H    0.153792
    17  H    0.152153
    18  H    0.155278
    19  H    0.156511
    20  H    0.162832
    21  C   -0.177570
    22  C   -0.221471
    23  C   -0.170607
    24  C    0.158303
    25  C   -0.170602
    26  C   -0.222456
    27  H    0.237648
    28  H    0.223899
    29  H    0.275596
    30  H    0.275497
    31  H    0.223659
    32  N    0.487974
    33  O   -0.460511
    34  O   -0.460434
 Sum of Mulliken charges =  -0.00000

 Dipole moment (field-independent basis, Debye):
    X=             -4.8771    Y=              2.3989    Z=              0.5067  Tot=              5.4587
 Quadrupole moment (field-independent basis, Debye-Ang):
   XX=           -124.1087   YY=            -93.8808   ZZ=            -93.8665
   XY=              9.8534   XZ=              3.1202   YZ=              1.9136

 Normal termination of Gaussian 16 at Thu May  6 15:20:51 2021.
