 Gaussian 16, Revision A.03,
 Gaussian 16:  EM64L-G16RevA.03 25-Dec-2016

 -------------
 #p 6-31g* mp2
 -------------

 ------------------------------------------------------
 Input file generated by CHIRIPA (05-May-2021 14:51:11)
 ------------------------------------------------------
 Symbolic Z-matrix:
 Charge =  0 Multiplicity = 1

                         Standard orientation:
 ---------------------------------------------------------------------
 Center     Atomic      Atomic             Coordinates (Angstroms)
 Number     Number       Type             X           Y           Z
 ---------------------------------------------------------------------
      1          6           0        2.841836   -0.673739   -0.347824
      2          6           0        3.194947    0.813234   -0.300837
      3          6           0        4.340916    1.178805   -1.244717
      4          1           0        3.732348   -1.263834   -0.091463
      5          1           0        2.571549   -0.946927   -1.377246
      6          1           0        3.463152    1.083843    0.728460
      7          1           0        2.303441    1.399863   -0.557154
      8          1           0        4.079466    0.936768   -2.279928
      9          1           0        5.245766    0.618953   -0.987010
     10          1           0        4.576848    2.246389   -1.195118
     11          6           0        1.697984   -1.054709    0.590361
     12          6           0        1.344873   -2.541682    0.543375
     13          6           0        0.198904   -2.907253    1.487254
     14          1           0        1.968271   -0.781521    1.619783
     15          1           0        0.807472   -0.464614    0.334000
     16          1           0        2.236379   -3.128312    0.799691
     17          1           0        1.076669   -2.812291   -0.485923
     18          1           0       -0.705946   -2.347401    1.229547
     19          1           0        0.460354   -2.665217    2.522466
     20          1           0       -0.037028   -3.974837    1.437655
     21          6           0       -1.798283    1.458928   -0.206866
     22          6           0       -1.709623    2.346202    1.035258
     23          6           0       -0.762241    3.531694    0.848519
     24          1           0       -0.794266    1.091499   -0.459631
     25          1           0       -2.132773    2.066030   -1.059473
     26          1           0       -1.376728    1.737305    1.885576
     27          1           0       -2.713996    2.711406    1.285208
     28          1           0       -1.094246    4.163047    0.017996
     29          1           0        0.250620    3.183412    0.621776
     30          1           0       -0.713955    4.152657    1.748482
     31          6           0       -2.741537    0.269520   -0.035672
     32          6           0       -2.830198   -0.617753   -1.277795
     33          6           0       -3.777579   -1.803246   -1.091057
     34          1           0       -2.407047   -0.337582    0.816935
     35          1           0       -3.745554    0.636950    0.217094
     36          1           0       -1.825824   -0.982958   -1.527746
     37          1           0       -3.163091   -0.008857   -2.128114
     38          1           0       -4.790440   -1.454963   -0.864313
     39          1           0       -3.445574   -2.434599   -0.260534
     40          1           0       -3.825865   -2.424209   -1.991020
 ---------------------------------------------------------------------

 SCF Done:  E(RHF) =  -470.733172989     A.U. after   11 cycles
 E2 =    -0.1584850386D+01 EUMP2 =    -0.47231802337443D+03

 The electronic state is 1-A.
 Alpha  occ. eigenvalues --  -11.21672 -11.21671 -11.21656 -11.21605 -11.21466
 Alpha  occ. eigenvalues --  -11.21444 -11.21406 -11.21383 -11.21147 -11.21109
 Alpha  occ. eigenvalues --  -11.21098 -11.21062  -1.08532  -1.08441  -1.03601
 Alpha  occ. eigenvalues --   -1.03547  -0.96048  -0.95998  -0.87069  -0.87009
 Alpha  occ. eigenvalues --   -0.79660  -0.79618  -0.78386  -0.78226  -0.65463
 Alpha  occ. eigenvalues --   -0.64807  -0.61123  -0.60824  -0.59412  -0.59367
 Alpha  occ. eigenvalues --   -0.57691  -0.57580  -0.55434  -0.55203  -0.52734
 Alpha  occ. eigenvalues --   -0.52692  -0.52482  -0.52422  -0.50086  -0.49853
 Alpha  occ. eigenvalues --   -0.48046  -0.47871  -0.46775  -0.46671  -0.46265
 Alpha  occ. eigenvalues --   -0.45818  -0.45716  -0.45224  -0.43846  -0.43811
 Alpha virt. eigenvalues --    0.18576   0.21288   0.23579   0.25202   0.25404
 Alpha virt. eigenvalues --    0.25909   0.26935   0.27391   0.28800   0.29821
 Alpha virt. eigenvalues --    0.30960   0.31440   0.31535   0.31900   0.32543

 Mulliken charges:
               1
     1  C   -0.297689
     2  C   -0.303912
     3  C   -0.475665
     4  H    0.150184
     5  H    0.149506
     6  H    0.152337
     7  H    0.154606
     8  H    0.155450
     9  H    0.155430
    10  H    0.160687
    11  C   -0.307830
    12  C   -0.299016
    13  C   -0.481435
    14  H    0.149700
    15  H    0.157979
    16  H    0.152488
    17  H    0.151996
    18  H    0.159447
    19  H    0.155488
    20  H    0.160916
    21  C   -0.304669
    22  C   -0.299699
    23  C   -0.478629
    24  H    0.154281
    25  H    0.150108
    26  H    0.152898
    27  H    0.152080
    28  H    0.154941
    29  H    0.157990
    30  H    0.160406
    31  C   -0.302828
    32  C   -0.300285
    33  C   -0.476935
    34  H    0.152961
    35  H    0.150517
    36  H    0.151482
    37  H    0.152390
    38  H    0.155439
    39  H    0.156476
    40  H    0.160410
 Sum of Mulliken charges =  -0.00000

 Dipole moment (field-independent basis, Debye):
    X=              0.0097    Y=             -0.0028    Z=              0.0066  Tot=              0.0121
 Quadrupole moment (field-independent basis, Debye-Ang):
   XX=            -84.6690   YY=            -85.4122   ZZ=            -84.4831
   XY=             -1.4928   XZ=              1.2688   YZ=             -0.0856

 Normal termination of Gaussian 16 at Thu May  6 03:50:11 2021.
