 Gaussian 16, Revision A.03,
 Gaussian 16:  EM64L-G16RevA.03 25-Dec-2016

 -------------
 #p 6-31g* mp2
 -------------

 ------------------------------------------------------
 Input file generated by CHIRIPA (05-May-2021 14:51:14)
 ------------------------------------------------------
 Symbolic Z-matrix:
 Charge =  0 Multiplicity = 1

                         Standard orientation:
 ---------------------------------------------------------------------
 Center     Atomic      Atomic             Coordinates (Angstroms)
 Number     Number       Type             X           Y           Z
 ---------------------------------------------------------------------
      1          6           0       -3.076261    0.784057   -0.288925
      2          6           0       -2.939357    2.164907    0.353333
      3          6           0       -1.613095    2.845843    0.013995
      4          1           0       -2.241946    0.149417    0.039854
      5          1           0       -2.982521    0.883543   -1.379205
      6          1           0       -3.034709    2.063029    1.441976
      7          1           0       -3.774200    2.796274    0.023137
      8          1           0       -1.513052    2.976625   -1.068358
      9          1           0       -0.769360    2.239214    0.358543
     10          1           0       -1.536267    3.831566    0.483366
     11          6           0       -4.396896    0.090683    0.041051
     12          6           0       -4.533800   -1.290167   -0.601207
     13          6           0       -5.860061   -1.971103   -0.261870
     14          1           0       -4.490636   -0.008803    1.131331
     15          1           0       -5.231210    0.725323   -0.287729
     16          1           0       -3.698957   -1.921534   -0.271011
     17          1           0       -4.438447   -1.188289   -1.689851
     18          1           0       -6.703796   -1.364474   -0.606418
     19          1           0       -5.960104   -2.101885    0.820484
     20          1           0       -5.936890   -2.956826   -0.731240
     21          6           0        4.279998    0.041321   -0.118922
     22          6           0        5.668138   -0.597064   -0.178236
     23          6           0        6.744611    0.373072   -0.665919
     24          1           0        4.012941    0.416347   -1.116410
     25          1           0        4.314466    0.916181    0.545027
     26          1           0        5.630733   -1.471273   -0.840787
     27          1           0        5.931842   -0.970785    0.819467
     28          1           0        6.811119    1.240522   -0.001306
     29          1           0        6.508301    0.737189   -1.670994
     30          1           0        7.729029   -0.103976   -0.700646
     31          6           0        3.193158   -0.916061    0.366797
     32          6           0        1.805019   -0.277676    0.426110
     33          6           0        0.728546   -1.247812    0.913792
     34          1           0        3.158690   -1.790921   -0.297152
     35          1           0        3.460216   -1.291087    1.364284
     36          1           0        1.541315    0.096044   -0.571592
     37          1           0        1.842423    0.596533    1.088662
     38          1           0        0.964856   -1.611929    1.918868
     39          1           0        0.662036   -2.115262    0.249181
     40          1           0       -0.255873   -0.770765    0.948522
 ---------------------------------------------------------------------

 SCF Done:  E(RHF) =  -470.733321163     A.U. after   11 cycles
 E2 =    -0.1582973303D+01 EUMP2 =    -0.47231629446650D+03

 The electronic state is 1-A.
 Alpha  occ. eigenvalues --  -11.21638 -11.21606 -11.21590 -11.21581 -11.21421
 Alpha  occ. eigenvalues --  -11.21389 -11.21360 -11.21329 -11.21120 -11.21072
 Alpha  occ. eigenvalues --  -11.21053 -11.21045  -1.08452  -1.08415  -1.03561
 Alpha  occ. eigenvalues --   -1.03506  -0.96007  -0.95961  -0.87035  -0.86968
 Alpha  occ. eigenvalues --   -0.79618  -0.79573  -0.78261  -0.78233  -0.65081
 Alpha  occ. eigenvalues --   -0.65066  -0.60948  -0.60930  -0.59436  -0.59272
 Alpha  occ. eigenvalues --   -0.57618  -0.57573  -0.55301  -0.55244  -0.52754
 Alpha  occ. eigenvalues --   -0.52649  -0.52462  -0.52344  -0.49942  -0.49910
 Alpha  occ. eigenvalues --   -0.47934  -0.47887  -0.46650  -0.46599  -0.45802
 Alpha  occ. eigenvalues --   -0.45755  -0.45725  -0.45687  -0.43782  -0.43753
 Alpha virt. eigenvalues --    0.20461   0.23054   0.23598   0.24920   0.26078
 Alpha virt. eigenvalues --    0.26552   0.26850   0.27222   0.28137   0.29117
 Alpha virt. eigenvalues --    0.30552   0.31415   0.31647   0.31826   0.31963

 Mulliken charges:
               1
     1  C   -0.307594
     2  C   -0.299080
     3  C   -0.479038
     4  H    0.157842
     5  H    0.149575
     6  H    0.151596
     7  H    0.152020
     8  H    0.155055
     9  H    0.158709
    10  H    0.160127
    11  C   -0.297576
    12  C   -0.299906
    13  C   -0.475696
    14  H    0.149396
    15  H    0.149651
    16  H    0.152424
    17  H    0.151805
    18  H    0.155085
    19  H    0.155229
    20  H    0.160222
    21  C   -0.298341
    22  C   -0.299678
    23  C   -0.475719
    24  H    0.149911
    25  H    0.149678
    26  H    0.151937
    27  H    0.151915
    28  H    0.155239
    29  H    0.155253
    30  H    0.160257
    31  C   -0.298678
    32  C   -0.300121
    33  C   -0.483891
    34  H    0.149700
    35  H    0.149690
    36  H    0.153419
    37  H    0.152120
    38  H    0.155445
    39  H    0.155697
    40  H    0.166323
 Sum of Mulliken charges =  -0.00000

 Dipole moment (field-independent basis, Debye):
    X=              0.0222    Y=             -0.0065    Z=             -0.0061  Tot=              0.0239
 Quadrupole moment (field-independent basis, Debye-Ang):
   XX=            -86.2232   YY=            -85.2727   ZZ=            -83.2844
   XY=             -1.1890   XZ=              0.9626   YZ=              0.2220

 Normal termination of Gaussian 16 at Wed May  5 16:55:02 2021.
