 Gaussian 16, Revision A.03,
 Gaussian 16:  EM64L-G16RevA.03 25-Dec-2016

 -------------
 #p 6-31g* mp2
 -------------

 ------------------------------------------------------
 Input file generated by CHIRIPA (05-May-2021 14:55:21)
 ------------------------------------------------------
 Symbolic Z-matrix:
 Charge =  0 Multiplicity = 1

                         Standard orientation:
 ---------------------------------------------------------------------
 Center     Atomic      Atomic             Coordinates (Angstroms)
 Number     Number       Type             X           Y           Z
 ---------------------------------------------------------------------
      1          6           0       -5.609470   -0.236283    1.247745
      2          6           0       -4.453139    0.320703    1.803790
      3          6           0       -3.257801    0.345577    1.079155
      4          6           0       -3.254584   -0.197783   -0.204604
      5          6           0       -4.390087   -0.759760   -0.786072
      6          6           0       -5.574315   -0.773789   -0.043136
      7          1           0       -6.533722   -0.251394    1.817767
      8          1           0       -4.477499    0.738861    2.806085
      9          1           0       -2.347980    0.770567    1.485392
     10          1           0       -4.334804   -1.168970   -1.787525
     11          1           0       -6.470804   -1.207003   -0.477508
     12          7           0       -1.995013   -0.177190   -0.981430
     13          8           0       -2.018351   -0.662333   -2.110469
     14          8           0       -1.008274    0.323704   -0.446558
     15          6           0        5.073277   -0.007552    0.416460
     16          6           0        5.359641   -1.470490    0.076176
     17          6           0        6.646691   -1.986307    0.720558
     18          1           0        5.921178    0.610689    0.091207
     19          1           0        5.007314    0.101654    1.507844
     20          1           0        5.423671   -1.577158   -1.014301
     21          1           0        4.510877   -2.085295    0.402104
     22          1           0        6.589391   -1.908823    1.811115
     23          1           0        7.507372   -1.397799    0.386662
     24          1           0        6.832086   -3.034042    0.464159
     25          6           0        3.789894    0.522565   -0.220431
     26          6           0        3.503531    1.985502    0.119855
     27          6           0        2.216480    2.501320   -0.524528
     28          1           0        3.855857    0.413358   -1.311815
     29          1           0        2.941993   -0.095676    0.104823
     30          1           0        4.352295    2.600307   -0.206074
     31          1           0        3.439500    2.092170    1.210331
     32          1           0        1.355799    1.912811   -0.190632
     33          1           0        2.273780    2.423834   -1.615085
     34          1           0        2.031085    3.549054   -0.268129
 ---------------------------------------------------------------------

 SCF Done:  E(RHF) =  -669.536011317     A.U. after   15 cycles
 E2 =    -0.2090722666D+01 EUMP2 =    -0.67162673398348D+03

 The electronic state is 1-A.
 Alpha  occ. eigenvalues --  -20.60923 -20.60915 -15.85970 -11.31290 -11.27856
 Alpha  occ. eigenvalues --  -11.27851 -11.27593 -11.26864 -11.26854 -11.20898
 Alpha  occ. eigenvalues --  -11.20578 -11.20534 -11.20516 -11.20292 -11.19610
 Alpha  occ. eigenvalues --   -1.59986  -1.39543  -1.19459  -1.08862  -1.07511
 Alpha  occ. eigenvalues --   -1.04857  -1.02593  -0.95705  -0.95022  -0.86257
 Alpha  occ. eigenvalues --   -0.86034  -0.82541  -0.78678  -0.77593  -0.77283
 Alpha  occ. eigenvalues --   -0.72196  -0.71302  -0.70569  -0.65117  -0.64860
 Alpha  occ. eigenvalues --   -0.64149  -0.62205  -0.59992  -0.58438  -0.56628
 Alpha  occ. eigenvalues --   -0.55361  -0.54298  -0.53188  -0.52949  -0.51748
 Alpha  occ. eigenvalues --   -0.51422  -0.49055  -0.48944  -0.48826  -0.46962
 Alpha  occ. eigenvalues --   -0.45718  -0.44957  -0.44820  -0.44732  -0.42858
 Alpha  occ. eigenvalues --   -0.37438  -0.36459
 Alpha virt. eigenvalues --    0.04939   0.11196   0.16434   0.21302   0.23731
 Alpha virt. eigenvalues --    0.25254   0.27234   0.27512   0.28045   0.28461
 Alpha virt. eigenvalues --    0.29067   0.30850   0.32109   0.32501   0.32666

 Mulliken charges:
               1
     1  C   -0.170637
     2  C   -0.218511
     3  C   -0.170571
     4  C    0.157459
     5  C   -0.170546
     6  C   -0.218574
     7  H    0.225973
     8  H    0.223799
     9  H    0.275338
    10  H    0.275906
    11  H    0.223807
    12  N    0.495145
    13  O   -0.458792
    14  O   -0.466961
    15  C   -0.297673
    16  C   -0.299020
    17  C   -0.475152
    18  H    0.147135
    19  H    0.146490
    20  H    0.152291
    21  H    0.152389
    22  H    0.153440
    23  H    0.153982
    24  H    0.158516
    25  C   -0.298486
    26  C   -0.298842
    27  C   -0.484112
    28  H    0.150379
    29  H    0.156852
    30  H    0.146792
    31  H    0.146325
    32  H    0.180029
    33  H    0.155020
    34  H    0.150810
 Sum of Mulliken charges =  -0.00000

 Dipole moment (field-independent basis, Debye):
    X=             -4.7715    Y=             -0.1610    Z=              2.6761  Tot=              5.4731
 Quadrupole moment (field-independent basis, Debye-Ang):
   XX=            -67.0098   YY=            -95.2126   ZZ=            -92.7484
   XY=              2.7352   XZ=             -7.1964   YZ=              1.4941

 Normal termination of Gaussian 16 at Thu May  6 17:31:55 2021.
