 Gaussian 16, Revision A.03,
 Gaussian 16:  EM64L-G16RevA.03 25-Dec-2016

 -------------
 #p 6-31g* mp2
 -------------

 ------------------------------------------------------
 Input file generated by CHIRIPA (05-May-2021 14:53:16)
 ------------------------------------------------------
 Symbolic Z-matrix:
 Charge =  0 Multiplicity = 1

                         Standard orientation:
 ---------------------------------------------------------------------
 Center     Atomic      Atomic             Coordinates (Angstroms)
 Number     Number       Type             X           Y           Z
 ---------------------------------------------------------------------
      1          6           0        2.599898    0.909499   -0.353843
      2          6           0        1.742602    2.013703    0.265642
      3          6           0        2.326799    3.409415    0.045424
      4          1           0        3.611332    0.956644    0.072446
      5          1           0        2.705680    1.097925   -1.431201
      6          1           0        1.637319    1.822493    1.341267
      7          1           0        0.733037    1.963802   -0.162031
      8          1           0        2.416168    3.625267   -1.024166
      9          1           0        3.325588    3.483156    0.487674
     10          1           0        1.698098    4.183520    0.496373
     11          6           0        2.028910   -0.491520   -0.142070
     12          6           0        2.886206   -1.595725   -0.761555
     13          6           0        2.302008   -2.991436   -0.541337
     14          1           0        1.923128   -0.679946    0.935288
     15          1           0        1.017476   -0.538666   -0.568360
     16          1           0        3.895771   -1.545823   -0.333882
     17          1           0        2.991489   -1.404515   -1.837181
     18          1           0        1.303220   -3.065178   -0.983587
     19          1           0        2.212640   -3.207289    0.528253
     20          1           0        2.930710   -3.765541   -0.992286
     21          6           0       -2.626208    0.473604   -2.106514
     22          6           0       -2.646051    1.414019   -1.071262
     23          6           0       -2.195211    1.072205    0.207196
     24          6           0       -1.729039   -0.224844    0.416094
     25          6           0       -1.696698   -1.184154   -0.594830
     26          6           0       -2.152430   -0.820201   -1.865419
     27          1           0       -2.978332    0.747732   -3.096594
     28          1           0       -3.013450    2.419545   -1.255604
     29          1           0       -2.199480    1.780522    1.026761
     30          1           0       -1.324742   -2.178715   -0.380556
     31          1           0       -2.135858   -1.552607   -2.667510
     32          7           0       -1.249165   -0.598426    1.765375
     33          8           0       -0.843294   -1.747710    1.923652
     34          8           0       -1.288000    0.265118    2.639114
 ---------------------------------------------------------------------

 SCF Done:  E(RHF) =  -669.534527542     A.U. after   15 cycles
 E2 =    -0.2096335396D+01 EUMP2 =    -0.67163086293723D+03

 The electronic state is 1-A.
 Alpha  occ. eigenvalues --  -20.60856 -20.60847 -15.85872 -11.31226 -11.27842
 Alpha  occ. eigenvalues --  -11.27812 -11.27600 -11.26870 -11.26860 -11.21338
 Alpha  occ. eigenvalues --  -11.21290 -11.21094 -11.20929 -11.20910 -11.20817
 Alpha  occ. eigenvalues --   -1.59905  -1.39460  -1.19461  -1.08839  -1.08136
 Alpha  occ. eigenvalues --   -1.04872  -1.03275  -0.95733  -0.95671  -0.86754
 Alpha  occ. eigenvalues --   -0.86252  -0.82506  -0.79345  -0.78037  -0.77515
 Alpha  occ. eigenvalues --   -0.72109  -0.71190  -0.70560  -0.65105  -0.64887
 Alpha  occ. eigenvalues --   -0.64761  -0.62215  -0.60678  -0.59099  -0.57354
 Alpha  occ. eigenvalues --   -0.55359  -0.55048  -0.53288  -0.52945  -0.52426
 Alpha  occ. eigenvalues --   -0.52158  -0.49683  -0.48872  -0.48870  -0.47701
 Alpha  occ. eigenvalues --   -0.46393  -0.45528  -0.45362  -0.44731  -0.43511
 Alpha  occ. eigenvalues --   -0.37345  -0.36394
 Alpha virt. eigenvalues --    0.04916   0.11095   0.16433   0.20849   0.23268
 Alpha virt. eigenvalues --    0.24061   0.26265   0.27156   0.27360   0.27852
 Alpha virt. eigenvalues --    0.29221   0.30846   0.31343   0.31935   0.32173

 Mulliken charges:
               1
     1  C   -0.295680
     2  C   -0.308613
     3  C   -0.474867
     4  H    0.150033
     5  H    0.145314
     6  H    0.161420
     7  H    0.149811
     8  H    0.151987
     9  H    0.156499
    10  H    0.157994
    11  C   -0.312271
    12  C   -0.298860
    13  C   -0.474555
    14  H    0.162806
    15  H    0.150765
    16  H    0.152794
    17  H    0.147288
    18  H    0.143454
    19  H    0.167911
    20  H    0.157883
    21  C   -0.170708
    22  C   -0.219065
    23  C   -0.170837
    24  C    0.164242
    25  C   -0.177372
    26  C   -0.217961
    27  H    0.226164
    28  H    0.224216
    29  H    0.276523
    30  H    0.279311
    31  H    0.224036
    32  N    0.490284
    33  O   -0.459710
    34  O   -0.460237
 Sum of Mulliken charges =  -0.00000

 Dipole moment (field-independent basis, Debye):
    X=             -1.7895    Y=              1.2529    Z=             -4.5620  Tot=              5.0580
 Quadrupole moment (field-independent basis, Debye-Ang):
   XX=            -89.2047   YY=            -92.6069   ZZ=            -98.0402
   XY=             -3.5872   XZ=              8.2134   YZ=              3.2024

 Normal termination of Gaussian 16 at Wed May  5 18:43:23 2021.
