 Gaussian 16, Revision A.03,
 Gaussian 16:  EM64L-G16RevA.03 25-Dec-2016

 -------------
 #p 6-31g* mp2
 -------------

 ------------------------------------------------------
 Input file generated by CHIRIPA (05-May-2021 14:53:14)
 ------------------------------------------------------
 Symbolic Z-matrix:
 Charge =  0 Multiplicity = 1

                         Standard orientation:
 ---------------------------------------------------------------------
 Center     Atomic      Atomic             Coordinates (Angstroms)
 Number     Number       Type             X           Y           Z
 ---------------------------------------------------------------------
      1          6           0        3.987347   -0.613323    0.372381
      2          6           0        3.093330   -1.845359    0.228138
      3          6           0        3.767280   -3.125881    0.721948
      4          1           0        4.919554   -0.777280   -0.185341
      5          1           0        4.270855   -0.496136    1.427504
      6          1           0        2.810463   -1.959391   -0.826186
      7          1           0        2.163062   -1.678372    0.786110
      8          1           0        4.034602   -3.037190    1.779905
      9          1           0        4.685682   -3.319806    0.158448
     10          1           0        3.110573   -3.994198    0.609599
     11          6           0        3.327526    0.674630   -0.117051
     12          6           0        4.221543    1.906666    0.027192
     13          6           0        3.547594    3.187188   -0.466617
     14          1           0        3.044018    0.557443   -1.172174
     15          1           0        2.395320    0.838587    0.440671
     16          1           0        5.151811    1.739679   -0.530780
     17          1           0        4.504410    2.020698    1.081516
     18          1           0        2.629192    3.381113    0.096883
     19          1           0        3.280272    3.098497   -1.524575
     20          1           0        4.204300    4.055505   -0.354269
     21          6           0       -5.241726    0.416933    0.597688
     22          6           0       -4.939556   -0.690491   -0.201578
     23          6           0       -3.621980   -0.944538   -0.594015
     24          6           0       -2.626862   -0.066571   -0.167163
     25          6           0       -2.896177    1.045198    0.629537
     26          6           0       -4.220873    1.279721    1.009968
     27          1           0       -6.268015    0.606699    0.897879
     28          1           0       -5.730330   -1.362241   -0.523248
     29          1           0       -3.360038   -1.794443   -1.212452
     30          1           0       -2.086470    1.696948    0.934516
     31          1           0       -4.452607    2.140539    1.630724
     32          7           0       -1.228235   -0.325185   -0.576263
     33          8           0       -0.369622    0.463403   -0.186970
     34          8           0       -1.017089   -1.311578   -1.278462
 ---------------------------------------------------------------------

 SCF Done:  E(RHF) =  -669.535929317     A.U. after   15 cycles
 E2 =    -0.2091455080D+01 EUMP2 =    -0.67162738439671D+03

 The electronic state is 1-A.
 Alpha  occ. eigenvalues --  -20.60961 -20.60955 -15.85995 -11.31318 -11.27882
 Alpha  occ. eigenvalues --  -11.27877 -11.27617 -11.26887 -11.26877 -11.20392
 Alpha  occ. eigenvalues --  -11.20063 -11.20038 -11.19981 -11.19914 -11.19639
 Alpha  occ. eigenvalues --   -1.60019  -1.39576  -1.19485  -1.08889  -1.06993
 Alpha  occ. eigenvalues --   -1.04882  -1.02244  -0.95731  -0.94710  -0.86282
 Alpha  occ. eigenvalues --   -0.85738  -0.82567  -0.78273  -0.77619  -0.76730
 Alpha  occ. eigenvalues --   -0.72209  -0.71335  -0.70594  -0.65142  -0.64884
 Alpha  occ. eigenvalues --   -0.63639  -0.62230  -0.59663  -0.58077  -0.56300
 Alpha  occ. eigenvalues --   -0.55385  -0.54018  -0.53213  -0.52974  -0.51468
 Alpha  occ. eigenvalues --   -0.51132  -0.49004  -0.48965  -0.48666  -0.46595
 Alpha  occ. eigenvalues --   -0.45300  -0.45012  -0.44267  -0.44133  -0.42446
 Alpha  occ. eigenvalues --   -0.37464  -0.36483
 Alpha virt. eigenvalues --    0.04901   0.11172   0.16395   0.21298   0.24209
 Alpha virt. eigenvalues --    0.25463   0.27224   0.27902   0.28271   0.28915
 Alpha virt. eigenvalues --    0.29339   0.30921   0.32383   0.32592   0.33009

 Mulliken charges:
               1
     1  C   -0.298814
     2  C   -0.296992
     3  C   -0.475537
     4  H    0.143532
     5  H    0.142786
     6  H    0.158828
     7  H    0.157249
     8  H    0.150097
     9  H    0.151250
    10  H    0.157827
    11  C   -0.300591
    12  C   -0.299178
    13  C   -0.473312
    14  H    0.152726
    15  H    0.168872
    16  H    0.147096
    17  H    0.146462
    18  H    0.154740
    19  H    0.155292
    20  H    0.153910
    21  C   -0.170588
    22  C   -0.218575
    23  C   -0.170512
    24  C    0.157604
    25  C   -0.170779
    26  C   -0.218510
    27  H    0.226078
    28  H    0.223898
    29  H    0.275914
    30  H    0.275374
    31  H    0.223886
    32  N    0.492036
    33  O   -0.463178
    34  O   -0.458892
 Sum of Mulliken charges =  -0.00000

 Dipole moment (field-independent basis, Debye):
    X=             -5.3542    Y=              0.8896    Z=              1.3511  Tot=              5.5932
 Quadrupole moment (field-independent basis, Debye-Ang):
   XX=            -70.7584   YY=            -93.6860   ZZ=            -93.9593
   XY=             -0.4975   XZ=             -3.0286   YZ=              2.8759

 Normal termination of Gaussian 16 at Thu May  6 10:31:49 2021.
