 Gaussian 16, Revision A.03,
 Gaussian 16:  EM64L-G16RevA.03 25-Dec-2016

 -------------
 #p 6-31g* mp2
 -------------

 ------------------------------------------------------
 Input file generated by CHIRIPA (05-May-2021 14:53:17)
 ------------------------------------------------------
 Symbolic Z-matrix:
 Charge =  0 Multiplicity = 1

                         Standard orientation:
 ---------------------------------------------------------------------
 Center     Atomic      Atomic             Coordinates (Angstroms)
 Number     Number       Type             X           Y           Z
 ---------------------------------------------------------------------
      1          6           0       -3.192239    0.598005    0.475159
      2          6           0       -3.470183    2.073529    0.186089
      3          6           0       -3.039134    2.991493    1.330349
      4          1           0       -3.714038    0.306929    1.397084
      5          1           0       -2.118718    0.465309    0.668392
      6          1           0       -4.542646    2.203174   -0.007904
      7          1           0       -2.947818    2.361076   -0.735359
      8          1           0       -1.965675    2.891581    1.520884
      9          1           0       -3.569564    2.732782    2.252473
     10          1           0       -3.246978    4.041638    1.102629
     11          6           0       -3.617688   -0.332213   -0.659484
     12          6           0       -3.339744   -1.807737   -0.370414
     13          6           0       -3.770793   -2.725702   -1.514674
     14          1           0       -4.691209   -0.199518   -0.852717
     15          1           0       -3.095889   -0.041137   -1.581409
     16          1           0       -3.862109   -2.095285    0.551034
     17          1           0       -2.267282   -1.937383   -0.176421
     18          1           0       -3.240363   -2.466990   -2.436798
     19          1           0       -4.844252   -2.625789   -1.705209
     20          1           0       -3.562949   -3.775847   -1.286954
     21          6           0        1.763402   -1.341564    2.079440
     22          6           0        3.143368   -1.261569    1.865391
     23          6           0        3.651438   -0.578366    0.756497
     24          6           0        2.746820    0.015835   -0.122069
     25          6           0        1.366663   -0.046343    0.063918
     26          6           0        0.881010   -0.734765    1.179607
     27          1           0        1.377427   -1.874319    2.943495
     28          1           0        3.831000   -1.731858    2.562553
     29          1           0        4.715118   -0.500974    0.566721
     30          1           0        0.706018    0.432569   -0.648551
     31          1           0       -0.191176   -0.795270    1.343317
     32          7           0        3.272826    0.741874   -1.299603
     33          8           0        2.454899    1.256836   -2.058844
     34          8           0        4.493076    0.782234   -1.441016
 ---------------------------------------------------------------------

 SCF Done:  E(RHF) =  -669.535501852     A.U. after   15 cycles
 E2 =    -0.2091866963D+01 EUMP2 =    -0.67162736881486D+03

 The electronic state is 1-A.
 Alpha  occ. eigenvalues --  -20.60770 -20.60765 -15.85823 -11.31186 -11.27757
 Alpha  occ. eigenvalues --  -11.27753 -11.27486 -11.26766 -11.26724 -11.22324
 Alpha  occ. eigenvalues --  -11.22237 -11.22115 -11.22019 -11.21563 -11.21505
 Alpha  occ. eigenvalues --   -1.59845  -1.39399  -1.19356  -1.09113  -1.08748
 Alpha  occ. eigenvalues --   -1.04760  -1.04106  -0.96550  -0.95586  -0.87560
 Alpha  occ. eigenvalues --   -0.86157  -0.82426  -0.80180  -0.78967  -0.77463
 Alpha  occ. eigenvalues --   -0.72041  -0.71168  -0.70464  -0.65803  -0.65003
 Alpha  occ. eigenvalues --   -0.64737  -0.62106  -0.61499  -0.59917  -0.58165
 Alpha  occ. eigenvalues --   -0.55839  -0.55253  -0.53215  -0.53092  -0.52995
 Alpha  occ. eigenvalues --   -0.52825  -0.50489  -0.48802  -0.48797  -0.48490
 Alpha  occ. eigenvalues --   -0.47222  -0.46450  -0.46390  -0.44805  -0.44394
 Alpha  occ. eigenvalues --   -0.37332  -0.36360
 Alpha virt. eigenvalues --    0.05054   0.11267   0.16490   0.18894   0.22800
 Alpha virt. eigenvalues --    0.23730   0.24534   0.26224   0.27365   0.28278
 Alpha virt. eigenvalues --    0.29861   0.30811   0.31222   0.31446   0.32137

 Mulliken charges:
               1
     1  C   -0.303430
     2  C   -0.300506
     3  C   -0.476356
     4  H    0.150879
     5  H    0.140950
     6  H    0.154939
     7  H    0.156113
     8  H    0.154718
     9  H    0.154685
    10  H    0.164258
    11  C   -0.299481
    12  C   -0.302087
    13  C   -0.476030
    14  H    0.153670
    15  H    0.153155
    16  H    0.151986
    17  H    0.146005
    18  H    0.158649
    19  H    0.157421
    20  H    0.161303
    21  C   -0.171160
    22  C   -0.218458
    23  C   -0.170899
    24  C    0.158731
    25  C   -0.173512
    26  C   -0.226323
    27  H    0.226305
    28  H    0.223433
    29  H    0.275633
    30  H    0.274760
    31  H    0.233572
    32  N    0.488193
    33  O   -0.460696
    34  O   -0.460420
 Sum of Mulliken charges =  -0.00000

 Dipole moment (field-independent basis, Debye):
    X=             -2.0240    Y=             -2.5152    Z=              4.0856  Tot=              5.2072
 Quadrupole moment (field-independent basis, Debye-Ang):
   XX=            -99.0145   YY=            -95.6390   ZZ=            -96.2678
   XY=             -8.5778   XZ=             12.9821   YZ=             -0.6138

 Normal termination of Gaussian 16 at Thu May  6 20:32:33 2021.
