 Gaussian 16, Revision A.03,
 Gaussian 16:  EM64L-G16RevA.03 25-Dec-2016

 -------------
 #p 6-31g* mp2
 -------------

 ------------------------------------------------------
 Input file generated by CHIRIPA (05-May-2021 14:51:08)
 ------------------------------------------------------
 Symbolic Z-matrix:
 Charge =  0 Multiplicity = 1

                         Standard orientation:
 ---------------------------------------------------------------------
 Center     Atomic      Atomic             Coordinates (Angstroms)
 Number     Number       Type             X           Y           Z
 ---------------------------------------------------------------------
      1          6           0        3.179609    0.487959   -0.266407
      2          6           0        3.057057    1.617821    0.756519
      3          6           0        3.984019    2.794811    0.451184
      4          1           0        4.220865    0.138762   -0.294569
      5          1           0        2.955139    0.882693   -1.267004
      6          1           0        3.280341    1.220762    1.755070
      7          1           0        2.015932    1.964239    0.782388
      8          1           0        3.758004    3.217963   -0.532920
      9          1           0        5.029598    2.470261    0.445289
     10          1           0        3.880140    3.591073    1.194847
     11          6           0        2.259132   -0.695830    0.025301
     12          6           0        2.381684   -1.825692   -0.997625
     13          6           0        1.454722   -3.002682   -0.692290
     14          1           0        2.483602   -1.090564    1.025898
     15          1           0        1.217876   -0.346633    0.053463
     16          1           0        3.422809   -2.172110   -1.023494
     17          1           0        2.158400   -1.428633   -1.996176
     18          1           0        0.409144   -2.678132   -0.686395
     19          1           0        1.680737   -3.425834    0.291814
     20          1           0        1.558601   -3.798944   -1.435953
     21          6           0       -2.438366   -0.409958    0.610840
     22          6           0       -2.485986   -1.843282    0.080464
     23          6           0       -1.920337   -2.859847    1.072650
     24          1           0       -1.398761   -0.149451    0.852301
     25          1           0       -3.001006   -0.356203    1.553147
     26          1           0       -1.924585   -1.894014   -0.861274
     27          1           0       -3.525573   -2.100341   -0.159940
     28          1           0       -2.485276   -2.838557    2.010196
     29          1           0       -0.875192   -2.631059    1.304878
     30          1           0       -1.964112   -3.877885    0.673223
     31          6           0       -3.000375    0.617829   -0.369735
     32          6           0       -2.952756    2.051153    0.160641
     33          6           0       -3.518405    3.067718   -0.831545
     34          1           0       -2.437734    0.564073   -1.312041
     35          1           0       -4.039980    0.357322   -0.611195
     36          1           0       -1.913168    2.308212    0.401047
     37          1           0       -3.514156    2.101886    1.102380
     38          1           0       -4.563549    2.838930   -1.063773
     39          1           0       -2.953465    3.046428   -1.769090
     40          1           0       -3.474629    4.085756   -0.432119
 ---------------------------------------------------------------------

 SCF Done:  E(RHF) =  -470.732260863     A.U. after   11 cycles
 E2 =    -0.1584440351D+01 EUMP2 =    -0.47231670121427D+03

 The electronic state is 1-A.
 Alpha  occ. eigenvalues --  -11.21651 -11.21639 -11.21626 -11.21621 -11.21469
 Alpha  occ. eigenvalues --  -11.21436 -11.21407 -11.21376 -11.21105 -11.21101
 Alpha  occ. eigenvalues --  -11.21007 -11.20962  -1.08503  -1.08440  -1.03620
 Alpha  occ. eigenvalues --   -1.03494  -0.96090  -0.95913  -0.87102  -0.86929
 Alpha  occ. eigenvalues --   -0.79670  -0.79572  -0.78343  -0.78234  -0.65307
 Alpha  occ. eigenvalues --   -0.64938  -0.61255  -0.60731  -0.59385  -0.59337
 Alpha  occ. eigenvalues --   -0.57659  -0.57587  -0.55562  -0.55036  -0.52721
 Alpha  occ. eigenvalues --   -0.52662  -0.52489  -0.52297  -0.50032  -0.49825
 Alpha  occ. eigenvalues --   -0.48075  -0.47762  -0.46682  -0.46627  -0.46100
 Alpha  occ. eigenvalues --   -0.45776  -0.45748  -0.45439  -0.43829  -0.43790
 Alpha virt. eigenvalues --    0.19755   0.22995   0.23619   0.24942   0.25283
 Alpha virt. eigenvalues --    0.26510   0.26778   0.27497   0.29024   0.30117
 Alpha virt. eigenvalues --    0.30476   0.30795   0.31467   0.31875   0.32057

 Mulliken charges:
               1
     1  C   -0.297990
     2  C   -0.299619
     3  C   -0.475753
     4  H    0.150170
     5  H    0.149524
     6  H    0.152219
     7  H    0.151240
     8  H    0.155236
     9  H    0.155354
    10  H    0.160480
    11  C   -0.303686
    12  C   -0.299118
    13  C   -0.484279
    14  H    0.149705
    15  H    0.152843
    16  H    0.152049
    17  H    0.151385
    18  H    0.166765
    19  H    0.155118
    20  H    0.159954
    21  C   -0.302838
    22  C   -0.303954
    23  C   -0.479938
    24  H    0.153297
    25  H    0.150268
    26  H    0.152578
    27  H    0.152942
    28  H    0.155182
    29  H    0.160236
    30  H    0.160722
    31  C   -0.298191
    32  C   -0.299545
    33  C   -0.475712
    34  H    0.148993
    35  H    0.149992
    36  H    0.151285
    37  H    0.152271
    38  H    0.155356
    39  H    0.155044
    40  H    0.160414
 Sum of Mulliken charges =  -0.00000

 Dipole moment (field-independent basis, Debye):
    X=              0.0039    Y=             -0.0106    Z=              0.0117  Tot=              0.0162
 Quadrupole moment (field-independent basis, Debye-Ang):
   XX=            -83.8455   YY=            -86.1349   ZZ=            -84.6998
   XY=             -0.4497   XZ=             -0.1128   YZ=              0.2935

 Normal termination of Gaussian 16 at Thu May  6 16:32:15 2021.
