 Gaussian 16, Revision A.03,
 Gaussian 16:  EM64L-G16RevA.03 25-Dec-2016

 -------------
 #p 6-31g* mp2
 -------------

 ------------------------------------------------------
 Input file generated by CHIRIPA (05-May-2021 14:51:09)
 ------------------------------------------------------
 Symbolic Z-matrix:
 Charge =  0 Multiplicity = 1

                         Standard orientation:
 ---------------------------------------------------------------------
 Center     Atomic      Atomic             Coordinates (Angstroms)
 Number     Number       Type             X           Y           Z
 ---------------------------------------------------------------------
      1          6           0        4.116721    0.712921    0.254427
      2          6           0        2.771193    1.073866   -0.375855
      3          6           0        2.229796    2.416925    0.114935
      4          1           0        4.007731    0.688648    1.347348
      5          1           0        4.843288    1.506183    0.030305
      6          1           0        2.047749    0.279488   -0.151781
      7          1           0        2.883353    1.097095   -1.467412
      8          1           0        2.929880    3.224461   -0.122487
      9          1           0        2.089527    2.402209    1.200619
     10          1           0        1.267260    2.655241   -0.348303
     11          6           0        4.670904   -0.627040   -0.226318
     12          6           0        6.016433   -0.987985    0.403964
     13          6           0        6.557830   -2.331044   -0.086827
     14          1           0        3.944337   -1.420302   -0.002196
     15          1           0        4.779895   -0.602767   -1.319239
     16          1           0        5.904272   -1.011214    1.495521
     17          1           0        6.739877   -0.193607    0.179890
     18          1           0        6.698098   -2.316328   -1.172510
     19          1           0        5.857746   -3.138580    0.150596
     20          1           0        7.520366   -2.569360    0.376411
     21          6           0       -5.120658   -0.089356    0.216105
     22          6           0       -5.816512   -1.376221   -0.228587
     23          6           0       -7.269985   -1.454428    0.239485
     24          1           0       -5.158786   -0.019233    1.311813
     25          1           0       -5.678769    0.773957   -0.171962
     26          1           0       -5.256474   -2.236869    0.159044
     27          1           0       -5.776555   -1.443383   -1.323351
     28          1           0       -7.848661   -0.614694   -0.158738
     29          1           0       -7.325626   -1.412689    1.332080
     30          1           0       -7.748286   -2.382297   -0.089373
     31          6           0       -3.666967    0.003475   -0.244215
     32          6           0       -2.971114    1.290340    0.200478
     33          6           0       -1.517640    1.368547   -0.267593
     34          1           0       -3.108856   -0.859838    0.143853
     35          1           0       -3.628840   -0.066647   -1.339921
     36          1           0       -3.011070    1.357502    1.295242
     37          1           0       -3.531151    2.150989   -0.187153
     38          1           0       -1.462000    1.326808   -1.360188
     39          1           0       -0.938964    0.528813    0.130629
     40          1           0       -1.039340    2.296416    0.061264
 ---------------------------------------------------------------------

 SCF Done:  E(RHF) =  -470.732945493     A.U. after   11 cycles
 E2 =    -0.1582541496D+01 EUMP2 =    -0.47231548698904D+03

 The electronic state is 1-A.
 Alpha  occ. eigenvalues --  -11.21606 -11.21602 -11.21575 -11.21520 -11.21410
 Alpha  occ. eigenvalues --  -11.21360 -11.21351 -11.21298 -11.21075 -11.21063
 Alpha  occ. eigenvalues --  -11.21051 -11.20929  -1.08437  -1.08378  -1.03550
 Alpha  occ. eigenvalues --   -1.03457  -0.96033  -0.95878  -0.87072  -0.86878
 Alpha  occ. eigenvalues --   -0.79613  -0.79525  -0.78250  -0.78191  -0.65071
 Alpha  occ. eigenvalues --   -0.65006  -0.60965  -0.60840  -0.59616  -0.59099
 Alpha  occ. eigenvalues --   -0.57636  -0.57487  -0.55310  -0.55172  -0.53025
 Alpha  occ. eigenvalues --   -0.52460  -0.52395  -0.52139  -0.49929  -0.49860
 Alpha  occ. eigenvalues --   -0.47960  -0.47809  -0.46648  -0.46551  -0.45799
 Alpha  occ. eigenvalues --   -0.45736  -0.45714  -0.45642  -0.43954  -0.43525
 Alpha virt. eigenvalues --    0.22021   0.22995   0.23517   0.24863   0.26187
 Alpha virt. eigenvalues --    0.26727   0.27042   0.27270   0.27724   0.29019
 Alpha virt. eigenvalues --    0.29766   0.30892   0.31541   0.31667   0.32297

 Mulliken charges:
               1
     1  C   -0.298335
     2  C   -0.300242
     3  C   -0.480087
     4  H    0.149342
     5  H    0.149404
     6  H    0.153070
     7  H    0.151587
     8  H    0.153885
     9  H    0.153974
    10  H    0.167434
    11  C   -0.298169
    12  C   -0.299588
    13  C   -0.475664
    14  H    0.149258
    15  H    0.149596
    16  H    0.151823
    17  H    0.151896
    18  H    0.155152
    19  H    0.155081
    20  H    0.160146
    21  C   -0.298264
    22  C   -0.299609
    23  C   -0.475700
    24  H    0.149627
    25  H    0.149557
    26  H    0.151882
    27  H    0.151959
    28  H    0.155202
    29  H    0.155170
    30  H    0.160263
    31  C   -0.298574
    32  C   -0.300121
    33  C   -0.478505
    34  H    0.149342
    35  H    0.149672
    36  H    0.151976
    37  H    0.151922
    38  H    0.154956
    39  H    0.156425
    40  H    0.163257
 Sum of Mulliken charges =  -0.00000

 Dipole moment (field-independent basis, Debye):
    X=             -0.0320    Y=              0.0084    Z=             -0.0079  Tot=              0.0340
 Quadrupole moment (field-independent basis, Debye-Ang):
   XX=            -86.0667   YY=            -85.3161   ZZ=            -83.5791
   XY=              0.3268   XZ=              0.2762   YZ=             -0.9948

 Normal termination of Gaussian 16 at Wed May  5 18:08:16 2021.
