 Gaussian 16, Revision A.03,
 Gaussian 16:  EM64L-G16RevA.03 25-Dec-2016

 -------------
 #p 6-31g* mp2
 -------------

 ------------------------------------------------------
 Input file generated by CHIRIPA (05-May-2021 14:55:25)
 ------------------------------------------------------
 Symbolic Z-matrix:
 Charge =  0 Multiplicity = 1

                         Standard orientation:
 ---------------------------------------------------------------------
 Center     Atomic      Atomic             Coordinates (Angstroms)
 Number     Number       Type             X           Y           Z
 ---------------------------------------------------------------------
      1          6           0        1.587302    1.199532    0.688191
      2          6           0        1.816461    0.797751   -0.631877
      3          6           0        2.980422    0.101088   -0.970112
      4          6           0        3.898050   -0.178298    0.041418
      5          6           0        3.698301    0.208574    1.365699
      6          6           0        2.527296    0.904182    1.681015
      7          1           0        0.680373    1.740307    0.942038
      8          1           0        1.088199    1.025748   -1.404985
      9          1           0        3.183038   -0.221810   -1.984066
     10          1           0        4.442700   -0.033204    2.114586
     11          1           0        2.351970    1.214968    2.707035
     12          7           0        5.134012   -0.915266   -0.304525
     13          8           0        5.926883   -1.149164    0.605027
     14          8           0        5.286486   -1.245049   -1.478677
     15          6           0       -3.992975    0.212881   -0.275681
     16          6           0       -3.670208    1.703241   -0.388080
     17          6           0       -2.194356    1.967513   -0.687772
     18          1           0       -3.371699   -0.231812    0.513755
     19          1           0       -3.712877   -0.287528   -1.212981
     20          1           0       -3.952112    2.200930    0.548645
     21          1           0       -4.292461    2.144479   -1.177211
     22          1           0       -1.902827    1.497067   -1.632384
     23          1           0       -1.560544    1.553838    0.103276
     24          1           0       -1.985811    3.039224   -0.763952
     25          6           0       -5.464557   -0.067379    0.023692
     26          6           0       -5.787324   -1.557739    0.136091
     27          6           0       -7.263176   -1.822009    0.435782
     28          1           0       -5.744656    0.433031    0.960991
     29          1           0       -6.085832    0.377316   -0.765744
     30          1           0       -5.165071   -1.998976    0.925221
     31          1           0       -5.505421   -2.055427   -0.800633
     32          1           0       -7.896988   -1.408335   -0.355266
     33          1           0       -7.554704   -1.351564    1.380396
     34          1           0       -7.471722   -2.893721    0.511963
 ---------------------------------------------------------------------

 SCF Done:  E(RHF) =  -669.535505542     A.U. after   15 cycles
 E2 =    -0.2091113634D+01 EUMP2 =    -0.67162661917576D+03

 The electronic state is 1-A.
 Alpha  occ. eigenvalues --  -20.60707 -20.60701 -15.85759 -11.31110 -11.27677
 Alpha  occ. eigenvalues --  -11.27665 -11.27373 -11.26688 -11.26650 -11.22567
 Alpha  occ. eigenvalues --  -11.22414 -11.22149 -11.22085 -11.21966 -11.21467
 Alpha  occ. eigenvalues --   -1.59782  -1.39336  -1.19276  -1.09157  -1.08670
 Alpha  occ. eigenvalues --   -1.04676  -1.04300  -0.96781  -0.95510  -0.87810
 Alpha  occ. eigenvalues --   -0.86068  -0.82346  -0.80383  -0.78919  -0.77394
 Alpha  occ. eigenvalues --   -0.71977  -0.71105  -0.70402  -0.65784  -0.64925
 Alpha  occ. eigenvalues --   -0.64679  -0.62026  -0.61705  -0.60160  -0.58355
 Alpha  occ. eigenvalues --   -0.56168  -0.55123  -0.53476  -0.53215  -0.52993
 Alpha  occ. eigenvalues --   -0.52745  -0.50713  -0.48739  -0.48734  -0.48676
 Alpha  occ. eigenvalues --   -0.47387  -0.46474  -0.46364  -0.44745  -0.44528
 Alpha  occ. eigenvalues --   -0.37248  -0.36282
 Alpha virt. eigenvalues --    0.05125   0.11359   0.16589   0.20034   0.22329
 Alpha virt. eigenvalues --    0.23801   0.25369   0.25631   0.26984   0.27286
 Alpha virt. eigenvalues --    0.29030   0.29598   0.31025   0.31569   0.32190

 Mulliken charges:
               1
     1  C   -0.175077
     2  C   -0.221062
     3  C   -0.171382
     4  C    0.158519
     5  C   -0.171105
     6  C   -0.218852
     7  H    0.230567
     8  H    0.226872
     9  H    0.275298
    10  H    0.275190
    11  H    0.223047
    12  N    0.488059
    13  O   -0.460688
    14  O   -0.460647
    15  C   -0.299152
    16  C   -0.299464
    17  C   -0.483108
    18  H    0.149642
    19  H    0.150776
    20  H    0.153844
    21  H    0.156056
    22  H    0.155797
    23  H    0.149203
    24  H    0.162964
    25  C   -0.298926
    26  C   -0.300204
    27  C   -0.476113
    28  H    0.150135
    29  H    0.150992
    30  H    0.152494
    31  H    0.152950
    32  H    0.155873
    33  H    0.155543
    34  H    0.161957
 Sum of Mulliken charges =  -0.00000

 Dipole moment (field-independent basis, Debye):
    X=             -4.6173    Y=              2.5892    Z=              1.1926  Tot=              5.4264
 Quadrupole moment (field-independent basis, Debye-Ang):
   XX=           -129.1818   YY=            -96.5730   ZZ=            -89.1513
   XY=             10.6705   XZ=              6.7018   YZ=              0.2251

 Normal termination of Gaussian 16 at Thu May  6 16:05:18 2021.
