 Gaussian 16, Revision A.03,
 Gaussian 16:  EM64L-G16RevA.03 25-Dec-2016

 -------------
 #p 6-31g* mp2
 -------------

 ------------------------------------------------------
 Input file generated by CHIRIPA (05-May-2021 14:51:10)
 ------------------------------------------------------
 Symbolic Z-matrix:
 Charge =  0 Multiplicity = 1

                         Standard orientation:
 ---------------------------------------------------------------------
 Center     Atomic      Atomic             Coordinates (Angstroms)
 Number     Number       Type             X           Y           Z
 ---------------------------------------------------------------------
      1          6           0        3.551146   -0.285424   -0.081909
      2          6           0        4.951651   -0.837241    0.186548
      3          6           0        5.032049   -2.354490    0.015413
      4          1           0        2.836424   -0.770778    0.596729
      5          1           0        3.247049   -0.556876   -1.102317
      6          1           0        5.253576   -0.563641    1.205665
      7          1           0        5.663152   -0.350377   -0.492677
      8          1           0        4.756487   -2.642290   -1.004311
      9          1           0        4.344584   -2.856765    0.703680
     10          1           0        6.041934   -2.727731    0.212091
     11          6           0        3.454808    1.230009    0.085154
     12          6           0        2.054303    1.781827   -0.183303
     13          6           0        1.973906    3.299075   -0.012168
     14          1           0        3.758906    1.501462    1.105562
     15          1           0        4.169530    1.715364   -0.593484
     16          1           0        1.342802    1.294963    0.495922
     17          1           0        1.752378    1.508227   -1.202420
     18          1           0        2.661371    3.801351   -0.700435
     19          1           0        2.249467    3.586876    1.007556
     20          1           0        0.964020    3.672317   -0.208846
     21          6           0       -4.061915    0.041425    0.082722
     22          6           0       -5.461926   -0.557377   -0.056539
     23          6           0       -6.569464    0.482732    0.114712
     24          1           0       -3.970210    0.517892    1.068376
     25          1           0       -3.935896    0.838731   -0.662810
     26          1           0       -5.584774   -1.354251    0.688119
     27          1           0       -5.550244   -1.032640   -1.041902
     28          1           0       -6.475079    1.273273   -0.636778
     29          1           0       -6.509805    0.949834    1.103073
     30          1           0       -7.561937    0.033103    0.011317
     31          6           0       -2.944039   -0.986011   -0.085967
     32          6           0       -1.544030   -0.387210    0.053294
     33          6           0       -0.436490   -1.427317   -0.117958
     34          1           0       -3.070058   -1.783317    0.659566
     35          1           0       -3.035744   -1.462477   -1.071622
     36          1           0       -1.455709    0.088053    1.038657
     37          1           0       -1.421180    0.409664   -0.691365
     38          1           0       -0.496149   -1.894420   -1.106318
     39          1           0       -0.530875   -2.217858    0.633533
     40          1           0        0.555983   -0.977689   -0.014562
 ---------------------------------------------------------------------

 SCF Done:  E(RHF) =  -470.732447725     A.U. after   11 cycles
 E2 =    -0.1583882552D+01 EUMP2 =    -0.47231633027721D+03

 The electronic state is 1-A.
 Alpha  occ. eigenvalues --  -11.21610 -11.21602 -11.21581 -11.21538 -11.21423
 Alpha  occ. eigenvalues --  -11.21370 -11.21363 -11.21309 -11.21076 -11.21061
 Alpha  occ. eigenvalues --  -11.21056 -11.20889  -1.08469  -1.08379  -1.03552
 Alpha  occ. eigenvalues --   -1.03466  -0.95997  -0.95921  -0.87006  -0.86947
 Alpha  occ. eigenvalues --   -0.79637  -0.79525  -0.78298  -0.78197  -0.65107
 Alpha  occ. eigenvalues --   -0.65015  -0.60948  -0.60871  -0.59483  -0.59204
 Alpha  occ. eigenvalues --   -0.57627  -0.57527  -0.55281  -0.55209  -0.52831
 Alpha  occ. eigenvalues --   -0.52560  -0.52382  -0.52335  -0.49936  -0.49863
 Alpha  occ. eigenvalues --   -0.47928  -0.47874  -0.46661  -0.46560  -0.45772
 Alpha  occ. eigenvalues --   -0.45742  -0.45702  -0.45665  -0.43812  -0.43625
 Alpha virt. eigenvalues --    0.21753   0.23133   0.23651   0.24485   0.26045
 Alpha virt. eigenvalues --    0.26528   0.26885   0.27132   0.28082   0.29308
 Alpha virt. eigenvalues --    0.30776   0.31071   0.31517   0.31800   0.32218

 Mulliken charges:
               1
     1  C   -0.303212
     2  C   -0.298903
     3  C   -0.475741
     4  H    0.152907
     5  H    0.150383
     6  H    0.151840
     7  H    0.151958
     8  H    0.155382
     9  H    0.155542
    10  H    0.160182
    11  C   -0.297928
    12  C   -0.304805
    13  C   -0.475455
    14  H    0.149300
    15  H    0.149708
    16  H    0.157330
    17  H    0.152264
    18  H    0.155053
    19  H    0.155085
    20  H    0.160586
    21  C   -0.298144
    22  C   -0.299583
    23  C   -0.475668
    24  H    0.149435
    25  H    0.149351
    26  H    0.151870
    27  H    0.151898
    28  H    0.155125
    29  H    0.155112
    30  H    0.160179
    31  C   -0.298540
    32  C   -0.298902
    33  C   -0.487322
    34  H    0.149336
    35  H    0.149585
    36  H    0.150449
    37  H    0.152676
    38  H    0.154307
    39  H    0.153437
    40  H    0.173923
 Sum of Mulliken charges =  -0.00000

 Dipole moment (field-independent basis, Debye):
    X=              0.0514    Y=              0.0156    Z=             -0.0033  Tot=              0.0538
 Quadrupole moment (field-independent basis, Debye-Ang):
   XX=            -85.6813   YY=            -86.3924   ZZ=            -82.7735
   XY=              0.7885   XZ=             -0.1390   YZ=             -0.4670

 Normal termination of Gaussian 16 at Wed May  5 18:13:34 2021.
