 Gaussian 16, Revision A.03,
 Gaussian 16:  EM64L-G16RevA.03 25-Dec-2016

 -------------
 #p 6-31g* mp2
 -------------

 ------------------------------------------------------
 Input file generated by CHIRIPA (05-May-2021 14:51:09)
 ------------------------------------------------------
 Symbolic Z-matrix:
 Charge =  0 Multiplicity = 1

                         Standard orientation:
 ---------------------------------------------------------------------
 Center     Atomic      Atomic             Coordinates (Angstroms)
 Number     Number       Type             X           Y           Z
 ---------------------------------------------------------------------
      1          6           0        2.166691    1.044939    0.330653
      2          6           0        2.543724    2.523955    0.239311
      3          6           0        1.586082    3.427255    1.016977
      4          1           0        1.144191    0.909712   -0.047703
      5          1           0        2.151773    0.742077    1.386800
      6          1           0        2.559276    2.823587   -0.816433
      7          1           0        3.565515    2.655648    0.617750
      8          1           0        1.576957    3.156445    2.077722
      9          1           0        0.565001    3.325338    0.635390
     10          1           0        1.874216    4.480165    0.938112
     11          6           0        3.114704    0.129265   -0.441706
     12          6           0        2.737671   -1.349751   -0.350364
     13          6           0        3.695313   -2.253051   -1.128030
     14          1           0        3.129622    0.432127   -1.497853
     15          1           0        4.137204    0.264492   -0.063350
     16          1           0        1.715880   -1.481444   -0.728804
     17          1           0        2.722118   -1.649383    0.705379
     18          1           0        4.716393   -2.151134   -0.746443
     19          1           0        3.704438   -1.982241   -2.188775
     20          1           0        3.407179   -3.305961   -1.049165
     21          6           0       -2.622479   -1.342952    0.164111
     22          6           0       -1.321809   -1.832797    0.801523
     23          6           0       -1.300468   -3.347021    1.012387
     24          1           0       -3.468649   -1.638059    0.799607
     25          1           0       -2.763902   -1.850404   -0.800195
     26          1           0       -1.182181   -1.323545    1.763699
     27          1           0       -0.478622   -1.536322    0.164533
     28          1           0       -1.414869   -3.870569    0.057708
     29          1           0       -2.122425   -3.656582    1.665960
     30          1           0       -0.361686   -3.675565    1.469121
     31          6           0       -2.658915    0.168748   -0.053059
     32          6           0       -3.959586    0.658593   -0.690469
     33          6           0       -3.980927    2.172817   -0.901334
     34          1           0       -2.517491    0.676200    0.911248
     35          1           0       -1.812746    0.463855   -0.688554
     36          1           0       -4.802773    0.362118   -0.053480
     37          1           0       -4.099214    0.149341   -1.652646
     38          1           0       -3.158970    2.482379   -1.554907
     39          1           0       -3.866525    2.696365    0.053344
     40          1           0       -4.919709    2.501361   -1.358069
 ---------------------------------------------------------------------

 SCF Done:  E(RHF) =  -470.733195167     A.U. after   11 cycles
 E2 =    -0.1583660253D+01 EUMP2 =    -0.47231685542051D+03

 The electronic state is 1-A.
 Alpha  occ. eigenvalues --  -11.21622 -11.21609 -11.21587 -11.21522 -11.21419
 Alpha  occ. eigenvalues --  -11.21399 -11.21347 -11.21333 -11.21093 -11.21083
 Alpha  occ. eigenvalues --  -11.21044 -11.21039  -1.08454  -1.08404  -1.03547
 Alpha  occ. eigenvalues --   -1.03500  -0.95981  -0.95967  -0.86998  -0.86982
 Alpha  occ. eigenvalues --   -0.79672  -0.79518  -0.78395  -0.78085  -0.65179
 Alpha  occ. eigenvalues --   -0.64954  -0.61030  -0.60831  -0.59410  -0.59273
 Alpha  occ. eigenvalues --   -0.57623  -0.57540  -0.55292  -0.55235  -0.52689
 Alpha  occ. eigenvalues --   -0.52648  -0.52405  -0.52389  -0.49970  -0.49874
 Alpha  occ. eigenvalues --   -0.48079  -0.47797  -0.46837  -0.46479  -0.46216
 Alpha  occ. eigenvalues --   -0.45760  -0.45692  -0.45125  -0.43786  -0.43765
 Alpha virt. eigenvalues --    0.20703   0.23075   0.23496   0.24389   0.25033
 Alpha virt. eigenvalues --    0.26641   0.27042   0.27542   0.28278   0.29674
 Alpha virt. eigenvalues --    0.30871   0.31248   0.31582   0.31892   0.32213

 Mulliken charges:
               1
     1  C   -0.301539
     2  C   -0.299605
     3  C   -0.475928
     4  H    0.153025
     5  H    0.149757
     6  H    0.151590
     7  H    0.151884
     8  H    0.154979
     9  H    0.155995
    10  H    0.160084
    11  C   -0.298191
    12  C   -0.304639
    13  C   -0.475240
    14  H    0.149005
    15  H    0.149733
    16  H    0.156660
    17  H    0.152276
    18  H    0.155261
    19  H    0.154930
    20  H    0.160407
    21  C   -0.297890
    22  C   -0.307755
    23  C   -0.475514
    24  H    0.149650
    25  H    0.148981
    26  H    0.151998
    27  H    0.160675
    28  H    0.154554
    29  H    0.154988
    30  H    0.160493
    31  C   -0.299909
    32  C   -0.299638
    33  C   -0.475783
    34  H    0.150290
    35  H    0.149618
    36  H    0.152296
    37  H    0.151882
    38  H    0.154704
    39  H    0.155465
    40  H    0.160450
 Sum of Mulliken charges =  -0.00000

 Dipole moment (field-independent basis, Debye):
    X=              0.0047    Y=             -0.0013    Z=              0.0111  Tot=              0.0122
 Quadrupole moment (field-independent basis, Debye-Ang):
   XX=            -84.6919   YY=            -86.6051   ZZ=            -83.5211
   XY=              0.4844   XZ=              0.3919   YZ=             -0.1262

 Normal termination of Gaussian 16 at Thu May  6 06:56:52 2021.
