 Gaussian 16, Revision A.03,
 Gaussian 16:  EM64L-G16RevA.03 25-Dec-2016

 -------------
 #p 6-31g* mp2
 -------------

 ------------------------------------------------------
 Input file generated by CHIRIPA (05-May-2021 14:53:12)
 ------------------------------------------------------
 Symbolic Z-matrix:
 Charge =  0 Multiplicity = 1

                         Standard orientation:
 ---------------------------------------------------------------------
 Center     Atomic      Atomic             Coordinates (Angstroms)
 Number     Number       Type             X           Y           Z
 ---------------------------------------------------------------------
      1          6           0       -4.237724   -0.318648   -0.424197
      2          6           0       -5.042949   -0.949562    0.712264
      3          6           0       -6.091345   -1.944085    0.212683
      4          1           0       -4.925514    0.187639   -1.115256
      5          1           0       -3.744849   -1.113887   -1.000447
      6          1           0       -5.533042   -0.153283    1.287037
      7          1           0       -4.353144   -1.454243    1.400801
      8          1           0       -5.615679   -2.758559   -0.343172
      9          1           0       -6.802280   -1.450206   -0.457583
     10          1           0       -6.655342   -2.383117    1.041549
     11          6           0       -3.185623    0.677834    0.059370
     12          6           0       -2.380398    1.308748   -1.077092
     13          6           0       -1.332002    2.303271   -0.577510
     14          1           0       -3.678498    1.473073    0.635620
     15          1           0       -2.497833    0.171546    0.750429
     16          1           0       -3.070203    1.813429   -1.765628
     17          1           0       -1.890305    0.512468   -1.651864
     18          1           0       -0.621067    1.809392    0.092755
     19          1           0       -1.807668    3.117744   -0.021655
     20          1           0       -0.768005    2.742303   -1.406376
     21          6           0        2.035329    2.108601    0.891592
     22          6           0        2.187137    1.072665    1.819121
     23          6           0        2.665225   -0.177504    1.415317
     24          6           0        2.983314   -0.357723    0.070092
     25          6           0        2.842998    0.654664   -0.877892
     26          6           0        2.363166    1.896668   -0.451587
     27          1           0        1.663261    3.076591    1.214015
     28          1           0        1.933324    1.234394    2.862897
     29          1           0        2.792398   -0.996910    2.112324
     30          1           0        3.104337    0.463297   -1.911574
     31          1           0        2.246280    2.699363   -1.174126
     32          7           0        3.490367   -1.676899   -0.369308
     33          8           0        3.763574   -1.810219   -1.560198
     34          8           0        3.604988   -2.552569    0.485502
 ---------------------------------------------------------------------

 SCF Done:  E(RHF) =  -669.534388637     A.U. after   15 cycles
 E2 =    -0.2092544799D+01 EUMP2 =    -0.67162693343627D+03

 The electronic state is 1-A.
 Alpha  occ. eigenvalues --  -20.60793 -20.60787 -15.85848 -11.31216 -11.27802
 Alpha  occ. eigenvalues --  -11.27774 -11.27500 -11.26807 -11.26766 -11.21940
 Alpha  occ. eigenvalues --  -11.21761 -11.21679 -11.21556 -11.21516 -11.21171
 Alpha  occ. eigenvalues --   -1.59869  -1.39423  -1.19402  -1.08807  -1.08672
 Alpha  occ. eigenvalues --   -1.04800  -1.03796  -0.96273  -0.95618  -0.87298
 Alpha  occ. eigenvalues --   -0.86189  -0.82452  -0.79876  -0.78486  -0.77497
 Alpha  occ. eigenvalues --   -0.72065  -0.71194  -0.70499  -0.65310  -0.65045
 Alpha  occ. eigenvalues --   -0.64798  -0.62146  -0.61205  -0.59642  -0.57879
 Alpha  occ. eigenvalues --   -0.55639  -0.55288  -0.53338  -0.52972  -0.52813
 Alpha  occ. eigenvalues --   -0.52568  -0.50147  -0.48824  -0.48820  -0.48184
 Alpha  occ. eigenvalues --   -0.46884  -0.46034  -0.45942  -0.44828  -0.44063
 Alpha  occ. eigenvalues --   -0.37266  -0.36394
 Alpha virt. eigenvalues --    0.05016   0.11214   0.16454   0.21022   0.22663
 Alpha virt. eigenvalues --    0.24085   0.26417   0.26516   0.27219   0.27801
 Alpha virt. eigenvalues --    0.28677   0.30055   0.31224   0.31767   0.31958

 Mulliken charges:
               1
     1  C   -0.298802
     2  C   -0.299840
     3  C   -0.475969
     4  H    0.149843
     5  H    0.151791
     6  H    0.151074
     7  H    0.152263
     8  H    0.156683
     9  H    0.155172
    10  H    0.160637
    11  C   -0.298675
    12  C   -0.298825
    13  C   -0.482407
    14  H    0.148183
    15  H    0.149839
    16  H    0.152115
    17  H    0.154672
    18  H    0.163928
    19  H    0.151138
    20  H    0.152857
    21  C   -0.172949
    22  C   -0.219488
    23  C   -0.171161
    24  C    0.158332
    25  C   -0.172139
    26  C   -0.212851
    27  H    0.228008
    28  H    0.223893
    29  H    0.275703
    30  H    0.275651
    31  H    0.224143
    32  N    0.488071
    33  O   -0.460361
    34  O   -0.460526
 Sum of Mulliken charges =  -0.00000

 Dipole moment (field-independent basis, Debye):
    X=             -1.7786    Y=              4.6031    Z=              1.5597  Tot=              5.1754
 Quadrupole moment (field-independent basis, Debye-Ang):
   XX=           -106.3630   YY=            -98.2643   ZZ=            -90.2837
   XY=             13.9825   XZ=              4.0495   YZ=             -2.1450

 Normal termination of Gaussian 16 at Wed May  5 20:07:23 2021.
