 Gaussian 16, Revision A.03,
 Gaussian 16:  EM64L-G16RevA.03 25-Dec-2016

 -------------
 #p 6-31g* mp2
 -------------

 ------------------------------------------------------
 Input file generated by CHIRIPA (05-May-2021 14:53:18)
 ------------------------------------------------------
 Symbolic Z-matrix:
 Charge =  0 Multiplicity = 1

                         Standard orientation:
 ---------------------------------------------------------------------
 Center     Atomic      Atomic             Coordinates (Angstroms)
 Number     Number       Type             X           Y           Z
 ---------------------------------------------------------------------
      1          6           0        4.059706   -0.118083    0.597451
      2          6           0        3.100655   -1.294427    0.782984
      3          6           0        1.889905   -0.939506    1.646644
      4          1           0        4.399510    0.228682    1.582963
      5          1           0        3.516025    0.720804    0.141299
      6          1           0        3.646320   -2.131320    1.237380
      7          1           0        2.763244   -1.638555   -0.203092
      8          1           0        1.320680   -0.120992    1.194294
      9          1           0        2.208774   -0.616557    2.642950
     10          1           0        1.217535   -1.794766    1.766265
     11          6           0        5.275074   -0.457312   -0.263671
     12          6           0        6.234125    0.719031   -0.449204
     13          6           0        7.444875    0.364110   -1.312863
     14          1           0        5.818755   -1.296199    0.192481
     15          1           0        4.935270   -0.804078   -1.249182
     16          1           0        6.571536    1.063159    0.536872
     17          1           0        5.688459    1.555924   -0.903600
     18          1           0        7.126006    0.041161   -2.309170
     19          1           0        8.014099   -0.454403   -0.860514
     20          1           0        8.117245    1.219370   -1.432485
     21          6           0       -5.575317   -1.328100   -0.613921
     22          6           0       -5.813581    0.027326   -0.363781
     23          6           0       -4.752459    0.896908   -0.094710
     24          6           0       -3.459917    0.374889   -0.083637
     25          6           0       -3.190290   -0.970620   -0.328984
     26          6           0       -4.266740   -1.821877   -0.595756
     27          1           0       -6.405575   -1.996494   -0.822048
     28          1           0       -6.828801    0.413580   -0.377239
     29          1           0       -4.908468    1.950589    0.102357
     30          1           0       -2.167328   -1.326365   -0.308725
     31          1           0       -4.078719   -2.874062   -0.789660
     32          7           0       -2.328443    1.285776    0.200000
     33          8           0       -1.198949    0.801147    0.203977
     34          8           0       -2.592510    2.467111    0.412966
 ---------------------------------------------------------------------

 SCF Done:  E(RHF) =  -669.536065713     A.U. after   15 cycles
 E2 =    -0.2090661707D+01 EUMP2 =    -0.67162672741968D+03

 The electronic state is 1-A.
 Alpha  occ. eigenvalues --  -20.60897 -20.60891 -15.85942 -11.31263 -11.27828
 Alpha  occ. eigenvalues --  -11.27822 -11.27568 -11.26837 -11.26827 -11.21064
 Alpha  occ. eigenvalues --  -11.20790 -11.20778 -11.20639 -11.20586 -11.19906
 Alpha  occ. eigenvalues --   -1.59963  -1.39519  -1.19433  -1.08837  -1.07737
 Alpha  occ. eigenvalues --   -1.04830  -1.02809  -0.95681  -0.95239  -0.86256
 Alpha  occ. eigenvalues --   -0.86228  -0.82514  -0.78888  -0.77580  -0.77521
 Alpha  occ. eigenvalues --   -0.72172  -0.71279  -0.70542  -0.65091  -0.64833
 Alpha  occ. eigenvalues --   -0.64365  -0.62176  -0.60194  -0.58651  -0.56863
 Alpha  occ. eigenvalues --   -0.55335  -0.54501  -0.53162  -0.52922  -0.51956
 Alpha  occ. eigenvalues --   -0.51656  -0.49196  -0.48922  -0.48867  -0.47190
 Alpha  occ. eigenvalues --   -0.45916  -0.45091  -0.45018  -0.44876  -0.43080
 Alpha  occ. eigenvalues --   -0.37413  -0.36432
 Alpha virt. eigenvalues --    0.04964   0.11223   0.16456   0.21290   0.23531
 Alpha virt. eigenvalues --    0.24919   0.27198   0.27342   0.27917   0.28192
 Alpha virt. eigenvalues --    0.29044   0.30959   0.32019   0.32325   0.32548

 Mulliken charges:
               1
     1  C   -0.298969
     2  C   -0.298256
     3  C   -0.484903
     4  H    0.148474
     5  H    0.155477
     6  H    0.146584
     7  H    0.148489
     8  H    0.184589
     9  H    0.151034
    10  H    0.149999
    11  C   -0.297684
    12  C   -0.299441
    13  C   -0.475317
    14  H    0.147176
    15  H    0.148223
    16  H    0.151458
    17  H    0.153251
    18  H    0.154278
    19  H    0.153891
    20  H    0.159166
    21  C   -0.170629
    22  C   -0.218616
    23  C   -0.170653
    24  C    0.157668
    25  C   -0.170785
    26  C   -0.218587
    27  H    0.225876
    28  H    0.223687
    29  H    0.275772
    30  H    0.276219
    31  H    0.223781
    32  N    0.494404
    33  O   -0.466282
    34  O   -0.459374
 Sum of Mulliken charges =  -0.00000

 Dipole moment (field-independent basis, Debye):
    X=             -4.2325    Y=             -3.0678    Z=             -1.0294  Tot=              5.3278
 Quadrupole moment (field-independent basis, Debye-Ang):
   XX=            -66.8780   YY=            -94.6858   ZZ=            -95.3243
   XY=              7.3353   XZ=              4.4771   YZ=              0.2611

 Normal termination of Gaussian 16 at Wed May  5 17:16:09 2021.
