 Gaussian 16, Revision A.03,
 Gaussian 16:  EM64L-G16RevA.03 25-Dec-2016

 -------------
 #p 6-31g* mp2
 -------------

 ------------------------------------------------------
 Input file generated by CHIRIPA (05-May-2021 14:51:14)
 ------------------------------------------------------
 Symbolic Z-matrix:
 Charge =  0 Multiplicity = 1

                         Standard orientation:
 ---------------------------------------------------------------------
 Center     Atomic      Atomic             Coordinates (Angstroms)
 Number     Number       Type             X           Y           Z
 ---------------------------------------------------------------------
      1          6           0       -2.857451    1.207791    0.263028
      2          6           0       -2.064464    2.301487   -0.453203
      3          6           0       -2.373763    3.700959    0.079345
      4          1           0       -3.931456    1.413066    0.156632
      5          1           0       -2.636403    1.248965    1.338592
      6          1           0       -2.285881    2.257371   -1.527281
      7          1           0       -0.992225    2.093481   -0.345252
      8          1           0       -2.135567    3.768676    1.145777
      9          1           0       -3.436574    3.933497   -0.042968
     10          1           0       -1.796059    4.467413   -0.446645
     11          6           0       -2.559112   -0.196844   -0.258240
     12          6           0       -3.352099   -1.290540    0.457990
     13          6           0       -3.042800   -2.690011   -0.074557
     14          1           0       -2.780160   -0.238017   -1.333804
     15          1           0       -1.485107   -0.402118   -0.151844
     16          1           0       -4.424338   -1.082534    0.350039
     17          1           0       -3.130681   -1.246424    1.532069
     18          1           0       -1.979989   -2.922550    0.047756
     19          1           0       -3.280996   -2.757728   -1.140990
     20          1           0       -3.620504   -3.456466    0.451433
     21          6           0        2.710360    0.249963   -0.115278
     22          6           0        4.038217    0.914060    0.250446
     23          6           0        4.026782    2.425404    0.019140
     24          1           0        2.480966    0.459332   -1.169075
     25          1           0        1.904874    0.706334    0.476595
     26          1           0        4.841158    0.455619   -0.340938
     27          1           0        4.264571    0.702925    1.303443
     28          1           0        3.245807    2.901332    0.620948
     29          1           0        3.825670    2.652622   -1.032776
     30          1           0        4.985738    2.879813    0.287048
     31          6           0        2.706203   -1.260911    0.110491
     32          6           0        1.378345   -1.925007   -0.255234
     33          6           0        1.389781   -3.436351   -0.023927
     34          1           0        3.511689   -1.717281   -0.481383
     35          1           0        2.935597   -1.470280    1.164287
     36          1           0        1.151992   -1.713871   -1.308230
     37          1           0        0.575405   -1.466567    0.336151
     38          1           0        1.590894   -3.663569    1.027988
     39          1           0        2.170755   -3.912279   -0.625735
     40          1           0        0.430826   -3.890761   -0.291836
 ---------------------------------------------------------------------

 SCF Done:  E(RHF) =  -470.733034936     A.U. after   11 cycles
 E2 =    -0.1583930498D+01 EUMP2 =    -0.47231696543490D+03

 The electronic state is 1-A.
 Alpha  occ. eigenvalues --  -11.21661 -11.21648 -11.21570 -11.21566 -11.21470
 Alpha  occ. eigenvalues --  -11.21411 -11.21352 -11.21271 -11.21122 -11.21103
 Alpha  occ. eigenvalues --  -11.21048 -11.21037  -1.08500  -1.08385  -1.03598
 Alpha  occ. eigenvalues --   -1.03488  -0.96038  -0.95942  -0.87066  -0.86948
 Alpha  occ. eigenvalues --   -0.79683  -0.79542  -0.78397  -0.78112  -0.65211
 Alpha  occ. eigenvalues --   -0.64955  -0.61068  -0.60844  -0.59446  -0.59264
 Alpha  occ. eigenvalues --   -0.57691  -0.57513  -0.55322  -0.55243  -0.52750
 Alpha  occ. eigenvalues --   -0.52643  -0.52547  -0.52271  -0.50016  -0.49860
 Alpha  occ. eigenvalues --   -0.48007  -0.47846  -0.46815  -0.46516  -0.46196
 Alpha  occ. eigenvalues --   -0.45797  -0.45706  -0.45176  -0.43838  -0.43744
 Alpha virt. eigenvalues --    0.20518   0.22411   0.23415   0.24957   0.25154
 Alpha virt. eigenvalues --    0.26442   0.26799   0.27137   0.28806   0.29753
 Alpha virt. eigenvalues --    0.30757   0.30812   0.31586   0.31756   0.31965

 Mulliken charges:
               1
     1  C   -0.297604
     2  C   -0.300935
     3  C   -0.475632
     4  H    0.149484
     5  H    0.148641
     6  H    0.151916
     7  H    0.153218
     8  H    0.154792
     9  H    0.155129
    10  H    0.160327
    11  C   -0.307009
    12  C   -0.298832
    13  C   -0.481963
    14  H    0.149162
    15  H    0.158671
    16  H    0.151886
    17  H    0.151092
    18  H    0.161133
    19  H    0.155077
    20  H    0.160105
    21  C   -0.299635
    22  C   -0.299664
    23  C   -0.475791
    24  H    0.150354
    25  H    0.149390
    26  H    0.152257
    27  H    0.152011
    28  H    0.155179
    29  H    0.155407
    30  H    0.160458
    31  C   -0.297752
    32  C   -0.306039
    33  C   -0.479309
    34  H    0.150013
    35  H    0.149595
    36  H    0.153229
    37  H    0.156861
    38  H    0.155195
    39  H    0.155818
    40  H    0.163765
 Sum of Mulliken charges =  -0.00000

 Dipole moment (field-independent basis, Debye):
    X=              0.0565    Y=             -0.0186    Z=             -0.0199  Tot=              0.0627
 Quadrupole moment (field-independent basis, Debye-Ang):
   XX=            -84.2047   YY=            -87.1146   ZZ=            -83.4636
   XY=             -0.1813   XZ=              0.2481   YZ=             -0.0920

 Normal termination of Gaussian 16 at Thu May  6 07:12:26 2021.
