 Gaussian 16, Revision A.03,
 Gaussian 16:  EM64L-G16RevA.03 25-Dec-2016

 -------------
 #p 6-31g* mp2
 -------------

 ------------------------------------------------------
 Input file generated by CHIRIPA (05-May-2021 14:57:24)
 ------------------------------------------------------
 Symbolic Z-matrix:
 Charge =  0 Multiplicity = 1

                         Standard orientation:
 ---------------------------------------------------------------------
 Center     Atomic      Atomic             Coordinates (Angstroms)
 Number     Number       Type             X           Y           Z
 ---------------------------------------------------------------------
      1          6           0        2.938588    2.341890   -0.370104
      2          6           0        4.164310    2.061720    0.242783
      3          6           0        4.569042    0.739578    0.449377
      4          6           0        3.719490   -0.282494    0.028757
      5          6           0        2.492328   -0.035528   -0.584735
      6          6           0        2.107973    1.294219   -0.781182
      7          1           0        2.632097    3.371916   -0.526650
      8          1           0        4.811410    2.873344    0.563054
      9          1           0        5.512710    0.494289    0.921333
     10          1           0        1.868697   -0.865791   -0.893225
     11          1           0        1.155511    1.508827   -1.257423
     12          7           0        4.137175   -1.686212    0.242098
     13          8           0        3.370626   -2.568763   -0.137563
     14          8           0        5.223197   -1.877315    0.784936
     15          6           0       -2.733330    2.399894    0.094829
     16          6           0       -2.206207    1.476276   -0.813791
     17          6           0       -2.706736    0.172173   -0.871547
     18          6           0       -3.739333   -0.175925   -0.002145
     19          6           0       -4.285473    0.721531    0.914150
     20          6           0       -3.769454    2.020244    0.954384
     21          1           0       -2.338491    3.410859    0.132890
     22          1           0       -1.401514    1.768328   -1.482536
     23          1           0       -2.317144   -0.562952   -1.565253
     24          1           0       -5.087355    0.401008    1.568113
     25          1           0       -4.180762    2.735432    1.661050
     26          7           0       -4.277420   -1.553667   -0.054014
     27          8           0       -5.187372   -1.835527    0.722632
     28          8           0       -3.779031   -2.325593   -0.870332
 ---------------------------------------------------------------------

 SCF Done:  E(RHF) =  -868.336099925     A.U. after   16 cycles
 E2 =    -0.2599853643D+01 EUMP2 =    -0.87093595356788D+03

 The electronic state is 1-A.
 Alpha  occ. eigenvalues --  -20.61087 -20.61082 -20.61008 -20.60998 -15.86151
 Alpha  occ. eigenvalues --  -15.86067 -11.31697 -11.31589 -11.28359 -11.28274
 Alpha  occ. eigenvalues --  -11.28215 -11.28169 -11.28132 -11.28019 -11.27493
 Alpha  occ. eigenvalues --  -11.27350 -11.27311 -11.27218  -1.60159  -1.60079
 Alpha  occ. eigenvalues --   -1.39708  -1.39628  -1.19909  -1.19796  -1.09275
 Alpha  occ. eigenvalues --   -1.09171  -1.05360  -1.05230  -0.96071  -0.95971
 Alpha  occ. eigenvalues --   -0.86767  -0.86618  -0.82922  -0.82800  -0.77943
 Alpha  occ. eigenvalues --   -0.77800  -0.72365  -0.72281  -0.71485  -0.71406
 Alpha  occ. eigenvalues --   -0.71026  -0.70920  -0.65574  -0.65562  -0.65457
 Alpha  occ. eigenvalues --   -0.65134  -0.62795  -0.62488  -0.55873  -0.55749
 Alpha  occ. eigenvalues --   -0.53680  -0.53578  -0.53534  -0.53210  -0.49141
 Alpha  occ. eigenvalues --   -0.49108  -0.49054  -0.49026  -0.45073  -0.44998
 Alpha  occ. eigenvalues --   -0.37904  -0.37790  -0.36984  -0.36798
 Alpha virt. eigenvalues --    0.04634   0.04742   0.10552   0.10894   0.15979
 Alpha virt. eigenvalues --    0.16207   0.18380   0.21942   0.24569   0.27302
 Alpha virt. eigenvalues --    0.28090   0.28791   0.29176   0.31626   0.31781

 Mulliken charges:
               1
     1  C   -0.171823
     2  C   -0.218300
     3  C   -0.169979
     4  C    0.159051
     5  C   -0.170627
     6  C   -0.218145
     7  H    0.223080
     8  H    0.224472
     9  H    0.277363
    10  H    0.277320
    11  H    0.215431
    12  N    0.487928
    13  O   -0.457630
    14  O   -0.459395
    15  C   -0.169987
    16  C   -0.220993
    17  C   -0.170693
    18  C    0.159591
    19  C   -0.169071
    20  C   -0.218191
    21  H    0.223933
    22  H    0.215675
    23  H    0.276071
    24  H    0.278139
    25  H    0.225327
    26  N    0.488119
    27  O   -0.458440
    28  O   -0.458223
 Sum of Mulliken charges =  -0.00000

 Dipole moment (field-independent basis, Debye):
    X=              0.3627    Y=              9.6451    Z=             -0.4165  Tot=              9.6609
 Quadrupole moment (field-independent basis, Debye-Ang):
   XX=           -123.4572   YY=           -109.7534   ZZ=           -102.4875
   XY=              1.0345   XZ=             -4.3207   YZ=              2.3141

 Normal termination of Gaussian 16 at Wed May  5 19:27:33 2021.
