 Gaussian 16, Revision A.03,
 Gaussian 16:  EM64L-G16RevA.03 25-Dec-2016

 -------------
 #p 6-31g* mp2
 -------------

 ------------------------------------------------------
 Input file generated by CHIRIPA (05-May-2021 14:53:12)
 ------------------------------------------------------
 Symbolic Z-matrix:
 Charge =  0 Multiplicity = 1

                         Standard orientation:
 ---------------------------------------------------------------------
 Center     Atomic      Atomic             Coordinates (Angstroms)
 Number     Number       Type             X           Y           Z
 ---------------------------------------------------------------------
      1          6           0       -3.471595    0.278097    0.359845
      2          6           0       -2.996937    1.631484    0.889964
      3          6           0       -1.479721    1.697777    1.067320
      4          1           0       -3.146688   -0.513045    1.049392
      5          1           0       -2.979907    0.075914   -0.601800
      6          1           0       -3.490427    1.831684    1.849653
      7          1           0       -3.323177    2.419515    0.199174
      8          1           0       -0.972324    1.523562    0.112963
      9          1           0       -1.140524    0.932390    1.772820
     10          1           0       -1.162191    2.673876    1.447142
     11          6           0       -4.986093    0.196337    0.177255
     12          6           0       -5.460752   -1.157051   -0.352863
     13          6           0       -6.977967   -1.223344   -0.530220
     14          1           0       -5.477781    0.398519    1.138900
     15          1           0       -5.311001    0.987479   -0.512291
     16          1           0       -5.134511   -1.945082    0.337927
     17          1           0       -4.967262   -1.357251   -1.312553
     18          1           0       -7.317164   -0.457957   -1.235719
     19          1           0       -7.485364   -1.049128    0.424138
     20          1           0       -7.295498   -2.199443   -0.910042
     21          6           0        5.676504   -0.551285    0.566210
     22          6           0        5.389635    0.461417   -0.355019
     23          6           0        4.078626    0.673218   -0.791992
     24          6           0        3.074399   -0.149946   -0.284827
     25          6           0        3.328435   -1.167180    0.633862
     26          6           0        4.646804   -1.360924    1.056845
     27          1           0        6.697786   -0.708804    0.900228
     28          1           0        6.187308    1.091720   -0.737748
     29          1           0        3.828502    1.449935   -1.504430
     30          1           0        2.512139   -1.779415    0.997520
     31          1           0        4.866651   -2.148164    1.772363
     32          7           0        1.682596    0.064721   -0.740026
     33          8           0        0.815715   -0.674066   -0.278128
     34          8           0        1.484938    0.967697   -1.550089
 ---------------------------------------------------------------------

 SCF Done:  E(RHF) =  -669.536367067     A.U. after   15 cycles
 E2 =    -0.2091704810D+01 EUMP2 =    -0.67162807187699D+03

 The electronic state is 1-A.
 Alpha  occ. eigenvalues --  -20.60992 -20.60983 -15.85986 -11.31303 -11.27860
 Alpha  occ. eigenvalues --  -11.27857 -11.27597 -11.26864 -11.26855 -11.20748
 Alpha  occ. eigenvalues --  -11.20387 -11.20379 -11.20298 -11.20043 -11.19359
 Alpha  occ. eigenvalues --   -1.60030  -1.39585  -1.19466  -1.08874  -1.07303
 Alpha  occ. eigenvalues --   -1.04860  -1.02392  -0.95720  -0.94825  -0.86261
 Alpha  occ. eigenvalues --   -0.85843  -0.82554  -0.78497  -0.77611  -0.77063
 Alpha  occ. eigenvalues --   -0.72205  -0.71335  -0.70576  -0.65121  -0.64865
 Alpha  occ. eigenvalues --   -0.63943  -0.62207  -0.59795  -0.58249  -0.56434
 Alpha  occ. eigenvalues --   -0.55369  -0.54105  -0.53193  -0.52952  -0.51566
 Alpha  occ. eigenvalues --   -0.51253  -0.49139  -0.48977  -0.48598  -0.46751
 Alpha  occ. eigenvalues --   -0.45521  -0.45011  -0.44565  -0.44476  -0.42658
 Alpha  occ. eigenvalues --   -0.37440  -0.36459
 Alpha virt. eigenvalues --    0.04893   0.11197   0.16391   0.21329   0.23932
 Alpha virt. eigenvalues --    0.25527   0.27247   0.27783   0.28175   0.28634
 Alpha virt. eigenvalues --    0.29262   0.30913   0.32379   0.32642   0.32740

 Mulliken charges:
               1
     1  C   -0.297469
     2  C   -0.299086
     3  C   -0.482296
     4  H    0.148427
     5  H    0.159741
     6  H    0.144524
     7  H    0.148585
     8  H    0.180844
     9  H    0.151292
    10  H    0.148568
    11  C   -0.297815
    12  C   -0.298785
    13  C   -0.475039
    14  H    0.145658
    15  H    0.147683
    16  H    0.150555
    17  H    0.153294
    18  H    0.154169
    19  H    0.153257
    20  H    0.157806
    21  C   -0.170508
    22  C   -0.218616
    23  C   -0.170694
    24  C    0.160631
    25  C   -0.170687
    26  C   -0.218612
    27  H    0.226018
    28  H    0.223845
    29  H    0.275869
    30  H    0.275819
    31  H    0.223840
    32  N    0.488189
    33  O   -0.457863
    34  O   -0.461145
 Sum of Mulliken charges =  -0.00000

 Dipole moment (field-independent basis, Debye):
    X=              5.2721    Y=             -0.8653    Z=              1.4500  Tot=              5.5359
 Quadrupole moment (field-independent basis, Debye-Ang):
   XX=            -67.1028   YY=            -92.4311   ZZ=            -93.9326
   XY=             -1.8024   XZ=              2.7068   YZ=             -3.3622

 Normal termination of Gaussian 16 at Thu May  6 04:08:45 2021.
