 Gaussian 16, Revision A.03,
 Gaussian 16:  EM64L-G16RevA.03 25-Dec-2016

 -------------
 #p 6-31g* mp2
 -------------

 ------------------------------------------------------
 Input file generated by CHIRIPA (05-May-2021 14:51:10)
 ------------------------------------------------------
 Symbolic Z-matrix:
 Charge =  0 Multiplicity = 1

                         Standard orientation:
 ---------------------------------------------------------------------
 Center     Atomic      Atomic             Coordinates (Angstroms)
 Number     Number       Type             X           Y           Z
 ---------------------------------------------------------------------
      1          6           0        2.750971    0.436953    0.237772
      2          6           0        3.240389    1.136704   -1.030614
      3          6           0        3.673696    2.581274   -0.779105
      4          1           0        1.911208    1.004698    0.661338
      5          1           0        3.551533    0.454885    0.990217
      6          1           0        2.439623    1.116239   -1.780928
      7          1           0        4.078961    0.567122   -1.451315
      8          1           0        4.489255    2.617381   -0.049612
      9          1           0        2.840604    3.169617   -0.381097
     10          1           0        4.019881    3.062537   -1.699106
     11          6           0        2.314301   -1.007928    0.002468
     12          6           0        1.824883   -1.707680    1.270854
     13          6           0        1.391575   -3.152250    1.019346
     14          1           0        1.513739   -1.025860   -0.749977
     15          1           0        3.154064   -1.575673   -0.421098
     16          1           0        0.986311   -1.138098    1.691556
     17          1           0        2.625648   -1.687214    2.021169
     18          1           0        2.224668   -3.740593    0.621338
     19          1           0        0.576016   -3.188356    0.289852
     20          1           0        1.045390   -3.633512    1.939347
     21          6           0       -2.646693   -0.233926   -0.668419
     22          6           0       -2.296709   -1.658352   -0.236557
     23          6           0       -2.530190   -2.686123   -1.344243
     24          1           0       -3.698206   -0.201468   -0.984984
     25          1           0       -2.046639    0.032517   -1.549520
     26          1           0       -2.896242   -1.921529    0.644303
     27          1           0       -1.245960   -1.687381    0.079198
     28          1           0       -1.920503   -2.451016   -2.222655
     29          1           0       -3.580161   -2.686494   -1.654340
     30          1           0       -2.273610   -3.697550   -1.014029
     31          6           0       -2.418578    0.804901    0.428179
     32          6           0       -2.768563    2.229327   -0.003684
     33          6           0       -2.535082    3.257098    1.104003
     34          1           0       -3.018633    0.538459    1.309280
     35          1           0       -1.367066    0.772444    0.744744
     36          1           0       -3.819312    2.258356   -0.319439
     37          1           0       -2.169030    2.492504   -0.884544
     38          1           0       -1.485110    3.257469    1.414099
     39          1           0       -3.144769    3.021992    1.982414
     40          1           0       -2.791662    4.268525    0.773788
 ---------------------------------------------------------------------

 SCF Done:  E(RHF) =  -470.733133171     A.U. after   11 cycles
 E2 =    -0.1584052609D+01 EUMP2 =    -0.47231718578018D+03

 The electronic state is 1-A.
 Alpha  occ. eigenvalues --  -11.21654 -11.21654 -11.21640 -11.21616 -11.21469
 Alpha  occ. eigenvalues --  -11.21466 -11.21410 -11.21404 -11.21117 -11.21117
 Alpha  occ. eigenvalues --  -11.21112 -11.21062  -1.08518  -1.08455  -1.03622
 Alpha  occ. eigenvalues --   -1.03533  -0.96055  -0.95996  -0.87044  -0.87036
 Alpha  occ. eigenvalues --   -0.79666  -0.79612  -0.78307  -0.78295  -0.65381
 Alpha  occ. eigenvalues --   -0.64890  -0.61257  -0.60731  -0.59403  -0.59370
 Alpha  occ. eigenvalues --   -0.57691  -0.57586  -0.55441  -0.55182  -0.52724
 Alpha  occ. eigenvalues --   -0.52703  -0.52465  -0.52424  -0.49999  -0.49940
 Alpha  occ. eigenvalues --   -0.48040  -0.47882  -0.46758  -0.46577  -0.46042
 Alpha  occ. eigenvalues --   -0.45798  -0.45740  -0.45553  -0.43838  -0.43824
 Alpha virt. eigenvalues --    0.18974   0.22409   0.23841   0.24355   0.25650
 Alpha virt. eigenvalues --    0.26572   0.26746   0.27946   0.28530   0.30196
 Alpha virt. eigenvalues --    0.30879   0.31268   0.31642   0.31715   0.32044

 Mulliken charges:
               1
     1  C   -0.299172
     2  C   -0.299594
     3  C   -0.475732
     4  H    0.149573
     5  H    0.150047
     6  H    0.151597
     7  H    0.152251
     8  H    0.155395
     9  H    0.155106
    10  H    0.160466
    11  C   -0.299412
    12  C   -0.302730
    13  C   -0.479931
    14  H    0.149449
    15  H    0.150270
    16  H    0.153557
    17  H    0.152820
    18  H    0.155312
    19  H    0.159625
    20  H    0.160588
    21  C   -0.297539
    22  C   -0.308997
    23  C   -0.476552
    24  H    0.149996
    25  H    0.148960
    26  H    0.152292
    27  H    0.161163
    28  H    0.154908
    29  H    0.155702
    30  H    0.161137
    31  C   -0.300586
    32  C   -0.299675
    33  C   -0.475664
    34  H    0.149981
    35  H    0.150439
    36  H    0.152352
    37  H    0.151850
    38  H    0.154758
    39  H    0.155436
    40  H    0.160555
 Sum of Mulliken charges =  -0.00000

 Dipole moment (field-independent basis, Debye):
    X=             -0.0026    Y=             -0.0121    Z=              0.0062  Tot=              0.0138
 Quadrupole moment (field-independent basis, Debye-Ang):
   XX=            -82.9359   YY=            -86.4743   ZZ=            -85.1416
   XY=             -0.6337   XZ=             -0.2378   YZ=             -0.7377

 Normal termination of Gaussian 16 at Thu May  6 06:59:40 2021.
