 Gaussian 16, Revision A.03,
 Gaussian 16:  EM64L-G16RevA.03 25-Dec-2016

 -------------
 #p 6-31g* mp2
 -------------

 ------------------------------------------------------
 Input file generated by CHIRIPA (05-May-2021 14:51:11)
 ------------------------------------------------------
 Symbolic Z-matrix:
 Charge =  0 Multiplicity = 1

                         Standard orientation:
 ---------------------------------------------------------------------
 Center     Atomic      Atomic             Coordinates (Angstroms)
 Number     Number       Type             X           Y           Z
 ---------------------------------------------------------------------
      1          6           0       -3.208844    1.247316   -0.303542
      2          6           0       -2.266343    1.986215    0.647093
      3          6           0       -1.872607    3.370721    0.131430
      4          1           0       -2.726796    1.150803   -1.286019
      5          1           0       -4.112628    1.853143   -0.456977
      6          1           0       -1.365212    1.378543    0.799779
      7          1           0       -2.750614    2.080812    1.627475
      8          1           0       -2.759601    3.998089   -0.003673
      9          1           0       -1.366328    3.291830   -0.836071
     10          1           0       -1.198622    3.881247    0.826388
     11          6           0       -3.611457   -0.138286    0.198193
     12          6           0       -4.553957   -0.877185   -0.752442
     13          6           0       -4.947693   -2.261691   -0.236779
     14          1           0       -2.707673   -0.744113    0.351628
     15          1           0       -4.093504   -0.041773    1.180669
     16          1           0       -4.069687   -0.971781   -1.732824
     17          1           0       -5.455089   -0.269513   -0.905128
     18          1           0       -5.453973   -2.182800    0.730722
     19          1           0       -4.060699   -2.889059   -0.101677
     20          1           0       -5.621679   -2.772217   -0.931737
     21          6           0        4.159793   -0.552220    0.199178
     22          6           0        4.937280    0.467489   -0.633703
     23          6           0        6.435638    0.460114   -0.329297
     24          1           0        4.319738   -0.343276    1.265810
     25          1           0        4.567880   -1.555226    0.012526
     26          1           0        4.526944    1.468103   -0.446586
     27          1           0        4.775312    0.256210   -1.698477
     28          1           0        6.865442   -0.525811   -0.533798
     29          1           0        6.615663    0.692968    0.725204
     30          1           0        6.972136    1.196507   -0.935724
     31          6           0        2.660508   -0.556811   -0.093829
     32          6           0        1.883021   -1.576519    0.739052
     33          6           0        0.384663   -1.569144    0.434646
     34          1           0        2.252421    0.446195    0.092823
     35          1           0        2.500563   -0.765755   -1.160461
     36          1           0        2.044989   -1.365240    1.803826
     37          1           0        2.293357   -2.577134    0.551936
     38          1           0        0.204638   -1.801998   -0.619855
     39          1           0       -0.045141   -0.583219    0.639148
     40          1           0       -0.151835   -2.305537    1.041074
 ---------------------------------------------------------------------

 SCF Done:  E(RHF) =  -470.733061420     A.U. after   11 cycles
 E2 =    -0.1583293166D+01 EUMP2 =    -0.47231635458648D+03

 The electronic state is 1-A.
 Alpha  occ. eigenvalues --  -11.21661 -11.21626 -11.21587 -11.21533 -11.21449
 Alpha  occ. eigenvalues --  -11.21387 -11.21337 -11.21248 -11.21150 -11.21090
 Alpha  occ. eigenvalues --  -11.21068 -11.21016  -1.08477  -1.08373  -1.03581
 Alpha  occ. eigenvalues --   -1.03489  -0.96039  -0.95930  -0.87057  -0.86952
 Alpha  occ. eigenvalues --   -0.79660  -0.79554  -0.78309  -0.78157  -0.65150
 Alpha  occ. eigenvalues --   -0.64977  -0.61046  -0.60834  -0.59406  -0.59298
 Alpha  occ. eigenvalues --   -0.57640  -0.57547  -0.55335  -0.55219  -0.52744
 Alpha  occ. eigenvalues --   -0.52647  -0.52456  -0.52354  -0.50034  -0.49852
 Alpha  occ. eigenvalues --   -0.48033  -0.47844  -0.46805  -0.46508  -0.45938
 Alpha  occ. eigenvalues --   -0.45772  -0.45705  -0.45359  -0.43820  -0.43732
 Alpha virt. eigenvalues --    0.21137   0.22959   0.23811   0.24499   0.25533
 Alpha virt. eigenvalues --    0.26647   0.27190   0.27489   0.27942   0.29500
 Alpha virt. eigenvalues --    0.29575   0.31526   0.31724   0.31929   0.32205

 Mulliken charges:
               1
     1  C   -0.297395
     2  C   -0.306898
     3  C   -0.475290
     4  H    0.149585
     5  H    0.149302
     6  H    0.157353
     7  H    0.152049
     8  H    0.155385
     9  H    0.155313
    10  H    0.159700
    11  C   -0.305484
    12  C   -0.299192
    13  C   -0.475743
    14  H    0.158981
    15  H    0.148814
    16  H    0.151706
    17  H    0.151477
    18  H    0.154931
    19  H    0.155363
    20  H    0.159911
    21  C   -0.298335
    22  C   -0.299716
    23  C   -0.475740
    24  H    0.149814
    25  H    0.149662
    26  H    0.152107
    27  H    0.151933
    28  H    0.155207
    29  H    0.155251
    30  H    0.160369
    31  C   -0.298564
    32  C   -0.300148
    33  C   -0.483940
    34  H    0.149400
    35  H    0.149614
    36  H    0.152354
    37  H    0.152204
    38  H    0.155055
    39  H    0.162824
    40  H    0.160781
 Sum of Mulliken charges =  -0.00000

 Dipole moment (field-independent basis, Debye):
    X=              0.0353    Y=             -0.0146    Z=              0.0057  Tot=              0.0386
 Quadrupole moment (field-independent basis, Debye-Ang):
   XX=            -85.5859   YY=            -85.2245   ZZ=            -84.0887
   XY=             -0.9369   XZ=             -0.5347   YZ=              0.9375

 Normal termination of Gaussian 16 at Thu May  6 02:15:42 2021.
