 Gaussian 16, Revision A.03,
 Gaussian 16:  EM64L-G16RevA.03 25-Dec-2016

 -------------
 #p 6-31g* mp2
 -------------

 ------------------------------------------------------
 Input file generated by CHIRIPA (05-May-2021 14:51:12)
 ------------------------------------------------------
 Symbolic Z-matrix:
 Charge =  0 Multiplicity = 1

                         Standard orientation:
 ---------------------------------------------------------------------
 Center     Atomic      Atomic             Coordinates (Angstroms)
 Number     Number       Type             X           Y           Z
 ---------------------------------------------------------------------
      1          6           0        3.713663   -0.236948    0.048860
      2          6           0        3.201688   -1.421064   -0.771955
      3          6           0        3.911591   -2.730553   -0.426887
      4          1           0        4.794000   -0.124498   -0.115975
      5          1           0        3.581666   -0.456118    1.117474
      6          1           0        3.333340   -1.199147   -1.838743
      7          1           0        2.122409   -1.530590   -0.605295
      8          1           0        3.769714   -2.978793    0.629924
      9          1           0        4.987525   -2.645468   -0.610532
     10          1           0        3.530137   -3.563789   -1.025278
     11          6           0        3.013617    1.079252   -0.284727
     12          6           0        3.525592    2.263368    0.536088
     13          6           0        2.815689    3.572857    0.191020
     14          1           0        3.145614    1.298422   -1.353341
     15          1           0        1.933280    0.966803   -0.119892
     16          1           0        4.604871    2.372894    0.369428
     17          1           0        3.393940    2.041452    1.602876
     18          1           0        1.739755    3.487772    0.374665
     19          1           0        2.957566    3.821097   -0.865791
     20          1           0        3.197143    4.406094    0.789411
     21          6           0       -2.608021   -0.511713    0.183289
     22          6           0       -2.200183   -1.927149    0.593405
     23          6           0       -0.685460   -2.092619    0.720010
     24          1           0       -2.129194   -0.261675   -0.773345
     25          1           0       -2.220734    0.202757    0.922841
     26          1           0       -2.589304   -2.638862   -0.145962
     27          1           0       -2.680190   -2.173919    1.549079
     28          1           0       -0.284362   -1.405329    1.471910
     29          1           0       -0.192961   -1.872915   -0.232762
     30          1           0       -0.416134   -3.111873    1.014028
     31          6           0       -4.119258   -0.330591    0.052578
     32          6           0       -4.527098    1.084845   -0.357538
     33          6           0       -6.041820    1.250315   -0.484143
     34          1           0       -4.506546   -1.045061   -0.686974
     35          1           0       -4.598087   -0.580630    1.009212
     36          1           0       -4.047090    1.331614   -1.313213
     37          1           0       -4.137976    1.796558    0.381829
     38          1           0       -6.534320    1.030611    0.468629
     39          1           0       -6.442918    0.563025   -1.236043
     40          1           0       -6.311146    2.269568   -0.778161
 ---------------------------------------------------------------------

 SCF Done:  E(RHF) =  -470.733250843     A.U. after   11 cycles
 E2 =    -0.1582731828D+01 EUMP2 =    -0.47231598267124D+03

 The electronic state is 1-A.
 Alpha  occ. eigenvalues --  -11.21662 -11.21626 -11.21563 -11.21473 -11.21450
 Alpha  occ. eigenvalues --  -11.21388 -11.21339 -11.21277 -11.21156 -11.21089
 Alpha  occ. eigenvalues --  -11.21042 -11.20992  -1.08476  -1.08362  -1.03583
 Alpha  occ. eigenvalues --   -1.03460  -0.96034  -0.95915  -0.87059  -0.86928
 Alpha  occ. eigenvalues --   -0.79681  -0.79500  -0.78300  -0.78163  -0.65114
 Alpha  occ. eigenvalues --   -0.64990  -0.61026  -0.60827  -0.59396  -0.59290
 Alpha  occ. eigenvalues --   -0.57645  -0.57524  -0.55348  -0.55182  -0.52726
 Alpha  occ. eigenvalues --   -0.52621  -0.52479  -0.52330  -0.50035  -0.49820
 Alpha  occ. eigenvalues --   -0.48072  -0.47779  -0.46768  -0.46455  -0.45925
 Alpha  occ. eigenvalues --   -0.45757  -0.45688  -0.45459  -0.43830  -0.43718
 Alpha virt. eigenvalues --    0.21578   0.22994   0.23935   0.24469   0.25805
 Alpha virt. eigenvalues --    0.26579   0.27195   0.27609   0.27997   0.29439
 Alpha virt. eigenvalues --    0.30303   0.31508   0.31795   0.31813   0.32148

 Mulliken charges:
               1
     1  C   -0.297334
     2  C   -0.308816
     3  C   -0.474962
     4  H    0.149193
     5  H    0.149334
     6  H    0.150770
     7  H    0.162229
     8  H    0.155221
     9  H    0.154668
    10  H    0.159676
    11  C   -0.299099
    12  C   -0.299547
    13  C   -0.475687
    14  H    0.149139
    15  H    0.150407
    16  H    0.151861
    17  H    0.151689
    18  H    0.155192
    19  H    0.155089
    20  H    0.160042
    21  C   -0.298552
    22  C   -0.299684
    23  C   -0.480113
    24  H    0.149962
    25  H    0.149180
    26  H    0.152326
    27  H    0.152161
    28  H    0.154857
    29  H    0.159101
    30  H    0.161148
    31  C   -0.298309
    32  C   -0.299722
    33  C   -0.475744
    34  H    0.149695
    35  H    0.149742
    36  H    0.152137
    37  H    0.151914
    38  H    0.155197
    39  H    0.155242
    40  H    0.160399
 Sum of Mulliken charges =  -0.00000

 Dipole moment (field-independent basis, Debye):
    X=             -0.0525    Y=             -0.0179    Z=              0.0042  Tot=              0.0557
 Quadrupole moment (field-independent basis, Debye-Ang):
   XX=            -85.7557   YY=            -85.8193   ZZ=            -83.3365
   XY=              0.8772   XZ=             -0.7187   YZ=              0.2876

 Normal termination of Gaussian 16 at Wed May  5 18:20:03 2021.
