 Gaussian 16, Revision A.03,
 Gaussian 16:  EM64L-G16RevA.03 25-Dec-2016

 -------------
 #p 6-31g* mp2
 -------------

 ------------------------------------------------------
 Input file generated by CHIRIPA (05-May-2021 14:55:19)
 ------------------------------------------------------
 Symbolic Z-matrix:
 Charge =  0 Multiplicity = 1

                         Standard orientation:
 ---------------------------------------------------------------------
 Center     Atomic      Atomic             Coordinates (Angstroms)
 Number     Number       Type             X           Y           Z
 ---------------------------------------------------------------------
      1          6           0       -0.942624    0.264317    1.821556
      2          6           0       -0.800436   -0.707204    0.825338
      3          6           0       -1.865051   -1.009162   -0.029041
      4          6           0       -3.063079   -0.317167    0.141725
      5          6           0       -3.235748    0.656009    1.124784
      6          6           0       -2.157684    0.941629    1.967842
      7          1           0       -0.110381    0.492540    2.480861
      8          1           0        0.142033   -1.234801    0.709417
      9          1           0       -1.782331   -1.756671   -0.808660
     10          1           0       -4.187495    1.165208    1.215957
     11          1           0       -2.270976    1.696608    2.740639
     12          7           0       -4.197259   -0.628188   -0.756776
     13          8           0       -5.242383   -0.004409   -0.585746
     14          8           0       -4.019628   -1.489856   -1.615037
     15          6           0        4.062620   -0.067540    0.150368
     16          6           0        5.238041   -0.851635   -0.434069
     17          6           0        5.990686   -1.662687    0.621164
     18          1           0        4.433149    0.604835    0.936222
     19          1           0        3.370508   -0.767521    0.638634
     20          1           0        5.927033   -0.150531   -0.922289
     21          1           0        4.864698   -1.522083   -1.218754
     22          1           0        5.322074   -2.384310    1.101601
     23          1           0        6.390445   -1.004966    1.399751
     24          1           0        6.826889   -2.215367    0.181657
     25          6           0        3.300331    0.748261   -0.892277
     26          6           0        2.124910    1.532356   -0.307841
     27          6           0        1.372266    2.343408   -1.363074
     28          1           0        3.992444    1.448242   -1.380544
     29          1           0        2.929802    0.075886   -1.678131
     30          1           0        2.498252    2.202804    0.476844
     31          1           0        1.435918    0.831253    0.180379
     32          1           0        0.972506    1.685687   -2.141660
     33          1           0        2.040878    3.065031   -1.843511
     34          1           0        0.536062    2.896089   -0.923567
 ---------------------------------------------------------------------

 SCF Done:  E(RHF) =  -669.534566363     A.U. after   15 cycles
 E2 =    -0.2093021149D+01 EUMP2 =    -0.67162758751226D+03

 The electronic state is 1-A.
 Alpha  occ. eigenvalues --  -20.60795 -20.60790 -15.85850 -11.31233 -11.27809
 Alpha  occ. eigenvalues --  -11.27806 -11.27543 -11.26824 -11.26812 -11.22212
 Alpha  occ. eigenvalues --  -11.22192 -11.22143 -11.22001 -11.21619 -11.21501
 Alpha  occ. eigenvalues --   -1.59870  -1.39423  -1.19416  -1.09096  -1.08803
 Alpha  occ. eigenvalues --   -1.04829  -1.04108  -0.96548  -0.95636  -0.87562
 Alpha  occ. eigenvalues --   -0.86232  -0.82466  -0.80196  -0.78932  -0.77510
 Alpha  occ. eigenvalues --   -0.72069  -0.71193  -0.70515  -0.65795  -0.65066
 Alpha  occ. eigenvalues --   -0.64806  -0.62198  -0.61487  -0.59921  -0.58173
 Alpha  occ. eigenvalues --   -0.55848  -0.55311  -0.53259  -0.53105  -0.52972
 Alpha  occ. eigenvalues --   -0.52914  -0.50489  -0.48832  -0.48822  -0.48495
 Alpha  occ. eigenvalues --   -0.47235  -0.46453  -0.46394  -0.44825  -0.44383
 Alpha  occ. eigenvalues --   -0.37323  -0.36395
 Alpha virt. eigenvalues --    0.05014   0.11086   0.16474   0.19687   0.22691
 Alpha virt. eigenvalues --    0.23913   0.24997   0.26389   0.27244   0.28051
 Alpha virt. eigenvalues --    0.29263   0.30755   0.31046   0.31561   0.31763

 Mulliken charges:
               1
     1  C   -0.167897
     2  C   -0.218888
     3  C   -0.172606
     4  C    0.158550
     5  C   -0.170673
     6  C   -0.219590
     7  H    0.227520
     8  H    0.224873
     9  H    0.275746
    10  H    0.275879
    11  H    0.223806
    12  N    0.488112
    13  O   -0.460258
    14  O   -0.460352
    15  C   -0.297426
    16  C   -0.299998
    17  C   -0.475937
    18  H    0.150512
    19  H    0.140041
    20  H    0.154584
    21  H    0.152953
    22  H    0.153749
    23  H    0.155666
    24  H    0.162773
    25  C   -0.298603
    26  C   -0.306174
    27  C   -0.474442
    28  H    0.152765
    29  H    0.149996
    30  H    0.149484
    31  H    0.150257
    32  H    0.157367
    33  H    0.156589
    34  H    0.161623
 Sum of Mulliken charges =  -0.00000

 Dipole moment (field-independent basis, Debye):
    X=              4.0228    Y=              1.1386    Z=              3.1198  Tot=              5.2166
 Quadrupole moment (field-independent basis, Debye-Ang):
   XX=           -117.7488   YY=            -93.3016   ZZ=            -93.5982
   XY=             -5.9870   XZ=            -11.2442   YZ=              1.5728

 Normal termination of Gaussian 16 at Thu May  6 17:24:49 2021.
