 Gaussian 16, Revision A.03,
 Gaussian 16:  EM64L-G16RevA.03 25-Dec-2016

 -------------
 #p 6-31g* mp2
 -------------

 ------------------------------------------------------
 Input file generated by CHIRIPA (05-May-2021 14:51:10)
 ------------------------------------------------------
 Symbolic Z-matrix:
 Charge =  0 Multiplicity = 1

                         Standard orientation:
 ---------------------------------------------------------------------
 Center     Atomic      Atomic             Coordinates (Angstroms)
 Number     Number       Type             X           Y           Z
 ---------------------------------------------------------------------
      1          6           0        4.177497    0.707087    0.158049
      2          6           0        3.701162    2.097119   -0.264918
      3          6           0        4.584140    3.217459    0.285519
      4          1           0        4.200435    0.652386    1.255057
      5          1           0        5.211601    0.561721   -0.183847
      6          1           0        2.667790    2.239290    0.076471
      7          1           0        3.679172    2.148454   -1.361046
      8          1           0        5.614803    3.103457   -0.065678
      9          1           0        4.597674    3.194808    1.380007
     10          1           0        4.225546    4.202516   -0.029020
     11          6           0        3.304902   -0.423404   -0.384441
     12          6           0        3.781237   -1.813436    0.038525
     13          6           0        2.898259   -2.933777   -0.511911
     14          1           0        2.270798   -0.278039   -0.042545
     15          1           0        3.281964   -0.368703   -1.481449
     16          1           0        3.803227   -1.864772    1.134653
     17          1           0        4.814609   -1.955608   -0.302863
     18          1           0        2.884725   -2.911126   -1.606400
     19          1           0        1.867596   -2.819774   -0.160715
     20          1           0        3.256853   -3.918833   -0.197373
     21          6           0       -4.125534    0.513701    0.035849
     22          6           0       -5.621788    0.314234   -0.207919
     23          6           0       -6.377076    1.634850   -0.360595
     24          1           0       -3.985745    1.124170    0.938473
     25          1           0       -3.698431    1.087097   -0.798535
     26          1           0       -6.045672   -0.259807    0.625998
     27          1           0       -5.758028   -0.295992   -1.109961
     28          1           0       -5.981494    2.209571   -1.204285
     29          1           0       -6.270772    2.245961    0.541537
     30          1           0       -7.444889    1.468898   -0.534070
     31          6           0       -3.356865   -0.797383    0.190544
     32          6           0       -1.860610   -0.597917    0.434311
     33          6           0       -1.105324   -1.918532    0.586988
     34          1           0       -3.783968   -1.370779    1.024927
     35          1           0       -3.496655   -1.407852   -0.712082
     36          1           0       -1.724371    0.012308    1.336354
     37          1           0       -1.436727   -0.023876   -0.399605
     38          1           0       -1.211627   -2.529643   -0.315144
     39          1           0       -1.500905   -2.493253    1.430677
     40          1           0       -0.037510   -1.752581    0.760463
 ---------------------------------------------------------------------

 SCF Done:  E(RHF) =  -470.733153011     A.U. after   11 cycles
 E2 =    -0.1582696353D+01 EUMP2 =    -0.47231584936367D+03

 The electronic state is 1-A.
 Alpha  occ. eigenvalues --  -11.21649 -11.21617 -11.21592 -11.21569 -11.21431
 Alpha  occ. eigenvalues --  -11.21396 -11.21371 -11.21337 -11.21126 -11.21083
 Alpha  occ. eigenvalues --  -11.21064 -11.20967  -1.08460  -1.08414  -1.03571
 Alpha  occ. eigenvalues --   -1.03497  -0.96030  -0.95939  -0.87060  -0.86945
 Alpha  occ. eigenvalues --   -0.79656  -0.79538  -0.78269  -0.78229  -0.65094
 Alpha  occ. eigenvalues --   -0.65051  -0.60989  -0.60915  -0.59453  -0.59256
 Alpha  occ. eigenvalues --   -0.57653  -0.57535  -0.55330  -0.55221  -0.52787
 Alpha  occ. eigenvalues --   -0.52640  -0.52442  -0.52321  -0.49988  -0.49846
 Alpha  occ. eigenvalues --   -0.47984  -0.47841  -0.46670  -0.46573  -0.45814
 Alpha  occ. eigenvalues --   -0.45763  -0.45734  -0.45691  -0.43784  -0.43746
 Alpha virt. eigenvalues --    0.20958   0.23047   0.23620   0.24874   0.26206
 Alpha virt. eigenvalues --    0.26654   0.27179   0.27225   0.28037   0.28989
 Alpha virt. eigenvalues --    0.30583   0.31316   0.31617   0.31780   0.31977

 Mulliken charges:
               1
     1  C   -0.298127
     2  C   -0.299736
     3  C   -0.475692
     4  H    0.149585
     5  H    0.149640
     6  H    0.152122
     7  H    0.151845
     8  H    0.155161
     9  H    0.155165
    10  H    0.160226
    11  C   -0.301227
    12  C   -0.299307
    13  C   -0.482668
    14  H    0.151390
    15  H    0.149727
    16  H    0.151448
    17  H    0.151869
    18  H    0.154628
    19  H    0.162925
    20  H    0.159953
    21  C   -0.298325
    22  C   -0.299671
    23  C   -0.475724
    24  H    0.149611
    25  H    0.149689
    26  H    0.151951
    27  H    0.152037
    28  H    0.155241
    29  H    0.155175
    30  H    0.160319
    31  C   -0.298637
    32  C   -0.299722
    33  C   -0.482384
    34  H    0.149634
    35  H    0.149957
    36  H    0.151625
    37  H    0.152693
    38  H    0.156471
    39  H    0.155642
    40  H    0.165489
 Sum of Mulliken charges =  -0.00000

 Dipole moment (field-independent basis, Debye):
    X=             -0.0389    Y=             -0.0006    Z=             -0.0004  Tot=              0.0389
 Quadrupole moment (field-independent basis, Debye-Ang):
   XX=            -85.2507   YY=            -86.4153   ZZ=            -83.1584
   XY=              0.1338   XZ=             -0.9191   YZ=             -0.1284

 Normal termination of Gaussian 16 at Wed May  5 15:11:51 2021.
