 Gaussian 16, Revision A.03,
 Gaussian 16:  EM64L-G16RevA.03 25-Dec-2016

 -------------
 #p 6-31g* mp2
 -------------

 ------------------------------------------------------
 Input file generated by CHIRIPA (05-May-2021 14:57:24)
 ------------------------------------------------------
 Symbolic Z-matrix:
 Charge =  0 Multiplicity = 1

                         Standard orientation:
 ---------------------------------------------------------------------
 Center     Atomic      Atomic             Coordinates (Angstroms)
 Number     Number       Type             X           Y           Z
 ---------------------------------------------------------------------
      1          6           0        5.633502   -0.633492   -0.241628
      2          6           0        5.104247    0.475106   -0.910523
      3          6           0        3.741369    0.773836   -0.821796
      4          6           0        2.932999   -0.061132   -0.051955
      5          6           0        3.430474   -1.172868    0.626169
      6          6           0        4.796402   -1.452497    0.523235
      7          1           0        6.693403   -0.858133   -0.316072
      8          1           0        5.751977    1.112911   -1.505247
      9          1           0        3.305312    1.625711   -1.329320
     10          1           0        2.759783   -1.790173    1.211427
     11          1           0        5.204669   -2.314115    1.043788
     12          7           0        1.488566    0.245009    0.049497
     13          8           0        0.797499   -0.506209    0.734138
     14          8           0        1.074839    1.230385   -0.557547
     15          6           0       -1.854906    2.028349    1.048315
     16          6           0       -2.314903    2.096997   -0.270856
     17          6           0       -3.045103    1.040897   -0.824039
     18          6           0       -3.298300   -0.073718   -0.026033
     19          6           0       -2.853534   -0.171866    1.291480
     20          6           0       -2.125214    0.896133    1.823905
     21          1           0       -1.288399    2.853374    1.469977
     22          1           0       -2.106470    2.975048   -0.875527
     23          1           0       -3.413165    1.067790   -1.842481
     24          1           0       -3.077019   -1.060249    1.869623
     25          1           0       -1.769227    0.840067    2.848686
     26          7           0       -4.070335   -1.198061   -0.600674
     27          8           0       -4.280140   -2.168981    0.123157
     28          8           0       -4.451033   -1.087112   -1.764031
 ---------------------------------------------------------------------

 SCF Done:  E(RHF) =  -868.337728802     A.U. after   16 cycles
 E2 =    -0.2601511694D+01 EUMP2 =    -0.87093924049678D+03

 The electronic state is 1-A.
 Alpha  occ. eigenvalues --  -20.61363 -20.61337 -20.59423 -20.59418 -15.86390
 Alpha  occ. eigenvalues --  -15.84463 -11.31635 -11.29418 -11.28199 -11.28175
 Alpha  occ. eigenvalues --  -11.27895 -11.27174 -11.27155 -11.25955 -11.25948
 Alpha  occ. eigenvalues --  -11.25613 -11.24910 -11.24900  -1.60419  -1.58505
 Alpha  occ. eigenvalues --   -1.39981  -1.38072  -1.19793  -1.17530  -1.09210
 Alpha  occ. eigenvalues --   -1.07015  -1.05177  -1.02911  -0.96066  -0.93936
 Alpha  occ. eigenvalues --   -0.86580  -0.84361  -0.82907  -0.80814  -0.77970
 Alpha  occ. eigenvalues --   -0.75904  -0.72622  -0.71745  -0.70897  -0.70707
 Alpha  occ. eigenvalues --   -0.69815  -0.68733  -0.65448  -0.65176  -0.63235
 Alpha  occ. eigenvalues --   -0.62999  -0.62527  -0.60338  -0.55686  -0.53518
 Alpha  occ. eigenvalues --   -0.53486  -0.53265  -0.51522  -0.51085  -0.49380
 Alpha  occ. eigenvalues --   -0.48991  -0.47472  -0.47421  -0.45417  -0.43572
 Alpha  occ. eigenvalues --   -0.37769  -0.36775  -0.35349  -0.34389
 Alpha virt. eigenvalues --    0.04536   0.06654   0.10881   0.13226   0.16083
 Alpha virt. eigenvalues --    0.18265   0.21048   0.23000   0.26959   0.27929
 Alpha virt. eigenvalues --    0.28860   0.29843   0.30621   0.32119   0.32478

 Mulliken charges:
               1
     1  C   -0.170270
     2  C   -0.218374
     3  C   -0.171079
     4  C    0.158317
     5  C   -0.170790
     6  C   -0.218378
     7  H    0.227175
     8  H    0.224387
     9  H    0.274118
    10  H    0.276134
    11  H    0.225151
    12  N    0.487678
    13  O   -0.457716
    14  O   -0.463367
    15  C   -0.157109
    16  C   -0.203124
    17  C   -0.174067
    18  C    0.157854
    19  C   -0.165449
    20  C   -0.203099
    21  H    0.217531
    22  H    0.216558
    23  H    0.268348
    24  H    0.268440
    25  H    0.214857
    26  N    0.488108
    27  O   -0.465680
    28  O   -0.466155
 Sum of Mulliken charges =  -0.00000

 Dipole moment (field-independent basis, Debye):
    X=              8.3152    Y=              2.9177    Z=              1.7302  Tot=              8.9805
 Quadrupole moment (field-independent basis, Debye-Ang):
   XX=            -95.3298   YY=           -101.9211   ZZ=           -100.4489
   XY=            -16.9013   XZ=             -8.3635   YZ=             -5.4884

 Normal termination of Gaussian 16 at Fri May  7 12:39:07 2021.
