 Gaussian 16, Revision A.03,
 Gaussian 16:  EM64L-G16RevA.03 25-Dec-2016

 -------------
 #p 6-31g* mp2
 -------------

 ------------------------------------------------------
 Input file generated by CHIRIPA (05-May-2021 14:51:10)
 ------------------------------------------------------
 Symbolic Z-matrix:
 Charge =  0 Multiplicity = 1

                         Standard orientation:
 ---------------------------------------------------------------------
 Center     Atomic      Atomic             Coordinates (Angstroms)
 Number     Number       Type             X           Y           Z
 ---------------------------------------------------------------------
      1          6           0        2.355676   -0.095393   -0.383118
      2          6           0        3.367784   -1.183488   -0.023016
      3          6           0        3.103423   -2.501317   -0.751874
      4          1           0        1.343966   -0.451261   -0.144902
      5          1           0        2.380076    0.073570   -1.468591
      6          1           0        3.342468   -1.349372    1.061630
      7          1           0        4.377218   -0.824915   -0.261940
      8          1           0        3.148832   -2.357642   -1.836261
      9          1           0        2.108202   -2.885080   -0.505171
     10          1           0        3.838595   -3.265083   -0.479764
     11          6           0        2.606759    1.227979    0.337555
     12          6           0        1.594651    2.316074   -0.022546
     13          6           0        1.859012    3.633903    0.706311
     14          1           0        2.582359    1.059017    1.423028
     15          1           0        3.618469    1.583847    0.099339
     16          1           0        0.585217    1.957501    0.216377
     17          1           0        1.619967    2.481958   -1.107192
     18          1           0        2.854233    4.017666    0.459609
     19          1           0        1.813603    3.490228    1.790699
     20          1           0        1.123840    4.397670    0.434201
     21          6           0       -2.924699    0.027267    0.208368
     22          6           0       -2.842132    1.181690   -0.790869
     23          6           0       -3.734927    2.361741   -0.405911
     24          1           0       -3.967614   -0.309631    0.284354
     25          1           0       -2.641007    0.393094    1.204904
     26          1           0       -3.124563    0.813471   -1.785486
     27          1           0       -1.799263    1.515753   -0.864627
     28          1           0       -3.450193    2.756384    0.574795
     29          1           0       -4.783024    2.050112   -0.351296
     30          1           0       -3.660487    3.175687   -1.133792
     31          6           0       -2.037736   -1.159853   -0.162806
     32          6           0       -2.120302   -2.314277    0.836432
     33          6           0       -1.227508   -3.494328    0.451474
     34          1           0       -2.321428   -1.525681   -1.159341
     35          1           0       -0.994822   -0.822955   -0.238791
     36          1           0       -3.163173   -2.648339    0.910190
     37          1           0       -1.837873   -1.946057    1.831049
     38          1           0       -0.179412   -3.182697    0.396858
     39          1           0       -1.512241   -3.888970   -0.529232
     40          1           0       -1.301948   -4.308273    1.179354
 ---------------------------------------------------------------------

 SCF Done:  E(RHF) =  -470.732836014     A.U. after   11 cycles
 E2 =    -0.1584801318D+01 EUMP2 =    -0.47231763733190D+03

 The electronic state is 1-A.
 Alpha  occ. eigenvalues --  -11.21676 -11.21638 -11.21637 -11.21579 -11.21461
 Alpha  occ. eigenvalues --  -11.21412 -11.21399 -11.21352 -11.21124 -11.21116
 Alpha  occ. eigenvalues --  -11.21074 -11.21064  -1.08508  -1.08432  -1.03595
 Alpha  occ. eigenvalues --   -1.03532  -0.96046  -0.95978  -0.87075  -0.86982
 Alpha  occ. eigenvalues --   -0.79713  -0.79541  -0.78450  -0.78130  -0.65343
 Alpha  occ. eigenvalues --   -0.64880  -0.61164  -0.60786  -0.59428  -0.59318
 Alpha  occ. eigenvalues --   -0.57743  -0.57527  -0.55514  -0.55113  -0.52722
 Alpha  occ. eigenvalues --   -0.52683  -0.52581  -0.52292  -0.50165  -0.49708
 Alpha  occ. eigenvalues --   -0.48191  -0.47773  -0.46897  -0.46540  -0.46361
 Alpha  occ. eigenvalues --   -0.45791  -0.45759  -0.44998  -0.43832  -0.43794
 Alpha virt. eigenvalues --    0.19635   0.21720   0.23776   0.24885   0.25190
 Alpha virt. eigenvalues --    0.26311   0.26943   0.27148   0.28686   0.29473
 Alpha virt. eigenvalues --    0.31223   0.31329   0.31699   0.31810   0.31864

 Mulliken charges:
               1
     1  C   -0.308488
     2  C   -0.298769
     3  C   -0.482305
     4  H    0.158002
     5  H    0.150012
     6  H    0.151590
     7  H    0.152283
     8  H    0.155588
     9  H    0.161152
    10  H    0.160641
    11  C   -0.297499
    12  C   -0.305147
    13  C   -0.475610
    14  H    0.149264
    15  H    0.150224
    16  H    0.155897
    17  H    0.152439
    18  H    0.155574
    19  H    0.155141
    20  H    0.160667
    21  C   -0.297341
    22  C   -0.305315
    23  C   -0.475466
    24  H    0.149845
    25  H    0.148698
    26  H    0.152062
    27  H    0.157433
    28  H    0.154950
    29  H    0.155129
    30  H    0.160277
    31  C   -0.308872
    32  C   -0.298870
    33  C   -0.482498
    34  H    0.150055
    35  H    0.158631
    36  H    0.152376
    37  H    0.151301
    38  H    0.160205
    39  H    0.155973
    40  H    0.160771
 Sum of Mulliken charges =  -0.00000

 Dipole moment (field-independent basis, Debye):
    X=              0.0187    Y=              0.0027    Z=             -0.0178  Tot=              0.0260
 Quadrupole moment (field-independent basis, Debye-Ang):
   XX=            -84.1767   YY=            -86.3666   ZZ=            -84.1166
   XY=              1.0470   XZ=              0.0124   YZ=             -0.5990

 Normal termination of Gaussian 16 at Thu May  6 06:56:54 2021.
