 Gaussian 16, Revision A.03,
 Gaussian 16:  EM64L-G16RevA.03 25-Dec-2016

 -------------
 #p 6-31g* mp2
 -------------

 ------------------------------------------------------
 Input file generated by CHIRIPA (05-May-2021 14:57:21)
 ------------------------------------------------------
 Symbolic Z-matrix:
 Charge =  0 Multiplicity = 1

                         Standard orientation:
 ---------------------------------------------------------------------
 Center     Atomic      Atomic             Coordinates (Angstroms)
 Number     Number       Type             X           Y           Z
 ---------------------------------------------------------------------
      1          6           0        4.174013   -1.817596   -0.799812
      2          6           0        4.325269   -1.551370    0.565019
      3          6           0        3.655752   -0.476366    1.157185
      4          6           0        2.839278    0.315475    0.351178
      5          6           0        2.668222    0.075856   -1.011398
      6          6           0        3.347429   -1.004567   -1.582286
      7          1           0        4.697873   -2.654790   -1.251557
      8          1           0        4.966551   -2.181096    1.175141
      9          1           0        3.754890   -0.247649    2.211357
     10          1           0        2.022070    0.721335   -1.593859
     11          1           0        3.228078   -1.208952   -2.642487
     12          7           0        2.125361    1.456402    0.966814
     13          8           0        1.411864    2.139039    0.234991
     14          8           0        2.292808    1.646420    2.169516
     15          6           0       -1.347383    1.210100   -1.659056
     16          6           0       -1.082471   -0.134593   -1.379516
     17          6           0       -1.967253   -0.885349   -0.599724
     18          6           0       -3.112546   -0.256744   -0.113464
     19          6           0       -3.404283    1.081163   -0.374584
     20          6           0       -2.505402    1.812624   -1.156585
     21          1           0       -0.654587    1.785812   -2.265676
     22          1           0       -0.183922   -0.605137   -1.768414
     23          1           0       -1.786696   -1.927993   -0.367965
     24          1           0       -4.308256    1.522649    0.027088
     25          1           0       -2.713708    2.856760   -1.372071
     26          7           0       -4.056688   -1.041323    0.713236
     27          8           0       -5.058723   -0.464240    1.129813
     28          8           0       -3.776793   -2.218504    0.928973
 ---------------------------------------------------------------------

 SCF Done:  E(RHF) =  -868.336985916     A.U. after   16 cycles
 E2 =    -0.2601947523D+01 EUMP2 =    -0.87093893343890D+03

 The electronic state is 1-A.
 Alpha  occ. eigenvalues --  -20.61462 -20.61455 -20.60365 -20.60352 -15.86505
 Alpha  occ. eigenvalues --  -15.85416 -11.31962 -11.30671 -11.28637 -11.28459
 Alpha  occ. eigenvalues --  -11.28227 -11.27609 -11.27473 -11.27326 -11.27239
 Alpha  occ. eigenvalues --  -11.27005 -11.26312 -11.26167  -1.60517  -1.59439
 Alpha  occ. eigenvalues --   -1.40076  -1.38996  -1.20132  -1.18854  -1.09487
 Alpha  occ. eigenvalues --   -1.08262  -1.05563  -1.04268  -0.96326  -0.95114
 Alpha  occ. eigenvalues --   -0.86945  -0.85682  -0.83170  -0.81964  -0.78225
 Alpha  occ. eigenvalues --   -0.77033  -0.72746  -0.71834  -0.71643  -0.71233
 Alpha  occ. eigenvalues --   -0.70759  -0.69970  -0.65782  -0.65574  -0.64528
 Alpha  occ. eigenvalues --   -0.64340  -0.62891  -0.61627  -0.56005  -0.54778
 Alpha  occ. eigenvalues --   -0.53870  -0.53647  -0.52556  -0.52358  -0.49508
 Alpha  occ. eigenvalues --   -0.49466  -0.48398  -0.48388  -0.45463  -0.44428
 Alpha  occ. eigenvalues --   -0.38077  -0.37191  -0.36700  -0.35839
 Alpha virt. eigenvalues --    0.04278   0.05566   0.10354   0.11893   0.15707
 Alpha virt. eigenvalues --    0.17067   0.19594   0.22132   0.25683   0.26945
 Alpha virt. eigenvalues --    0.27782   0.29130   0.30475   0.31216   0.32453

 Mulliken charges:
               1
     1  C   -0.169901
     2  C   -0.217564
     3  C   -0.169511
     4  C    0.160406
     5  C   -0.174082
     6  C   -0.221587
     7  H    0.228700
     8  H    0.227303
     9  H    0.279052
    10  H    0.267714
    11  H    0.223338
    12  N    0.489789
    13  O   -0.464969
    14  O   -0.455473
    15  C   -0.152742
    16  C   -0.221594
    17  C   -0.172217
    18  C    0.158007
    19  C   -0.169515
    20  C   -0.217103
    21  H    0.223489
    22  H    0.212258
    23  H    0.272330
    24  H    0.275039
    25  H    0.224548
    26  N    0.488401
    27  O   -0.460776
    28  O   -0.463341
 Sum of Mulliken charges =  -0.00000

 Dipole moment (field-independent basis, Debye):
    X=              6.0734    Y=             -1.1157    Z=             -4.8667  Tot=              7.8623
 Quadrupole moment (field-independent basis, Debye-Ang):
   XX=           -109.0948   YY=           -105.9455   ZZ=           -102.6898
   XY=            -24.3526   XZ=              5.6079   YZ=             -2.4858

 Normal termination of Gaussian 16 at Thu May  6 12:51:43 2021.
