 Gaussian 16, Revision A.03,
 Gaussian 16:  EM64L-G16RevA.03 25-Dec-2016

 -------------
 #p 6-31g* mp2
 -------------

 ------------------------------------------------------
 Input file generated by CHIRIPA (05-May-2021 14:51:09)
 ------------------------------------------------------
 Symbolic Z-matrix:
 Charge =  0 Multiplicity = 1

                         Standard orientation:
 ---------------------------------------------------------------------
 Center     Atomic      Atomic             Coordinates (Angstroms)
 Number     Number       Type             X           Y           Z
 ---------------------------------------------------------------------
      1          6           0       -2.483530    1.120495    0.425484
      2          6           0       -1.907781    2.474807    0.010349
      3          6           0       -1.748249    3.435680    1.188935
      4          1           0       -3.458095    1.275948    0.908187
      5          1           0       -1.828343    0.667918    1.182650
      6          1           0       -2.563123    2.924070   -0.746820
      7          1           0       -0.934560    2.316096   -0.471594
      8          1           0       -1.077506    3.011956    1.943364
      9          1           0       -2.715322    3.623385    1.666573
     10          1           0       -1.335184    4.397592    0.869621
     11          6           0       -2.648926    0.149019   -0.741824
     12          6           0       -3.224675   -1.205292   -0.326688
     13          6           0       -3.384207   -2.166166   -1.505275
     14          1           0       -3.304113    0.601596   -1.498990
     15          1           0       -1.674360   -0.006434   -1.224526
     16          1           0       -4.197895   -1.046582    0.155254
     17          1           0       -2.569333   -1.654556    0.430481
     18          1           0       -2.417134   -2.353871   -1.982913
     19          1           0       -4.054950   -1.742442   -2.259704
     20          1           0       -3.797271   -3.128078   -1.185961
     21          6           0        3.208516   -0.442346   -0.207721
     22          6           0        3.337866    1.060852   -0.456010
     23          6           0        4.627960    1.430106   -1.188883
     24          1           0        4.074111   -0.787221    0.374303
     25          1           0        3.248559   -0.970700   -1.170340
     26          1           0        3.296201    1.586314    0.506679
     27          1           0        2.471765    1.402223   -1.037348
     28          1           0        4.673821    0.932098   -2.162786
     29          1           0        5.502940    1.117234   -0.609985
     30          1           0        4.699935    2.509344   -1.355988
     31          6           0        1.923940   -0.827168    0.524061
     32          6           0        1.794590   -2.330366    0.772350
     33          6           0        0.504496   -2.699619    1.505223
     34          1           0        1.883897   -0.298814    1.486679
     35          1           0        1.058346   -0.482294   -0.057964
     36          1           0        2.660690   -2.671737    1.353687
     37          1           0        1.836255   -2.855827   -0.190339
     38          1           0       -0.370484   -2.386748    0.926325
     39          1           0        0.458635   -2.201612    2.479124
     40          1           0        0.432521   -3.778858    1.672328
 ---------------------------------------------------------------------

 SCF Done:  E(RHF) =  -470.733420473     A.U. after   11 cycles
 E2 =    -0.1583707424D+01 EUMP2 =    -0.47231712789741D+03

 The electronic state is 1-A.
 Alpha  occ. eigenvalues --  -11.21673 -11.21658 -11.21594 -11.21584 -11.21484
 Alpha  occ. eigenvalues --  -11.21419 -11.21410 -11.21336 -11.21129 -11.21109
 Alpha  occ. eigenvalues --  -11.21088 -11.21047  -1.08505  -1.08423  -1.03597
 Alpha  occ. eigenvalues --   -1.03521  -0.96044  -0.95972  -0.87064  -0.86987
 Alpha  occ. eigenvalues --   -0.79674  -0.79573  -0.78316  -0.78239  -0.65263
 Alpha  occ. eigenvalues --   -0.64947  -0.61121  -0.60810  -0.59405  -0.59343
 Alpha  occ. eigenvalues --   -0.57651  -0.57583  -0.55406  -0.55195  -0.52730
 Alpha  occ. eigenvalues --   -0.52672  -0.52490  -0.52379  -0.50058  -0.49868
 Alpha  occ. eigenvalues --   -0.48062  -0.47838  -0.46776  -0.46528  -0.46029
 Alpha  occ. eigenvalues --   -0.45825  -0.45642  -0.45527  -0.43848  -0.43779
 Alpha virt. eigenvalues --    0.19115   0.22674   0.23723   0.24767   0.25296
 Alpha virt. eigenvalues --    0.26123   0.27069   0.27768   0.28839   0.29765
 Alpha virt. eigenvalues --    0.30615   0.31310   0.31685   0.31737   0.32155

 Mulliken charges:
               1
     1  C   -0.299245
     2  C   -0.300199
     3  C   -0.475604
     4  H    0.149645
     5  H    0.151423
     6  H    0.151688
     7  H    0.152284
     8  H    0.155482
     9  H    0.155006
    10  H    0.160162
    11  C   -0.299897
    12  C   -0.306777
    13  C   -0.475636
    14  H    0.149806
    15  H    0.149746
    16  H    0.152632
    17  H    0.158238
    18  H    0.154528
    19  H    0.155390
    20  H    0.160612
    21  C   -0.298319
    22  C   -0.300062
    23  C   -0.475759
    24  H    0.150111
    25  H    0.149710
    26  H    0.152196
    27  H    0.151808
    28  H    0.155313
    29  H    0.155346
    30  H    0.160539
    31  C   -0.301547
    32  C   -0.299239
    33  C   -0.483488
    34  H    0.149570
    35  H    0.151616
    36  H    0.152437
    37  H    0.152059
    38  H    0.162198
    39  H    0.155229
    40  H    0.160993
 Sum of Mulliken charges =  -0.00000

 Dipole moment (field-independent basis, Debye):
    X=              0.0168    Y=             -0.0118    Z=              0.0161  Tot=              0.0261
 Quadrupole moment (field-independent basis, Debye-Ang):
   XX=            -84.3610   YY=            -85.4569   ZZ=            -84.7858
   XY=             -0.7875   XZ=              0.8990   YZ=             -0.3529

 Normal termination of Gaussian 16 at Thu May  6 06:53:36 2021.
