 Gaussian 16, Revision A.03,
 Gaussian 16:  EM64L-G16RevA.03 25-Dec-2016

 -------------
 #p 6-31g* mp2
 -------------

 ------------------------------------------------------
 Input file generated by CHIRIPA (05-May-2021 14:53:18)
 ------------------------------------------------------
 Symbolic Z-matrix:
 Charge =  0 Multiplicity = 1

                         Standard orientation:
 ---------------------------------------------------------------------
 Center     Atomic      Atomic             Coordinates (Angstroms)
 Number     Number       Type             X           Y           Z
 ---------------------------------------------------------------------
      1          6           0       -5.461778   -0.195556    0.326574
      2          6           0       -6.069393   -1.109139   -0.738393
      3          6           0       -7.396757   -1.727893   -0.299027
      4          1           0       -5.312066   -0.769796    1.251117
      5          1           0       -6.177741    0.602608    0.566838
      6          1           0       -5.351940   -1.904543   -0.977580
      7          1           0       -6.217499   -0.532706   -1.660568
      8          1           0       -8.131845   -0.946889   -0.079300
      9          1           0       -7.261368   -2.326520    0.607569
     10          1           0       -7.813439   -2.377263   -1.075272
     11          6           0       -4.134542    0.430510   -0.097942
     12          6           0       -3.526927    1.344093    0.967025
     13          6           0       -2.199563    1.962847    0.527659
     14          1           0       -3.418580   -0.367654   -0.338207
     15          1           0       -4.284255    1.004750   -1.022486
     16          1           0       -3.378822    0.767661    1.889199
     17          1           0       -4.244380    2.139497    1.206211
     18          1           0       -2.334952    2.561474   -0.378937
     19          1           0       -1.464476    1.181843    0.307932
     20          1           0       -1.782881    2.612217    1.303903
     21          6           0        1.890568    1.569454   -0.481843
     22          6           0        3.225214    1.971328   -0.599044
     23          6           0        4.262819    1.059414   -0.383787
     24          6           0        3.928186   -0.252381   -0.051361
     25          6           0        2.608251   -0.683216    0.072903
     26          6           0        1.586881    0.245797   -0.146834
     27          1           0        1.090836    2.284492   -0.650800
     28          1           0        3.464026    2.998650   -0.859090
     29          1           0        5.304710    1.343675   -0.467906
     30          1           0        2.401437   -1.714120    0.333448
     31          1           0        0.551284   -0.069118   -0.055122
     32          7           0        5.018059   -1.226835    0.178895
     33          8           0        4.696868   -2.376771    0.470650
     34          8           0        6.172855   -0.822226    0.063252
 ---------------------------------------------------------------------

 SCF Done:  E(RHF) =  -669.535441304     A.U. after   15 cycles
 E2 =    -0.2091072874D+01 EUMP2 =    -0.67162651417707D+03

 The electronic state is 1-A.
 Alpha  occ. eigenvalues --  -20.60718 -20.60713 -15.85771 -11.31121 -11.27696
 Alpha  occ. eigenvalues --  -11.27692 -11.27402 -11.26697 -11.26682 -11.22533
 Alpha  occ. eigenvalues --  -11.22351 -11.22181 -11.22104 -11.21976 -11.21472
 Alpha  occ. eigenvalues --   -1.59794  -1.39348  -1.19293  -1.09161  -1.08686
 Alpha  occ. eigenvalues --   -1.04700  -1.04288  -0.96765  -0.95522  -0.87792
 Alpha  occ. eigenvalues --   -0.86096  -0.82359  -0.80368  -0.78934  -0.77416
 Alpha  occ. eigenvalues --   -0.71990  -0.71117  -0.70386  -0.65804  -0.64945
 Alpha  occ. eigenvalues --   -0.64732  -0.62113  -0.61635  -0.60140  -0.58342
 Alpha  occ. eigenvalues --   -0.56068  -0.55180  -0.53456  -0.53225  -0.53022
 Alpha  occ. eigenvalues --   -0.52766  -0.50699  -0.48762  -0.48746  -0.48656
 Alpha  occ. eigenvalues --   -0.47379  -0.46485  -0.46382  -0.44757  -0.44523
 Alpha  occ. eigenvalues --   -0.37263  -0.36305
 Alpha virt. eigenvalues --    0.05127   0.11336   0.16622   0.19697   0.22332
 Alpha virt. eigenvalues --    0.23705   0.25190   0.25959   0.26821   0.27570
 Alpha virt. eigenvalues --    0.29022   0.29477   0.30857   0.31565   0.31781

 Mulliken charges:
               1
     1  C   -0.298955
     2  C   -0.300159
     3  C   -0.476143
     4  H    0.150983
     5  H    0.151066
     6  H    0.152236
     7  H    0.152468
     8  H    0.155868
     9  H    0.156078
    10  H    0.161853
    11  C   -0.298369
    12  C   -0.300101
    13  C   -0.481896
    14  H    0.146574
    15  H    0.150744
    16  H    0.154868
    17  H    0.155994
    18  H    0.156409
    19  H    0.147091
    20  H    0.164178
    21  C   -0.173254
    22  C   -0.218903
    23  C   -0.171035
    24  C    0.158572
    25  C   -0.171319
    26  C   -0.222507
    27  H    0.229633
    28  H    0.223237
    29  H    0.275337
    30  H    0.275426
    31  H    0.227319
    32  N    0.487990
    33  O   -0.460679
    34  O   -0.460604
 Sum of Mulliken charges =  -0.00000

 Dipole moment (field-independent basis, Debye):
    X=             -4.0917    Y=              3.4715    Z=             -0.7803  Tot=              5.4224
 Quadrupole moment (field-independent basis, Debye-Ang):
   XX=           -122.7420   YY=            -93.7732   ZZ=            -95.1923
   XY=             16.4175   XZ=             -3.5008   YZ=             -0.9551

 Normal termination of Gaussian 16 at Thu May  6 01:13:48 2021.
