 Gaussian 16, Revision A.03,
 Gaussian 16:  EM64L-G16RevA.03 25-Dec-2016

 -------------
 #p 6-31g* mp2
 -------------

 ------------------------------------------------------
 Input file generated by CHIRIPA (05-May-2021 14:57:27)
 ------------------------------------------------------
 Symbolic Z-matrix:
 Charge =  0 Multiplicity = 1

                         Standard orientation:
 ---------------------------------------------------------------------
 Center     Atomic      Atomic             Coordinates (Angstroms)
 Number     Number       Type             X           Y           Z
 ---------------------------------------------------------------------
      1          6           0        1.005384   -2.042296   -0.071019
      2          6           0        2.110387   -2.167898   -0.919377
      3          6           0        3.145111   -1.228510   -0.881359
      4          6           0        3.041799   -0.171260    0.021325
      5          6           0        1.953765   -0.018761    0.879356
      6          6           0        0.930731   -0.970019    0.824062
      7          1           0        0.206126   -2.776646   -0.107262
      8          1           0        2.171040   -2.999617   -1.615516
      9          1           0        4.011958   -1.301607   -1.526844
     10          1           0        1.921502    0.821142    1.562686
     11          1           0        0.073764   -0.869945    1.484091
     12          7           0        4.131027    0.829511    0.070717
     13          8           0        4.016202    1.751827    0.874946
     14          8           0        5.078964    0.672648   -0.695733
     15          6           0       -3.277508   -2.104222    0.474515
     16          6           0       -2.767380   -1.267799    1.472856
     17          6           0       -2.533395    0.085982    1.213863
     18          6           0       -2.822138    0.572130   -0.060333
     19          6           0       -3.331078   -0.235888   -1.075901
     20          6           0       -3.557235   -1.586511   -0.794440
     21          1           0       -3.456233   -3.154645    0.684434
     22          1           0       -2.549211   -1.667118    2.459260
     23          1           0       -2.139077    0.755865    1.968309
     24          1           0       -3.538772    0.191079   -2.049543
     25          1           0       -3.953471   -2.233745   -1.571698
     26          7           0       -2.578573    2.003646   -0.346411
     27          8           0       -2.841218    2.407538   -1.477130
     28          8           0       -2.129631    2.694668    0.565498
 ---------------------------------------------------------------------

 SCF Done:  E(RHF) =  -868.335695986     A.U. after   16 cycles
 E2 =    -0.2602871624D+01 EUMP2 =    -0.87093856760981D+03

 The electronic state is 1-A.
 Alpha  occ. eigenvalues --  -20.61446 -20.61437 -20.60603 -20.60587 -15.86510
 Alpha  occ. eigenvalues --  -15.85653 -11.32166 -11.31097 -11.28816 -11.28726
 Alpha  occ. eigenvalues --  -11.28590 -11.27895 -11.27804 -11.27694 -11.27651
 Alpha  occ. eigenvalues --  -11.27474 -11.26752 -11.26642  -1.60512  -1.59671
 Alpha  occ. eigenvalues --   -1.40059  -1.39222  -1.20393  -1.19285  -1.09721
 Alpha  occ. eigenvalues --   -1.08675  -1.05858  -1.04701  -0.96505  -0.95492
 Alpha  occ. eigenvalues --   -0.87207  -0.86112  -0.83341  -0.82327  -0.78333
 Alpha  occ. eigenvalues --   -0.77356  -0.72721  -0.71874  -0.71837  -0.71479
 Alpha  occ. eigenvalues --   -0.70993  -0.70417  -0.66042  -0.65819  -0.64941
 Alpha  occ. eigenvalues --   -0.64783  -0.63165  -0.62073  -0.56306  -0.55237
 Alpha  occ. eigenvalues --   -0.54260  -0.53908  -0.53006  -0.52687  -0.49500
 Alpha  occ. eigenvalues --   -0.49460  -0.48640  -0.48620  -0.45401  -0.44610
 Alpha  occ. eigenvalues --   -0.38399  -0.37510  -0.37218  -0.36242
 Alpha virt. eigenvalues --    0.04168   0.05185   0.10059   0.11401   0.15467
 Alpha virt. eigenvalues --    0.16654   0.19901   0.21844   0.25544   0.26973
 Alpha virt. eigenvalues --    0.28196   0.28580   0.29869   0.31324   0.32030

 Mulliken charges:
               1
     1  C   -0.172985
     2  C   -0.218658
     3  C   -0.170804
     4  C    0.159290
     5  C   -0.171210
     6  C   -0.217329
     7  H    0.219937
     8  H    0.221375
     9  H    0.275567
    10  H    0.278088
    11  H    0.220052
    12  N    0.488119
    13  O   -0.458156
    14  O   -0.461056
    15  C   -0.175445
    16  C   -0.227068
    17  C   -0.177861
    18  C    0.165003
    19  C   -0.168755
    20  C   -0.219028
    21  H    0.227723
    22  H    0.225538
    23  H    0.277137
    24  H    0.279854
    25  H    0.226761
    26  N    0.488173
    27  O   -0.456146
    28  O   -0.458115
 Sum of Mulliken charges =  -0.00000

 Dipole moment (field-independent basis, Debye):
    X=             -4.9193    Y=             -8.3427    Z=              0.6844  Tot=              9.7092
 Quadrupole moment (field-independent basis, Debye-Ang):
   XX=           -122.1509   YY=           -109.2840   ZZ=            -98.4165
   XY=              2.6738   XZ=             -3.3017   YZ=              3.7017

 Normal termination of Gaussian 16 at Fri May  7 12:46:35 2021.
