 Gaussian 16, Revision A.03,
 Gaussian 16:  EM64L-G16RevA.03 25-Dec-2016

 -------------
 #p 6-31g* mp2
 -------------

 ------------------------------------------------------
 Input file generated by CHIRIPA (05-May-2021 14:55:19)
 ------------------------------------------------------
 Symbolic Z-matrix:
 Charge =  0 Multiplicity = 1

                         Standard orientation:
 ---------------------------------------------------------------------
 Center     Atomic      Atomic             Coordinates (Angstroms)
 Number     Number       Type             X           Y           Z
 ---------------------------------------------------------------------
      1          6           0       -4.504871    1.272185   -0.568886
      2          6           0       -3.831831    0.514010   -1.532581
      3          6           0       -2.740321   -0.282626   -1.174078
      4          6           0       -2.346987   -0.297480    0.163217
      5          6           0       -2.997111    0.446687    1.146499
      6          6           0       -4.086101    1.236167    0.765227
      7          1           0       -5.351804    1.888252   -0.856223
      8          1           0       -4.154843    0.540037   -2.569418
      9          1           0       -2.201238   -0.879481   -1.899731
     10          1           0       -2.651827    0.400246    2.172189
     11          1           0       -4.606902    1.823938    1.515784
     12          7           0       -1.192787   -1.137055    0.554800
     13          8           0       -0.865921   -1.132837    1.739612
     14          8           0       -0.636847   -1.783435   -0.330502
     15          6           0        3.291110    0.849350    0.279428
     16          6           0        3.595786    2.081713   -0.572887
     17          6           0        3.679637    3.365683    0.253057
     18          1           0        2.343976    1.005895    0.813632
     19          1           0        4.069281    0.742023    1.047755
     20          1           0        2.818023    2.185893   -1.340251
     21          1           0        4.542209    1.922138   -1.105273
     22          1           0        4.467997    3.286911    1.008625
     23          1           0        2.734015    3.552164    0.772311
     24          1           0        3.898233    4.234179   -0.376062
     25          6           0        3.204154   -0.442034   -0.532047
     26          6           0        2.899478   -1.674397    0.320269
     27          6           0        2.815627   -2.958367   -0.505675
     28          1           0        2.425983   -0.334707   -1.300373
     29          1           0        4.151289   -0.598579   -1.066251
     30          1           0        1.953054   -1.514821    0.852654
     31          1           0        3.677241   -1.778576    1.087632
     32          1           0        3.761249   -3.144847   -1.024930
     33          1           0        2.027266   -2.879594   -1.261244
     34          1           0        2.597032   -3.826862    0.123444
 ---------------------------------------------------------------------

 SCF Done:  E(RHF) =  -669.536838594     A.U. after   15 cycles
 E2 =    -0.2092665481D+01 EUMP2 =    -0.67162950407455D+03

 The electronic state is 1-A.
 Alpha  occ. eigenvalues --  -20.61205 -20.61191 -15.86185 -11.31436 -11.27983
 Alpha  occ. eigenvalues --  -11.27979 -11.27704 -11.26969 -11.26959 -11.20919
 Alpha  occ. eigenvalues --  -11.20567 -11.20393 -11.20064 -11.19677 -11.19256
 Alpha  occ. eigenvalues --   -1.60230  -1.39787  -1.19591  -1.09010  -1.07266
 Alpha  occ. eigenvalues --   -1.04972  -1.02282  -0.95863  -0.94788  -0.86377
 Alpha  occ. eigenvalues --   -0.85825  -0.82700  -0.78455  -0.77768  -0.76957
 Alpha  occ. eigenvalues --   -0.72397  -0.71540  -0.70697  -0.65246  -0.64979
 Alpha  occ. eigenvalues --   -0.63896  -0.62319  -0.59664  -0.58258  -0.56364
 Alpha  occ. eigenvalues --   -0.55479  -0.54090  -0.53308  -0.53061  -0.51519
 Alpha  occ. eigenvalues --   -0.51216  -0.49183  -0.49153  -0.48756  -0.46727
 Alpha  occ. eigenvalues --   -0.45493  -0.45212  -0.44512  -0.44269  -0.42568
 Alpha  occ. eigenvalues --   -0.37562  -0.36569
 Alpha virt. eigenvalues --    0.04726   0.11088   0.16233   0.21215   0.23887
 Alpha virt. eigenvalues --    0.25664   0.27157   0.27654   0.28259   0.28613
 Alpha virt. eigenvalues --    0.29113   0.30829   0.32275   0.32635   0.32825

 Mulliken charges:
               1
     1  C   -0.170228
     2  C   -0.218583
     3  C   -0.170682
     4  C    0.159874
     5  C   -0.170536
     6  C   -0.218611
     7  H    0.226597
     8  H    0.224401
     9  H    0.275929
    10  H    0.276208
    11  H    0.224400
    12  N    0.489276
    13  O   -0.458743
    14  O   -0.459770
    15  C   -0.297600
    16  C   -0.298280
    17  C   -0.474621
    18  H    0.149916
    19  H    0.147911
    20  H    0.148248
    21  H    0.150529
    22  H    0.154948
    23  H    0.152904
    24  H    0.156809
    25  C   -0.298264
    26  C   -0.305361
    27  C   -0.472640
    28  H    0.148455
    29  H    0.143331
    30  H    0.177928
    31  H    0.141989
    32  H    0.142410
    33  H    0.163939
    34  H    0.157919
 Sum of Mulliken charges =  -0.00000

 Dipole moment (field-independent basis, Debye):
    X=             -4.5489    Y=              2.8710    Z=             -1.3051  Tot=              5.5352
 Quadrupole moment (field-independent basis, Debye-Ang):
   XX=            -76.4989   YY=            -98.3586   ZZ=            -90.9785
   XY=             -6.3491   XZ=              2.4415   YZ=              1.9926

 Normal termination of Gaussian 16 at Wed May  5 17:21:03 2021.
