 Gaussian 16, Revision A.03,
 Gaussian 16:  EM64L-G16RevA.03 25-Dec-2016

 -------------
 #p 6-31g* mp2
 -------------

 ------------------------------------------------------
 Input file generated by CHIRIPA (05-May-2021 14:53:17)
 ------------------------------------------------------
 Symbolic Z-matrix:
 Charge =  0 Multiplicity = 1

                         Standard orientation:
 ---------------------------------------------------------------------
 Center     Atomic      Atomic             Coordinates (Angstroms)
 Number     Number       Type             X           Y           Z
 ---------------------------------------------------------------------
      1          6           0       -4.969586   -0.494375    0.014845
      2          6           0       -6.406939   -0.488888   -0.506665
      3          6           0       -7.006713   -1.892117   -0.601602
      4          1           0       -4.349168   -1.115979   -0.645181
      5          1           0       -4.947841   -0.971165    1.004589
      6          1           0       -6.426179   -0.011007   -1.494529
      7          1           0       -7.023967    0.132931    0.154571
      8          1           0       -7.016732   -2.374098    0.381350
      9          1           0       -6.415547   -2.518853   -1.277120
     10          1           0       -8.034580   -1.864856   -0.976577
     11          6           0       -4.356270    0.901142    0.115364
     12          6           0       -2.918918    0.895655    0.636874
     13          6           0       -2.319143    2.298884    0.731811
     14          1           0       -4.378015    1.377932   -0.874380
     15          1           0       -4.976688    1.522746    0.775390
     16          1           0       -2.301889    0.273837   -0.024362
     17          1           0       -2.899677    0.417774    1.624738
     18          1           0       -2.910310    2.925621    1.407329
     19          1           0       -2.309125    2.780866   -0.251141
     20          1           0       -1.291276    2.271623    1.106786
     21          6           0        1.153715    0.200112    0.151460
     22          6           0        1.879168    0.869169   -0.839804
     23          6           0        3.258740    0.677865   -0.961175
     24          6           0        3.883560   -0.193601   -0.070423
     25          6           0        3.188345   -0.874685    0.927622
     26          6           0        1.809463   -0.668148    1.030460
     27          1           0        0.082298    0.354638    0.238545
     28          1           0        1.372543    1.544062   -1.523832
     29          1           0        3.844690    1.183042   -1.719381
     30          1           0        3.721167   -1.541218    1.594893
     31          1           0        1.248618   -1.189085    1.801253
     32          7           0        5.343685   -0.404189   -0.189102
     33          8           0        5.870686   -1.177214    0.607978
     34          8           0        5.933483    0.207766   -1.076957
 ---------------------------------------------------------------------

 SCF Done:  E(RHF) =  -669.535334359     A.U. after   15 cycles
 E2 =    -0.2091539906D+01 EUMP2 =    -0.67162687426560D+03

 The electronic state is 1-A.
 Alpha  occ. eigenvalues --  -20.60717 -20.60712 -15.85771 -11.31126 -11.27693
 Alpha  occ. eigenvalues --  -11.27690 -11.27360 -11.26698 -11.26687 -11.22919
 Alpha  occ. eigenvalues --  -11.22360 -11.22319 -11.22246 -11.22160 -11.21604
 Alpha  occ. eigenvalues --   -1.59793  -1.39347  -1.19293  -1.09366  -1.08684
 Alpha  occ. eigenvalues --   -1.04696  -1.04477  -0.96899  -0.95521  -0.87905
 Alpha  occ. eigenvalues --   -0.86090  -0.82363  -0.80574  -0.79132  -0.77411
 Alpha  occ. eigenvalues --   -0.71988  -0.71117  -0.70434  -0.65990  -0.64941
 Alpha  occ. eigenvalues --   -0.64704  -0.62047  -0.61866  -0.60343  -0.58543
 Alpha  occ. eigenvalues --   -0.56177  -0.55097  -0.53593  -0.53301  -0.53004
 Alpha  occ. eigenvalues --   -0.52784  -0.50825  -0.48874  -0.48746  -0.48744
 Alpha  occ. eigenvalues --   -0.47598  -0.46672  -0.46562  -0.44755  -0.44706
 Alpha  occ. eigenvalues --   -0.37259  -0.36306
 Alpha virt. eigenvalues --    0.05099   0.11347   0.16518   0.19786   0.22380
 Alpha virt. eigenvalues --    0.23898   0.25608   0.26149   0.26684   0.27456
 Alpha virt. eigenvalues --    0.29361   0.30444   0.30528   0.30864   0.31911

 Mulliken charges:
               1
     1  C   -0.299312
     2  C   -0.300389
     3  C   -0.476235
     4  H    0.149779
     5  H    0.150326
     6  H    0.152964
     7  H    0.153297
     8  H    0.155857
     9  H    0.155827
    10  H    0.162373
    11  C   -0.297495
    12  C   -0.306949
    13  C   -0.481802
    14  H    0.151513
    15  H    0.153395
    16  H    0.144868
    17  H    0.154478
    18  H    0.163325
    19  H    0.157121
    20  H    0.157507
    21  C   -0.180953
    22  C   -0.222494
    23  C   -0.170669
    24  C    0.158245
    25  C   -0.170637
    26  C   -0.222292
    27  H    0.243754
    28  H    0.223510
    29  H    0.275313
    30  H    0.275301
    31  H    0.223718
    32  N    0.487979
    33  O   -0.460606
    34  O   -0.460618
 Sum of Mulliken charges =  -0.00000

 Dipole moment (field-independent basis, Debye):
    X=             -5.4448    Y=              0.7790    Z=              0.4352  Tot=              5.5175
 Quadrupole moment (field-independent basis, Debye-Ang):
   XX=           -134.4786   YY=            -94.2395   ZZ=            -91.2162
   XY=              3.2858   XZ=              1.3912   YZ=             -2.9876

 Normal termination of Gaussian 16 at Thu May  6 05:59:06 2021.
