 Gaussian 16, Revision A.03,
 Gaussian 16:  EM64L-G16RevA.03 25-Dec-2016

 -------------
 #p 6-31g* mp2
 -------------

 ------------------------------------------------------
 Input file generated by CHIRIPA (05-May-2021 14:53:15)
 ------------------------------------------------------
 Symbolic Z-matrix:
 Charge =  0 Multiplicity = 1

                         Standard orientation:
 ---------------------------------------------------------------------
 Center     Atomic      Atomic             Coordinates (Angstroms)
 Number     Number       Type             X           Y           Z
 ---------------------------------------------------------------------
      1          6           0        4.563564   -0.231225   -0.127100
      2          6           0        4.606858   -1.701453    0.290680
      3          6           0        5.838872   -2.432004   -0.244327
      4          1           0        4.581929   -0.167552   -1.223710
      5          1           0        5.472991    0.271269    0.230445
      6          1           0        3.696971   -2.200703   -0.066351
      7          1           0        4.588195   -1.761640    1.386420
      8          1           0        6.756106   -1.960082    0.122513
      9          1           0        5.859818   -2.401639   -1.338512
     10          1           0        5.849675   -3.481437    0.066210
     11          6           0        3.337759    0.512538    0.400105
     12          6           0        3.294466    1.982767   -0.017674
     13          6           0        2.062452    2.713317    0.517333
     14          1           0        2.428333    0.010045    0.042561
     15          1           0        3.319395    0.448865    1.496715
     16          1           0        3.313129    2.042953   -1.113414
     17          1           0        4.204353    2.482016    0.339357
     18          1           0        2.041506    2.682952    1.611518
     19          1           0        1.145218    2.241395    0.150492
     20          1           0        2.051649    3.762750    0.206796
     21          6           0       -1.674646    1.942321   -0.508091
     22          6           0       -3.002656    2.077082   -0.090060
     23          6           0       -3.794197    0.946961    0.135416
     24          6           0       -3.222943   -0.308288   -0.067832
     25          6           0       -1.903002   -0.475241   -0.483970
     26          6           0       -1.130018    0.668835   -0.703368
     27          1           0       -1.066966    2.825646   -0.680885
     28          1           0       -3.428270    3.064834    0.062398
     29          1           0       -4.825110    1.022446    0.459357
     30          1           0       -1.506626   -1.473094   -0.627480
     31          1           0       -0.098963    0.561154   -1.027984
     32          7           0       -4.051089   -1.512083    0.167651
     33          8           0       -3.524260   -2.606804   -0.018559
     34          8           0       -5.211337   -1.338102    0.533975
 ---------------------------------------------------------------------

 SCF Done:  E(RHF) =  -669.534387641     A.U. after   15 cycles
 E2 =    -0.2092584445D+01 EUMP2 =    -0.67162697208623D+03

 The electronic state is 1-A.
 Alpha  occ. eigenvalues --  -20.60755 -20.60749 -15.85809 -11.31177 -11.27755
 Alpha  occ. eigenvalues --  -11.27750 -11.27461 -11.26755 -11.26745 -11.22521
 Alpha  occ. eigenvalues --  -11.22232 -11.22138 -11.22095 -11.21998 -11.21448
 Alpha  occ. eigenvalues --   -1.59830  -1.39384  -1.19355  -1.09174  -1.08749
 Alpha  occ. eigenvalues --   -1.04765  -1.04255  -0.96727  -0.95580  -0.87747
 Alpha  occ. eigenvalues --   -0.86167  -0.82414  -0.80335  -0.78950  -0.77463
 Alpha  occ. eigenvalues --   -0.72029  -0.71153  -0.70479  -0.65878  -0.65014
 Alpha  occ. eigenvalues --   -0.64773  -0.62190  -0.61568  -0.60095  -0.58303
 Alpha  occ. eigenvalues --   -0.56072  -0.55230  -0.53399  -0.53245  -0.52970
 Alpha  occ. eigenvalues --   -0.52857  -0.50657  -0.48798  -0.48782  -0.48614
 Alpha  occ. eigenvalues --   -0.47357  -0.46485  -0.46401  -0.44789  -0.44508
 Alpha  occ. eigenvalues --   -0.37299  -0.36354
 Alpha virt. eigenvalues --    0.05063   0.11163   0.16518   0.19415   0.22667
 Alpha virt. eigenvalues --    0.23865   0.25055   0.26365   0.26626   0.28428
 Alpha virt. eigenvalues --    0.29315   0.30007   0.30970   0.31206   0.31626

 Mulliken charges:
               1
     1  C   -0.298847
     2  C   -0.300022
     3  C   -0.476203
     4  H    0.149528
     5  H    0.151864
     6  H    0.151399
     7  H    0.153910
     8  H    0.155989
     9  H    0.155478
    10  H    0.162738
    11  C   -0.299340
    12  C   -0.300725
    13  C   -0.482531
    14  H    0.142895
    15  H    0.154086
    16  H    0.150634
    17  H    0.156636
    18  H    0.161774
    19  H    0.149245
    20  H    0.160063
    21  C   -0.170812
    22  C   -0.219496
    23  C   -0.170725
    24  C    0.158140
    25  C   -0.172136
    26  C   -0.221290
    27  H    0.228925
    28  H    0.223625
    29  H    0.275635
    30  H    0.275422
    31  H    0.226880
    32  N    0.488165
    33  O   -0.460463
    34  O   -0.460439
 Sum of Mulliken charges =  -0.00000

 Dipole moment (field-independent basis, Debye):
    X=              3.0789    Y=              4.2276    Z=             -0.7507  Tot=              5.2835
 Quadrupole moment (field-independent basis, Debye-Ang):
   XX=           -110.3917   YY=            -96.3698   ZZ=            -94.4715
   XY=            -16.7302   XZ=              2.2830   YZ=              0.9234

 Normal termination of Gaussian 16 at Thu May  6 07:28:19 2021.
