 Gaussian 16, Revision A.03,
 Gaussian 16:  EM64L-G16RevA.03 25-Dec-2016

 -------------
 #p 6-31g* mp2
 -------------

 ------------------------------------------------------
 Input file generated by CHIRIPA (05-May-2021 14:51:12)
 ------------------------------------------------------
 Symbolic Z-matrix:
 Charge =  0 Multiplicity = 1

                         Standard orientation:
 ---------------------------------------------------------------------
 Center     Atomic      Atomic             Coordinates (Angstroms)
 Number     Number       Type             X           Y           Z
 ---------------------------------------------------------------------
      1          6           0        4.283776   -0.469272    0.274558
      2          6           0        4.330820   -1.779143   -0.512850
      3          6           0        5.198005   -2.843053    0.160856
      4          1           0        5.306048   -0.086488    0.398577
      5          1           0        3.900600   -0.670285    1.284591
      6          1           0        4.712489   -1.575494   -1.521548
      7          1           0        3.308299   -2.158754   -0.635174
      8          1           0        4.816030   -3.075173    1.160264
      9          1           0        6.228198   -2.488598    0.268855
     10          1           0        5.217573   -3.771166   -0.418870
     11          6           0        3.420767    0.604159   -0.386267
     12          6           0        3.373723    1.914029    0.401141
     13          6           0        2.506538    2.977939   -0.272565
     14          1           0        3.803943    0.805171   -1.396299
     15          1           0        2.398495    0.221374   -0.510286
     16          1           0        4.396243    2.293641    0.523465
     17          1           0        2.992054    1.710380    1.409839
     18          1           0        1.476344    2.623485   -0.380563
     19          1           0        2.888512    3.210060   -1.271973
     20          1           0        2.486969    3.906053    0.307162
     21          6           0       -4.482103   -0.372186    0.362246
     22          6           0       -5.680463   -0.370119   -0.587445
     23          6           0       -6.932938   -0.982970    0.039864
     24          1           0       -4.270603   -1.404407    0.673266
     25          1           0       -4.744942    0.181438    1.274283
     26          1           0       -5.414975   -0.922402   -1.498003
     27          1           0       -5.889016    0.662195   -0.896392
     28          1           0       -7.225220   -0.428160    0.937283
     29          1           0       -6.748486   -2.021760    0.332252
     30          1           0       -7.777405   -0.971302   -0.656267
     31          6           0       -3.222440    0.237300   -0.250537
     32          6           0       -2.024079    0.235233    0.699153
     33          6           0       -0.771605    0.848083    0.071844
     34          1           0       -2.959600   -0.316325   -1.162574
     35          1           0       -3.433940    1.269520   -0.561558
     36          1           0       -1.815526   -0.797082    1.008100
     37          1           0       -2.289567    0.787515    1.609712
     38          1           0       -0.956056    1.886875   -0.220543
     39          1           0       -0.479323    0.293273   -0.825573
     40          1           0        0.072863    0.836415    0.767975
 ---------------------------------------------------------------------

 SCF Done:  E(RHF) =  -470.732690996     A.U. after   11 cycles
 E2 =    -0.1583337348D+01 EUMP2 =    -0.47231602834421D+03

 The electronic state is 1-A.
 Alpha  occ. eigenvalues --  -11.21684 -11.21634 -11.21564 -11.21509 -11.21459
 Alpha  occ. eigenvalues --  -11.21397 -11.21328 -11.21244 -11.21198 -11.21097
 Alpha  occ. eigenvalues --  -11.21045 -11.20861  -1.08492  -1.08352  -1.03614
 Alpha  occ. eigenvalues --   -1.03440  -0.96074  -0.95881  -0.87103  -0.86897
 Alpha  occ. eigenvalues --   -0.79721  -0.79477  -0.78308  -0.78151  -0.65120
 Alpha  occ. eigenvalues --   -0.65003  -0.61018  -0.60899  -0.59418  -0.59226
 Alpha  occ. eigenvalues --   -0.57663  -0.57508  -0.55473  -0.55084  -0.52781
 Alpha  occ. eigenvalues --   -0.52586  -0.52508  -0.52278  -0.50125  -0.49692
 Alpha  occ. eigenvalues --   -0.48007  -0.47803  -0.46698  -0.46537  -0.45877
 Alpha  occ. eigenvalues --   -0.45765  -0.45688  -0.45593  -0.43793  -0.43696
 Alpha virt. eigenvalues --    0.21310   0.22979   0.23859   0.24818   0.25964
 Alpha virt. eigenvalues --    0.26462   0.26866   0.27633   0.27964   0.29189
 Alpha virt. eigenvalues --    0.30623   0.30755   0.31255   0.31852   0.32327

 Mulliken charges:
               1
     1  C   -0.297919
     2  C   -0.299513
     3  C   -0.475633
     4  H    0.149460
     5  H    0.148883
     6  H    0.151847
     7  H    0.151585
     8  H    0.155041
     9  H    0.155172
    10  H    0.160016
    11  C   -0.303405
    12  C   -0.299005
    13  C   -0.484690
    14  H    0.149048
    15  H    0.155168
    16  H    0.151622
    17  H    0.150318
    18  H    0.167689
    19  H    0.154045
    20  H    0.158796
    21  C   -0.298361
    22  C   -0.299676
    23  C   -0.475742
    24  H    0.149710
    25  H    0.149658
    26  H    0.152012
    27  H    0.152065
    28  H    0.155242
    29  H    0.155214
    30  H    0.160396
    31  C   -0.298843
    32  C   -0.300409
    33  C   -0.480804
    34  H    0.149713
    35  H    0.150016
    36  H    0.152016
    37  H    0.152429
    38  H    0.156514
    39  H    0.156775
    40  H    0.163550
 Sum of Mulliken charges =  -0.00000

 Dipole moment (field-independent basis, Debye):
    X=             -0.0904    Y=             -0.0087    Z=             -0.0110  Tot=              0.0914
 Quadrupole moment (field-independent basis, Debye-Ang):
   XX=            -85.5808   YY=            -84.8724   ZZ=            -84.6570
   XY=              0.0074   XZ=             -0.4494   YZ=              0.5932

 Normal termination of Gaussian 16 at Thu May  6 00:42:44 2021.
