 Gaussian 16, Revision A.03,
 Gaussian 16:  EM64L-G16RevA.03 25-Dec-2016

 -------------
 #p 6-31g* mp2
 -------------

 ------------------------------------------------------
 Input file generated by CHIRIPA (05-May-2021 14:53:15)
 ------------------------------------------------------
 Symbolic Z-matrix:
 Charge =  0 Multiplicity = 1

                         Standard orientation:
 ---------------------------------------------------------------------
 Center     Atomic      Atomic             Coordinates (Angstroms)
 Number     Number       Type             X           Y           Z
 ---------------------------------------------------------------------
      1          6           0       -2.728563    0.456255    0.785685
      2          6           0       -2.890085    1.964235    0.591029
      3          6           0       -2.157562    2.779702    1.656965
      4          1           0       -3.101165    0.179518    1.781441
      5          1           0       -1.659162    0.204146    0.770925
      6          1           0       -3.958927    2.213238    0.604769
      7          1           0       -2.517231    2.237385   -0.404453
      8          1           0       -1.085095    2.560294    1.640392
      9          1           0       -2.534983    2.536009    2.655348
     10          1           0       -2.286351    3.854984    1.498716
     11          6           0       -3.455203   -0.372404   -0.272164
     12          6           0       -3.293682   -1.880385   -0.077508
     13          6           0       -4.026204   -2.695852   -1.143444
     14          1           0       -4.524604   -0.120296   -0.257404
     15          1           0       -3.082601   -0.095668   -1.267920
     16          1           0       -3.666535   -2.153535    0.917975
     17          1           0       -2.224839   -2.129387   -0.091248
     18          1           0       -3.648784   -2.452159   -2.141827
     19          1           0       -5.098671   -2.476443   -1.126870
     20          1           0       -3.897416   -3.771133   -0.985195
     21          6           0        3.714189   -1.688100    1.191975
     22          6           0        2.317329   -1.749718    1.153114
     23          6           0        1.587493   -0.837677    0.384956
     24          6           0        2.289985    0.127278   -0.335223
     25          6           0        3.681158    0.214396   -0.316915
     26          6           0        4.390452   -0.707968    0.458130
     27          1           0        4.273164   -2.400604    1.791374
     28          1           0        1.789479   -2.509831    1.722013
     29          1           0        0.505606   -0.862679    0.336862
     30          1           0        4.179364    0.983396   -0.894712
     31          1           0        5.475220   -0.657735    0.486422
     32          7           0        1.528213    1.098280   -1.152083
     33          8           0        2.170733    1.938883   -1.777536
     34          8           0        0.303040    1.000362   -1.151419
 ---------------------------------------------------------------------

 SCF Done:  E(RHF) =  -669.535998641     A.U. after   15 cycles
 E2 =    -0.2092908973D+01 EUMP2 =    -0.67162890761400D+03

 The electronic state is 1-A.
 Alpha  occ. eigenvalues --  -20.61008 -20.60997 -15.86032 -11.31314 -11.27870
 Alpha  occ. eigenvalues --  -11.27862 -11.27599 -11.26872 -11.26859 -11.21412
 Alpha  occ. eigenvalues --  -11.20853 -11.20782 -11.20697 -11.20612 -11.20275
 Alpha  occ. eigenvalues --   -1.60064  -1.39622  -1.19478  -1.08890  -1.07822
 Alpha  occ. eigenvalues --   -1.04868  -1.02946  -0.95742  -0.95408  -0.86440
 Alpha  occ. eigenvalues --   -0.86273  -0.82576  -0.79056  -0.77764  -0.77510
 Alpha  occ. eigenvalues --   -0.72275  -0.71374  -0.70592  -0.65156  -0.64905
 Alpha  occ. eigenvalues --   -0.64366  -0.62213  -0.60310  -0.58815  -0.57028
 Alpha  occ. eigenvalues --   -0.55378  -0.54680  -0.53201  -0.52969  -0.52150
 Alpha  occ. eigenvalues --   -0.51846  -0.49393  -0.49020  -0.48989  -0.47381
 Alpha  occ. eigenvalues --   -0.46068  -0.45273  -0.45046  -0.44855  -0.43197
 Alpha  occ. eigenvalues --   -0.37455  -0.36464
 Alpha virt. eigenvalues --    0.04861   0.11154   0.16367   0.19962   0.23122
 Alpha virt. eigenvalues --    0.24885   0.25123   0.27514   0.27864   0.28477
 Alpha virt. eigenvalues --    0.29597   0.31345   0.31809   0.32250   0.32429

 Mulliken charges:
               1
     1  C   -0.302252
     2  C   -0.300263
     3  C   -0.475240
     4  H    0.141920
     5  H    0.154499
     6  H    0.146272
     7  H    0.170436
     8  H    0.155973
     9  H    0.148498
    10  H    0.159574
    11  C   -0.299741
    12  C   -0.298768
    13  C   -0.475492
    14  H    0.147629
    15  H    0.161178
    16  H    0.149160
    17  H    0.142527
    18  H    0.158050
    19  H    0.155873
    20  H    0.156803
    21  C   -0.170104
    22  C   -0.221906
    23  C   -0.175654
    24  C    0.154658
    25  C   -0.169717
    26  C   -0.218913
    27  H    0.226205
    28  H    0.224941
    29  H    0.287948
    30  H    0.275849
    31  H    0.223923
    32  N    0.490245
    33  O   -0.458247
    34  O   -0.465861
 Sum of Mulliken charges =  -0.00000

 Dipole moment (field-independent basis, Debye):
    X=              2.8538    Y=             -3.2998    Z=              2.6668  Tot=              5.1132
 Quadrupole moment (field-independent basis, Debye-Ang):
   XX=            -78.6007   YY=            -96.0237   ZZ=            -97.3776
   XY=             -6.1085   XZ=              4.2271   YZ=             -0.1222

 Normal termination of Gaussian 16 at Thu May  6 04:16:37 2021.
