 Gaussian 16, Revision A.03,
 Gaussian 16:  EM64L-G16RevA.03 25-Dec-2016

 -------------
 #p 6-31g* mp2
 -------------

 ------------------------------------------------------
 Input file generated by CHIRIPA (05-May-2021 14:55:19)
 ------------------------------------------------------
 Symbolic Z-matrix:
 Charge =  0 Multiplicity = 1

                         Standard orientation:
 ---------------------------------------------------------------------
 Center     Atomic      Atomic             Coordinates (Angstroms)
 Number     Number       Type             X           Y           Z
 ---------------------------------------------------------------------
      1          6           0       -4.206257    1.322804   -0.002278
      2          6           0       -4.281573    0.215143   -0.853122
      3          6           0       -3.309524   -0.788280   -0.800107
      4          6           0       -2.271244   -0.651297    0.119948
      5          6           0       -2.168651    0.440274    0.980899
      6          6           0       -3.151895    1.431642    0.910409
      7          1           0       -4.965716    2.097604   -0.050249
      8          1           0       -5.099276    0.127978   -1.562918
      9          1           0       -3.343520   -1.656398   -1.447125
     10          1           0       -1.341629    0.499346    1.678009
     11          1           0       -3.090855    2.290754    1.572410
     12          7           0       -1.236253   -1.707195    0.185323
     13          8           0       -0.331571   -1.563028    1.004715
     14          8           0       -1.349307   -2.658982   -0.584065
     15          6           0        3.702228    0.128880   -0.003715
     16          6           0        3.317742   -1.340860   -0.176978
     17          6           0        4.481974   -2.292918    0.098603
     18          1           0        4.537736    0.364552   -0.677013
     19          1           0        4.071300    0.285972    1.019272
     20          1           0        2.948205   -1.494842   -1.198911
     21          1           0        2.482927   -1.573011    0.496673
     22          1           0        4.847165   -2.168451    1.123173
     23          1           0        5.315087   -2.089838   -0.582045
     24          1           0        4.185029   -3.338321   -0.031076
     25          6           0        2.548838    1.092938   -0.275768
     26          6           0        2.933324    2.562678   -0.102505
     27          6           0        1.769092    3.514736   -0.378086
     28          1           0        2.179766    0.935846   -1.298755
     29          1           0        1.713330    0.857266    0.397531
     30          1           0        3.768139    2.794829   -0.776156
     31          1           0        3.302861    2.716660    0.919428
     32          1           0        0.935978    3.311655    0.302562
     33          1           0        1.403900    3.390269   -1.402656
     34          1           0        2.066037    4.560139   -0.248408
 ---------------------------------------------------------------------

 SCF Done:  E(RHF) =  -669.536503459     A.U. after   15 cycles
 E2 =    -0.2091965080D+01 EUMP2 =    -0.67162846853864D+03

 The electronic state is 1-A.
 Alpha  occ. eigenvalues --  -20.61001 -20.60987 -15.86009 -11.31303 -11.27866
 Alpha  occ. eigenvalues --  -11.27857 -11.27590 -11.26864 -11.26854 -11.21245
 Alpha  occ. eigenvalues --  -11.20988 -11.20728 -11.20507 -11.20196 -11.19982
 Alpha  occ. eigenvalues --   -1.60038  -1.39599  -1.19465  -1.08875  -1.07679
 Alpha  occ. eigenvalues --   -1.04860  -1.02781  -0.95723  -0.95296  -0.86325
 Alpha  occ. eigenvalues --   -0.86260  -0.82563  -0.78882  -0.77638  -0.77372
 Alpha  occ. eigenvalues --   -0.72238  -0.71339  -0.70577  -0.65127  -0.64864
 Alpha  occ. eigenvalues --   -0.64312  -0.62211  -0.60180  -0.58706  -0.56856
 Alpha  occ. eigenvalues --   -0.55365  -0.54613  -0.53187  -0.52953  -0.52014
 Alpha  occ. eigenvalues --   -0.51713  -0.49310  -0.48995  -0.48990  -0.47172
 Alpha  occ. eigenvalues --   -0.45905  -0.45356  -0.44926  -0.44438  -0.43030
 Alpha  occ. eigenvalues --   -0.37437  -0.36455
 Alpha virt. eigenvalues --    0.04868   0.11171   0.16347   0.21019   0.23364
 Alpha virt. eigenvalues --    0.24951   0.26310   0.27518   0.27783   0.28547
 Alpha virt. eigenvalues --    0.29124   0.31063   0.31937   0.32292   0.32454

 Mulliken charges:
               1
     1  C   -0.170406
     2  C   -0.218511
     3  C   -0.170615
     4  C    0.158505
     5  C   -0.170733
     6  C   -0.218298
     7  H    0.226150
     8  H    0.223864
     9  H    0.275807
    10  H    0.275541
    11  H    0.224038
    12  N    0.490162
    13  O   -0.461379
    14  O   -0.458134
    15  C   -0.297222
    16  C   -0.310191
    17  C   -0.475388
    18  H    0.145086
    19  H    0.146628
    20  H    0.149159
    21  H    0.180945
    22  H    0.151792
    23  H    0.149238
    24  H    0.162296
    25  C   -0.300268
    26  C   -0.299100
    27  C   -0.473561
    28  H    0.147275
    29  H    0.154060
    30  H    0.151537
    31  H    0.150628
    32  H    0.147831
    33  H    0.154871
    34  H    0.158394
 Sum of Mulliken charges =  -0.00000

 Dipole moment (field-independent basis, Debye):
    X=             -3.9081    Y=              3.5377    Z=             -0.1927  Tot=              5.2750
 Quadrupole moment (field-independent basis, Debye-Ang):
   XX=            -78.9337   YY=            -99.8374   ZZ=            -91.6838
   XY=             -4.4679   XZ=              1.9170   YZ=              2.8086

 Normal termination of Gaussian 16 at Thu May  6 09:14:59 2021.
