 Gaussian 16, Revision A.03,
 Gaussian 16:  EM64L-G16RevA.03 25-Dec-2016

 -------------
 #p 6-31g* mp2
 -------------

 ------------------------------------------------------
 Input file generated by CHIRIPA (05-May-2021 14:55:23)
 ------------------------------------------------------
 Symbolic Z-matrix:
 Charge =  0 Multiplicity = 1

                         Standard orientation:
 ---------------------------------------------------------------------
 Center     Atomic      Atomic             Coordinates (Angstroms)
 Number     Number       Type             X           Y           Z
 ---------------------------------------------------------------------
      1          6           0        3.033228    1.978797    0.198096
      2          6           0        1.927032    1.690820   -0.608081
      3          6           0        1.499312    0.371176   -0.781694
      4          6           0        2.204242   -0.640466   -0.131352
      5          6           0        3.310034   -0.385547    0.678296
      6          6           0        3.719988    0.941523    0.837584
      7          1           0        3.358591    3.006812    0.327398
      8          1           0        1.391771    2.494363   -1.105938
      9          1           0        0.646162    0.119999   -1.400132
     10          1           0        3.823440   -1.207823    1.161716
     11          1           0        4.579412    1.162210    1.464267
     12          7           0        1.760838   -2.041444   -0.307566
     13          8           0        2.398910   -2.914748    0.276250
     14          8           0        0.783622   -2.239700   -1.026162
     15          6           0       -2.701907    1.127804   -0.285881
     16          6           0       -2.071991    2.246438    0.544689
     17          6           0       -1.650936    3.447014   -0.303324
     18          1           0       -1.986920    0.803129   -1.054208
     19          1           0       -3.576003    1.525066   -0.820234
     20          1           0       -1.200158    1.846839    1.078397
     21          1           0       -2.788488    2.568356    1.311250
     22          1           0       -2.514684    3.872521   -0.824367
     23          1           0       -0.917329    3.146904   -1.058543
     24          1           0       -1.203104    4.234778    0.310461
     25          6           0       -3.128033   -0.079311    0.547796
     26          6           0       -3.757950   -1.197945   -0.282775
     27          6           0       -4.179004   -2.398521    0.565239
     28          1           0       -2.253937   -0.476574    1.082149
     29          1           0       -3.843020    0.245364    1.316123
     30          1           0       -3.041451   -1.519863   -1.049335
     31          1           0       -4.629782   -0.798346   -0.816483
     32          1           0       -4.912611   -2.098411    1.320457
     33          1           0       -3.315257   -2.824028    1.086281
     34          1           0       -4.626837   -3.186285   -0.048547
 ---------------------------------------------------------------------

 SCF Done:  E(RHF) =  -669.535511797     A.U. after   15 cycles
 E2 =    -0.2092760399D+01 EUMP2 =    -0.67162827219557D+03

 The electronic state is 1-A.
 Alpha  occ. eigenvalues --  -20.60856 -20.60849 -15.85905 -11.31254 -11.27820
 Alpha  occ. eigenvalues --  -11.27814 -11.27542 -11.26827 -11.26798 -11.21960
 Alpha  occ. eigenvalues --  -11.21790 -11.21598 -11.21262 -11.21188 -11.20583
 Alpha  occ. eigenvalues --   -1.59927  -1.39481  -1.19423  -1.08817  -1.08483
 Alpha  occ. eigenvalues --   -1.04825  -1.03564  -0.96056  -0.95656  -0.87080
 Alpha  occ. eigenvalues --   -0.86213  -0.82491  -0.79675  -0.78220  -0.77542
 Alpha  occ. eigenvalues --   -0.72122  -0.71250  -0.70529  -0.65175  -0.65049
 Alpha  occ. eigenvalues --   -0.64842  -0.62209  -0.60902  -0.59479  -0.57626
 Alpha  occ. eigenvalues --   -0.55421  -0.55292  -0.53141  -0.52949  -0.52732
 Alpha  occ. eigenvalues --   -0.52427  -0.49980  -0.48879  -0.48876  -0.47972
 Alpha  occ. eigenvalues --   -0.46704  -0.45776  -0.45632  -0.44886  -0.43816
 Alpha  occ. eigenvalues --   -0.37395  -0.36404
 Alpha virt. eigenvalues --    0.04958   0.11188   0.16372   0.19347   0.23064
 Alpha virt. eigenvalues --    0.24097   0.25304   0.26322   0.27121   0.28545
 Alpha virt. eigenvalues --    0.29571   0.30675   0.31452   0.31974   0.32151

 Mulliken charges:
               1
     1  C   -0.171891
     2  C   -0.220639
     3  C   -0.174904
     4  C    0.158067
     5  C   -0.170778
     6  C   -0.218459
     7  H    0.226399
     8  H    0.229268
     9  H    0.278261
    10  H    0.275751
    11  H    0.223716
    12  N    0.487971
    13  O   -0.459855
    14  O   -0.461303
    15  C   -0.299388
    16  C   -0.302523
    17  C   -0.475965
    18  H    0.145101
    19  H    0.150634
    20  H    0.154577
    21  H    0.154723
    22  H    0.159570
    23  H    0.143159
    24  H    0.159301
    25  C   -0.298179
    26  C   -0.301569
    27  C   -0.476165
    28  H    0.152803
    29  H    0.148539
    30  H    0.161362
    31  H    0.148698
    32  H    0.151633
    33  H    0.160836
    34  H    0.161252
 Sum of Mulliken charges =  -0.00000

 Dipole moment (field-independent basis, Debye):
    X=              1.5482    Y=              4.8276    Z=              0.6790  Tot=              5.1151
 Quadrupole moment (field-independent basis, Debye-Ang):
   XX=            -84.5448   YY=           -101.8716   ZZ=            -93.9700
   XY=              8.1574   XZ=              3.8373   YZ=             -1.4680

 Normal termination of Gaussian 16 at Wed May  5 16:02:22 2021.
