 Gaussian 16, Revision A.03,
 Gaussian 16:  EM64L-G16RevA.03 25-Dec-2016

 -------------
 #p 6-31g* mp2
 -------------

 ------------------------------------------------------
 Input file generated by CHIRIPA (05-May-2021 14:53:12)
 ------------------------------------------------------
 Symbolic Z-matrix:
 Charge =  0 Multiplicity = 1

                         Standard orientation:
 ---------------------------------------------------------------------
 Center     Atomic      Atomic             Coordinates (Angstroms)
 Number     Number       Type             X           Y           Z
 ---------------------------------------------------------------------
      1          6           0       -4.077464    0.415719    0.470140
      2          6           0       -3.583122    1.765421   -0.051315
      3          6           0       -2.386239    2.300665    0.735310
      4          1           0       -4.348778    0.516339    1.529955
      5          1           0       -3.254026   -0.310495    0.425878
      6          1           0       -4.407635    2.488514   -0.007377
      7          1           0       -3.313134    1.661622   -1.110063
      8          1           0       -1.545886    1.601010    0.681538
      9          1           0       -2.646606    2.432600    1.790490
     10          1           0       -2.049178    3.266316    0.345738
     11          6           0       -5.273605   -0.132393   -0.306100
     12          6           0       -5.767947   -1.482095    0.215355
     13          6           0       -6.964830   -2.017339   -0.571271
     14          1           0       -6.097043    0.593821   -0.261838
     15          1           0       -5.002291   -0.233013   -1.365916
     16          1           0       -6.037934   -1.378296    1.274103
     17          1           0       -4.943434   -2.205188    0.171416
     18          1           0       -6.704463   -2.149274   -1.626450
     19          1           0       -7.805183   -1.317684   -0.517498
     20          1           0       -7.301891   -2.982990   -0.181698
     21          6           0        2.265667    1.978218   -0.344121
     22          6           0        3.659990    2.046850   -0.431737
     23          6           0        4.438561    0.895849   -0.278209
     24          6           0        3.786860   -0.312620   -0.037005
     25          6           0        2.399578   -0.413341    0.055691
     26          6           0        1.641013    0.750507   -0.101114
     27          1           0        1.668625    2.877333   -0.464659
     28          1           0        4.147819    2.998944   -0.620375
     29          1           0        5.519688    0.920444   -0.341273
     30          1           0        1.941881   -1.376791    0.244621
     31          1           0        0.558342    0.694215   -0.032570
     32          7           0        4.600509   -1.537934    0.127265
     33          8           0        4.002218   -2.590476    0.339017
     34          8           0        5.821131   -1.422590    0.041156
 ---------------------------------------------------------------------

 SCF Done:  E(RHF) =  -669.535491317     A.U. after   15 cycles
 E2 =    -0.2090787479D+01 EUMP2 =    -0.67162627879574D+03

 The electronic state is 1-A.
 Alpha  occ. eigenvalues --  -20.60738 -20.60733 -15.85791 -11.31151 -11.27723
 Alpha  occ. eigenvalues --  -11.27719 -11.27454 -11.26734 -11.26712 -11.22457
 Alpha  occ. eigenvalues --  -11.22217 -11.22087 -11.22016 -11.21899 -11.21396
 Alpha  occ. eigenvalues --   -1.59814  -1.39368  -1.19323  -1.09076  -1.08717
 Alpha  occ. eigenvalues --   -1.04729  -1.04199  -0.96665  -0.95553  -0.87687
 Alpha  occ. eigenvalues --   -0.86126  -0.82388  -0.80269  -0.78847  -0.77439
 Alpha  occ. eigenvalues --   -0.72010  -0.71137  -0.70426  -0.65723  -0.64975
 Alpha  occ. eigenvalues --   -0.64752  -0.62132  -0.61555  -0.60053  -0.58249
 Alpha  occ. eigenvalues --   -0.55978  -0.55216  -0.53369  -0.53143  -0.53052
 Alpha  occ. eigenvalues --   -0.52772  -0.50596  -0.48775  -0.48765  -0.48566
 Alpha  occ. eigenvalues --   -0.47291  -0.46397  -0.46299  -0.44774  -0.44438
 Alpha  occ. eigenvalues --   -0.37300  -0.36332
 Alpha virt. eigenvalues --    0.05101   0.11304   0.16592   0.19458   0.22556
 Alpha virt. eigenvalues --    0.23773   0.25282   0.26428   0.26942   0.27863
 Alpha virt. eigenvalues --    0.29094   0.29541   0.31066   0.31558   0.32153

 Mulliken charges:
               1
     1  C   -0.298060
     2  C   -0.300099
     3  C   -0.480371
     4  H    0.151963
     5  H    0.146561
     6  H    0.155813
     7  H    0.151934
     8  H    0.147403
     9  H    0.161578
    10  H    0.159128
    11  C   -0.298852
    12  C   -0.300215
    13  C   -0.476112
    14  H    0.150838
    15  H    0.150223
    16  H    0.152878
    17  H    0.152573
    18  H    0.155755
    19  H    0.155644
    20  H    0.162021
    21  C   -0.173083
    22  C   -0.218623
    23  C   -0.171159
    24  C    0.158909
    25  C   -0.172494
    26  C   -0.224395
    27  H    0.226369
    28  H    0.223303
    29  H    0.275470
    30  H    0.275801
    31  H    0.232413
    32  N    0.487998
    33  O   -0.460544
    34  O   -0.460570
 Sum of Mulliken charges =  -0.00000

 Dipole moment (field-independent basis, Debye):
    X=             -3.0848    Y=              4.3387    Z=             -0.5626  Tot=              5.3532
 Quadrupole moment (field-independent basis, Debye-Ang):
   XX=           -112.5774   YY=            -96.3963   ZZ=            -95.2789
   XY=             19.1873   XZ=             -3.6765   YZ=             -0.3020

 Normal termination of Gaussian 16 at Wed May  5 16:58:28 2021.
