 Gaussian 16, Revision A.03,
 Gaussian 16:  EM64L-G16RevA.03 25-Dec-2016

 -------------
 #p 6-31g* mp2
 -------------

 ------------------------------------------------------
 Input file generated by CHIRIPA (05-May-2021 14:53:18)
 ------------------------------------------------------
 Symbolic Z-matrix:
 Charge =  0 Multiplicity = 1

                         Standard orientation:
 ---------------------------------------------------------------------
 Center     Atomic      Atomic             Coordinates (Angstroms)
 Number     Number       Type             X           Y           Z
 ---------------------------------------------------------------------
      1          6           0        4.187289    0.127281    0.074796
      2          6           0        4.224500   -1.122361    0.955134
      3          6           0        5.576174   -1.835747    0.912110
      4          1           0        4.422036   -0.154396   -0.960818
      5          1           0        4.978152    0.818432    0.397660
      6          1           0        3.432910   -1.810346    0.631597
      7          1           0        3.989449   -0.837705    1.988739
      8          1           0        6.374445   -1.169590    1.255035
      9          1           0        5.814744   -2.147757   -0.109818
     10          1           0        5.580598   -2.726194    1.548463
     11          6           0        2.842547    0.851395    0.107291
     12          6           0        2.805336    2.101037   -0.773048
     13          6           0        1.453662    2.814424   -0.730023
     14          1           0        2.051684    0.160244   -0.215573
     15          1           0        2.607800    1.133072    1.142905
     16          1           0        3.040387    1.816382   -1.806652
     17          1           0        3.596926    2.789023   -0.449510
     18          1           0        1.215092    3.126434    0.291904
     19          1           0        0.655391    2.148266   -1.072948
     20          1           0        1.449238    3.704870   -1.366377
     21          6           0       -3.940281    1.445483    1.193353
     22          6           0       -4.305982    0.108813    1.383348
     23          6           0       -3.651171   -0.912152    0.688076
     24          6           0       -2.630574   -0.558998   -0.193373
     25          6           0       -2.243294    0.763435   -0.404262
     26          6           0       -2.911918    1.767959    0.301726
     27          1           0       -4.454319    2.232207    1.737620
     28          1           0       -5.104253   -0.144573    2.075159
     29          1           0       -3.914056   -1.955185    0.816111
     30          1           0       -1.443651    0.984971   -1.100618
     31          1           0       -2.625791    2.805172    0.152177
     32          7           0       -1.930043   -1.631146   -0.935099
     33          8           0       -1.034176   -1.293801   -1.705979
     34          8           0       -2.290100   -2.788539   -0.731538
 ---------------------------------------------------------------------

 SCF Done:  E(RHF) =  -669.535810707     A.U. after   15 cycles
 E2 =    -0.2091303982D+01 EUMP2 =    -0.67162711468886D+03

 The electronic state is 1-A.
 Alpha  occ. eigenvalues --  -20.60825 -20.60816 -15.85867 -11.31185 -11.27755
 Alpha  occ. eigenvalues --  -11.27735 -11.27491 -11.26766 -11.26742 -11.21601
 Alpha  occ. eigenvalues --  -11.21435 -11.21238 -11.21149 -11.21069 -11.20736
 Alpha  occ. eigenvalues --   -1.59892  -1.39448  -1.19357  -1.08762  -1.08224
 Alpha  occ. eigenvalues --   -1.04753  -1.03405  -0.95883  -0.95603  -0.86912
 Alpha  occ. eigenvalues --   -0.86155  -0.82435  -0.79478  -0.78010  -0.77485
 Alpha  occ. eigenvalues --   -0.72088  -0.71209  -0.70480  -0.65011  -0.64875
 Alpha  occ. eigenvalues --   -0.64731  -0.62139  -0.60783  -0.59255  -0.57475
 Alpha  occ. eigenvalues --   -0.55323  -0.55120  -0.53089  -0.52871  -0.52599
 Alpha  occ. eigenvalues --   -0.52287  -0.49822  -0.48846  -0.48841  -0.47792
 Alpha  occ. eigenvalues --   -0.46475  -0.45571  -0.45446  -0.44845  -0.43629
 Alpha  occ. eigenvalues --   -0.37339  -0.36346
 Alpha virt. eigenvalues --    0.05021   0.11274   0.16524   0.20443   0.23094
 Alpha virt. eigenvalues --    0.24105   0.25708   0.26934   0.27751   0.28089
 Alpha virt. eigenvalues --    0.29332   0.30235   0.31514   0.31744   0.32233

 Mulliken charges:
               1
     1  C   -0.298226
     2  C   -0.300926
     3  C   -0.475722
     4  H    0.152163
     5  H    0.147197
     6  H    0.158046
     7  H    0.149596
     8  H    0.153265
     9  H    0.156410
    10  H    0.160219
    11  C   -0.302488
    12  C   -0.298026
    13  C   -0.480955
    14  H    0.160097
    15  H    0.146348
    16  H    0.156132
    17  H    0.151547
    18  H    0.152987
    19  H    0.151564
    20  H    0.160346
    21  C   -0.170767
    22  C   -0.218714
    23  C   -0.170550
    24  C    0.159054
    25  C   -0.176511
    26  C   -0.220806
    27  H    0.225628
    28  H    0.223403
    29  H    0.275481
    30  H    0.283509
    31  H    0.224886
    32  N    0.487551
    33  O   -0.461928
    34  O   -0.459811
 Sum of Mulliken charges =  -0.00000

 Dipole moment (field-independent basis, Debye):
    X=             -2.4489    Y=              3.6987    Z=              2.5852  Tot=              5.1342
 Quadrupole moment (field-independent basis, Debye-Ang):
   XX=            -81.2785   YY=            -97.2096   ZZ=            -94.8704
   XY=             -5.8232   XZ=             -8.1614   YZ=             -3.4176

 Normal termination of Gaussian 16 at Thu May  6 14:00:43 2021.
