 Gaussian 16, Revision A.03,
 Gaussian 16:  EM64L-G16RevA.03 25-Dec-2016

 -------------
 #p 6-31g* mp2
 -------------

 ------------------------------------------------------
 Input file generated by CHIRIPA (05-May-2021 14:51:10)
 ------------------------------------------------------
 Symbolic Z-matrix:
 Charge =  0 Multiplicity = 1

                         Standard orientation:
 ---------------------------------------------------------------------
 Center     Atomic      Atomic             Coordinates (Angstroms)
 Number     Number       Type             X           Y           Z
 ---------------------------------------------------------------------
      1          6           0        3.549815   -0.653198   -0.172225
      2          6           0        2.833751   -1.551690    0.836709
      3          6           0        2.454571   -2.912475    0.251662
      4          1           0        2.903719   -0.509749   -1.049110
      5          1           0        4.454194   -1.164165   -0.530564
      6          1           0        1.931729   -1.038601    1.194075
      7          1           0        3.481549   -1.692861    1.711377
      8          1           0        3.347002   -3.447888   -0.088192
      9          1           0        1.788376   -2.789911   -0.608433
     10          1           0        1.943839   -3.538628    0.989866
     11          6           0        3.935304    0.710679    0.397834
     12          6           0        4.651368    1.609172   -0.611100
     13          6           0        5.030549    2.969957   -0.026053
     14          1           0        3.030925    1.221647    0.756173
     15          1           0        4.581400    0.567230    1.274719
     16          1           0        4.003570    1.750342   -1.485769
     17          1           0        5.553391    1.096082   -0.968467
     18          1           0        5.696743    2.847392    0.834042
     19          1           0        4.138117    3.505370    0.313801
     20          1           0        5.541280    3.596109   -0.764258
     21          6           0       -4.501359    0.032234   -0.175556
     22          6           0       -5.053903    1.338928    0.394733
     23          6           0       -6.573320    1.446180    0.261835
     24          1           0       -4.784806   -0.047331   -1.233986
     25          1           0       -4.976080   -0.814291    0.339643
     26          1           0       -4.577261    2.182749   -0.120432
     27          1           0       -4.768945    1.415482    1.451878
     28          1           0       -7.065332    0.623796    0.791186
     29          1           0       -6.872560    1.395422   -0.790058
     30          1           0       -6.947050    2.387884    0.675814
     31          6           0       -2.983761   -0.089715   -0.050053
     32          6           0       -2.431216   -1.396410   -0.620341
     33          6           0       -0.911799   -1.503661   -0.487444
     34          1           0       -2.509039    0.756810   -0.565252
     35          1           0       -2.700314   -0.010151    1.008377
     36          1           0       -2.716175   -1.472963   -1.677486
     37          1           0       -2.907858   -2.240230   -0.105176
     38          1           0       -0.612560   -1.452905    0.564450
     39          1           0       -0.419788   -0.681278   -1.016794
     40          1           0       -0.538069   -2.445365   -0.901422
 ---------------------------------------------------------------------

 SCF Done:  E(RHF) =  -470.732508888     A.U. after   11 cycles
 E2 =    -0.1583252890D+01 EUMP2 =    -0.47231576177829D+03

 The electronic state is 1-A.
 Alpha  occ. eigenvalues --  -11.21629 -11.21624 -11.21565 -11.21477 -11.21437
 Alpha  occ. eigenvalues --  -11.21377 -11.21339 -11.21274 -11.21107 -11.21089
 Alpha  occ. eigenvalues --  -11.21044 -11.20893  -1.08465  -1.08354  -1.03587
 Alpha  occ. eigenvalues --   -1.03428  -0.96067  -0.95856  -0.87086  -0.86876
 Alpha  occ. eigenvalues --   -0.79644  -0.79511  -0.78276  -0.78173  -0.65095
 Alpha  occ. eigenvalues --   -0.64988  -0.61006  -0.60849  -0.59394  -0.59270
 Alpha  occ. eigenvalues --   -0.57674  -0.57477  -0.55377  -0.55158  -0.52762
 Alpha  occ. eigenvalues --   -0.52577  -0.52444  -0.52267  -0.49963  -0.49798
 Alpha  occ. eigenvalues --   -0.47975  -0.47817  -0.46697  -0.46497  -0.45846
 Alpha  occ. eigenvalues --   -0.45753  -0.45688  -0.45591  -0.43763  -0.43706
 Alpha virt. eigenvalues --    0.21391   0.22960   0.23690   0.24815   0.26187
 Alpha virt. eigenvalues --    0.26316   0.27054   0.27508   0.27862   0.29193
 Alpha virt. eigenvalues --    0.30006   0.30810   0.31413   0.31897   0.32353

 Mulliken charges:
               1
     1  C   -0.298760
     2  C   -0.301614
     3  C   -0.478176
     4  H    0.150020
     5  H    0.149189
     6  H    0.154712
     7  H    0.150996
     8  H    0.153651
     9  H    0.161024
    10  H    0.158706
    11  C   -0.298336
    12  C   -0.299540
    13  C   -0.475660
    14  H    0.149486
    15  H    0.149463
    16  H    0.151638
    17  H    0.151862
    18  H    0.155139
    19  H    0.155084
    20  H    0.160073
    21  C   -0.298277
    22  C   -0.299635
    23  C   -0.475718
    24  H    0.149717
    25  H    0.149643
    26  H    0.151880
    27  H    0.151959
    28  H    0.155241
    29  H    0.155212
    30  H    0.160322
    31  C   -0.298630
    32  C   -0.300499
    33  C   -0.478251
    34  H    0.149255
    35  H    0.149515
    36  H    0.151901
    37  H    0.152234
    38  H    0.158016
    39  H    0.154341
    40  H    0.162819
 Sum of Mulliken charges =  -0.00000

 Dipole moment (field-independent basis, Debye):
    X=             -0.0483    Y=             -0.0112    Z=             -0.0084  Tot=              0.0503
 Quadrupole moment (field-independent basis, Debye-Ang):
   XX=            -85.4694   YY=            -85.6059   ZZ=            -83.9431
   XY=             -0.3152   XZ=              0.0141   YZ=             -0.7699

 Normal termination of Gaussian 16 at Wed May  5 19:47:52 2021.
