 Gaussian 16, Revision A.03,
 Gaussian 16:  EM64L-G16RevA.03 25-Dec-2016

 -------------
 #p 6-31g* mp2
 -------------

 ------------------------------------------------------
 Input file generated by CHIRIPA (05-May-2021 14:57:27)
 ------------------------------------------------------
 Symbolic Z-matrix:
 Charge =  0 Multiplicity = 1

                         Standard orientation:
 ---------------------------------------------------------------------
 Center     Atomic      Atomic             Coordinates (Angstroms)
 Number     Number       Type             X           Y           Z
 ---------------------------------------------------------------------
      1          6           0        5.399636    1.538922   -0.354685
      2          6           0        4.261097    2.002344    0.312764
      3          6           0        3.166549    1.157644    0.520119
      4          6           0        3.244885   -0.150426    0.044614
      5          6           0        4.365165   -0.641602   -0.623975
      6          6           0        5.447951    0.220752   -0.820104
      7          1           0        6.245339    2.201962   -0.511404
      8          1           0        4.220781    3.025566    0.675305
      9          1           0        2.272710    1.490418    1.033666
     10          1           0        4.375922   -1.666722   -0.973877
     11          1           0        6.330854   -0.141872   -1.338786
     12          7           0        2.092362   -1.054017    0.258189
     13          8           0        2.186224   -2.202105   -0.170438
     14          8           0        1.116976   -0.597054    0.850172
     15          6           0       -2.338508   -2.241082    0.357743
     16          6           0       -3.074973   -2.004358   -0.807633
     17          6           0       -3.686715   -0.765594   -1.021609
     18          6           0       -3.540824    0.218308   -0.044909
     19          6           0       -2.813545    0.012958    1.126495
     20          6           0       -2.210371   -1.233445    1.319392
     21          1           0       -1.866621   -3.206350    0.515777
     22          1           0       -3.176173   -2.785050   -1.556182
     23          1           0       -4.262580   -0.555416   -1.914706
     24          1           0       -2.730426    0.810711    1.854573
     25          1           0       -1.639022   -1.414467    2.225392
     26          7           0       -4.183912    1.533775   -0.260278
     27          8           0       -4.040387    2.384113    0.615486
     28          8           0       -4.819314    1.689592   -1.300769
 ---------------------------------------------------------------------

 SCF Done:  E(RHF) =  -868.339540671     A.U. after   16 cycles
 E2 =    -0.2599215130D+01 EUMP2 =    -0.87093875580066D+03

 The electronic state is 1-A.
 Alpha  occ. eigenvalues --  -20.61449 -20.61441 -20.59908 -20.59903 -15.86476
 Alpha  occ. eigenvalues --  -15.84948 -11.31607 -11.29983 -11.28156 -11.28138
 Alpha  occ. eigenvalues --  -11.27845 -11.27117 -11.27093 -11.26530 -11.26438
 Alpha  occ. eigenvalues --  -11.26062 -11.25491 -11.25314  -1.60517  -1.58991
 Alpha  occ. eigenvalues --   -1.40077  -1.38554  -1.19759  -1.18091  -1.09199
 Alpha  occ. eigenvalues --   -1.07528  -1.05125  -1.03447  -0.96075  -0.94433
 Alpha  occ. eigenvalues --   -0.86535  -0.84854  -0.82915  -0.81289  -0.77988
 Alpha  occ. eigenvalues --   -0.76398  -0.72723  -0.71816  -0.71179  -0.70864
 Alpha  occ. eigenvalues --   -0.70310  -0.69175  -0.65416  -0.65126  -0.63739
 Alpha  occ. eigenvalues --   -0.63443  -0.62475  -0.60825  -0.55636  -0.53908
 Alpha  occ. eigenvalues --   -0.53468  -0.53214  -0.51800  -0.51547  -0.49475
 Alpha  occ. eigenvalues --   -0.49432  -0.47950  -0.47899  -0.45529  -0.44036
 Alpha  occ. eigenvalues --   -0.37725  -0.36717  -0.35980  -0.34989
 Alpha virt. eigenvalues --    0.04531   0.06120   0.10940   0.12668   0.16073
 Alpha virt. eigenvalues --    0.17739   0.21110   0.22743   0.27034   0.27962
 Alpha virt. eigenvalues --    0.28601   0.29612   0.30697   0.32157   0.32335

 Mulliken charges:
               1
     1  C   -0.169951
     2  C   -0.218422
     3  C   -0.170239
     4  C    0.157720
     5  C   -0.170638
     6  C   -0.218554
     7  H    0.227443
     8  H    0.225965
     9  H    0.276022
    10  H    0.275081
    11  H    0.224534
    12  N    0.490788
    13  O   -0.463108
    14  O   -0.465188
    15  C   -0.165880
    16  C   -0.219735
    17  C   -0.174260
    18  C    0.156884
    19  C   -0.174805
    20  C   -0.196861
    21  H    0.228398
    22  H    0.219235
    23  H    0.270274
    24  H    0.269845
    25  H    0.226554
    26  N    0.488154
    27  O   -0.464827
    28  O   -0.464428
 Sum of Mulliken charges =  -0.00000

 Dipole moment (field-independent basis, Debye):
    X=              6.8114    Y=             -1.5697    Z=              0.1329  Tot=              6.9912
 Quadrupole moment (field-independent basis, Debye-Ang):
   XX=            -94.8228   YY=           -105.3773   ZZ=           -100.9452
   XY=             26.2212   XZ=             -5.1025   YZ=              4.0547

 Normal termination of Gaussian 16 at Wed May  5 21:15:45 2021.
