 Gaussian 16, Revision A.03,
 Gaussian 16:  EM64L-G16RevA.03 25-Dec-2016

 -------------
 #p 6-31g* mp2
 -------------

 ------------------------------------------------------
 Input file generated by CHIRIPA (05-May-2021 14:55:20)
 ------------------------------------------------------
 Symbolic Z-matrix:
 Charge =  0 Multiplicity = 1

                         Standard orientation:
 ---------------------------------------------------------------------
 Center     Atomic      Atomic             Coordinates (Angstroms)
 Number     Number       Type             X           Y           Z
 ---------------------------------------------------------------------
      1          6           0       -0.737800   -0.625632    0.304917
      2          6           0       -1.364059   -0.941537   -0.905258
      3          6           0       -2.743052   -0.768922   -1.057347
      4          6           0       -3.468445   -0.276052    0.026245
      5          6           0       -2.873418    0.047777    1.244592
      6          6           0       -1.493147   -0.132852    1.374095
      7          1           0        0.333932   -0.762836    0.414291
      8          1           0       -0.779961   -1.324413   -1.737292
      9          1           0       -3.253408   -1.005470   -1.983090
     10          1           0       -3.482163    0.427593    2.056126
     11          1           0       -1.009461    0.113325    2.315100
     12          7           0       -4.929000   -0.089071   -0.122809
     13          8           0       -5.545712    0.346713    0.846931
     14          8           0       -5.429416   -0.381839   -1.206557
     15          6           0        4.302488   -0.274487    0.265007
     16          6           0        5.534574   -0.950718   -0.337206
     17          6           0        5.863952   -2.284638    0.333584
     18          1           0        4.467803   -0.115311    1.339381
     19          1           0        3.441779   -0.952012    0.178206
     20          1           0        6.392397   -0.271567   -0.250542
     21          1           0        5.366383   -1.108129   -1.410309
     22          1           0        5.026232   -2.982585    0.235104
     23          1           0        6.058074   -2.141270    1.401462
     24          1           0        6.748097   -2.750755   -0.112376
     25          6           0        3.960497    1.060072   -0.395085
     26          6           0        2.728410    1.736302    0.207130
     27          6           0        2.399033    3.070223   -0.463661
     28          1           0        4.821206    1.737596   -0.308283
     29          1           0        3.795182    0.900896   -1.469458
     30          1           0        2.896601    1.893712    1.280233
     31          1           0        1.870588    1.057151    0.120464
     32          1           0        2.204910    2.926854   -1.531539
     33          1           0        3.236753    3.768169   -0.365182
     34          1           0        1.514887    3.536339   -0.017701
 ---------------------------------------------------------------------

 SCF Done:  E(RHF) =  -669.535406061     A.U. after   15 cycles
 E2 =    -0.2091514353D+01 EUMP2 =    -0.67162692041421D+03

 The electronic state is 1-A.
 Alpha  occ. eigenvalues --  -20.60765 -20.60760 -15.85819 -11.31194 -11.27759
 Alpha  occ. eigenvalues --  -11.27753 -11.27480 -11.26782 -11.26767 -11.22549
 Alpha  occ. eigenvalues --  -11.22383 -11.22325 -11.22232 -11.21772 -11.21747
 Alpha  occ. eigenvalues --   -1.59840  -1.39394  -1.19364  -1.09306  -1.08758
 Alpha  occ. eigenvalues --   -1.04766  -1.04329  -0.96755  -0.95593  -0.87769
 Alpha  occ. eigenvalues --   -0.86163  -0.82428  -0.80410  -0.79143  -0.77468
 Alpha  occ. eigenvalues --   -0.72036  -0.71163  -0.70495  -0.65941  -0.65015
 Alpha  occ. eigenvalues --   -0.64767  -0.62112  -0.61731  -0.60129  -0.58376
 Alpha  occ. eigenvalues --   -0.56042  -0.55296  -0.53423  -0.53177  -0.53092
 Alpha  occ. eigenvalues --   -0.52857  -0.50696  -0.48804  -0.48791  -0.48702
 Alpha  occ. eigenvalues --   -0.47445  -0.46655  -0.46595  -0.44797  -0.44598
 Alpha  occ. eigenvalues --   -0.37324  -0.36371
 Alpha virt. eigenvalues --    0.05024   0.11281   0.16386   0.19396   0.22582
 Alpha virt. eigenvalues --    0.23669   0.24575   0.26218   0.27098   0.27417
 Alpha virt. eigenvalues --    0.29679   0.30613   0.31120   0.31260   0.32043

 Mulliken charges:
               1
     1  C   -0.172178
     2  C   -0.220048
     3  C   -0.170819
     4  C    0.158762
     5  C   -0.170923
     6  C   -0.219943
     7  H    0.230179
     8  H    0.223193
     9  H    0.275582
    10  H    0.275624
    11  H    0.224265
    12  N    0.488035
    13  O   -0.460361
    14  O   -0.460399
    15  C   -0.298605
    16  C   -0.300119
    17  C   -0.476087
    18  H    0.151380
    19  H    0.140729
    20  H    0.154927
    21  H    0.152716
    22  H    0.153909
    23  H    0.156258
    24  H    0.163052
    25  C   -0.298639
    26  C   -0.304125
    27  C   -0.475280
    28  H    0.153642
    29  H    0.150293
    30  H    0.152496
    31  H    0.145037
    32  H    0.156627
    33  H    0.157887
    34  H    0.162932
 Sum of Mulliken charges =  -0.00000

 Dipole moment (field-independent basis, Debye):
    X=              5.3102    Y=             -0.5812    Z=              0.5111  Tot=              5.3663
 Quadrupole moment (field-independent basis, Debye-Ang):
   XX=           -130.0120   YY=            -95.0325   ZZ=            -90.0284
   XY=              1.5602   XZ=             -1.7924   YZ=              2.3615

 Normal termination of Gaussian 16 at Thu May  6 17:24:46 2021.
