 Gaussian 16, Revision A.03,
 Gaussian 16:  EM64L-G16RevA.03 25-Dec-2016

 -------------
 #p 6-31g* mp2
 -------------

 ------------------------------------------------------
 Input file generated by CHIRIPA (05-May-2021 14:51:10)
 ------------------------------------------------------
 Symbolic Z-matrix:
 Charge =  0 Multiplicity = 1

                         Standard orientation:
 ---------------------------------------------------------------------
 Center     Atomic      Atomic             Coordinates (Angstroms)
 Number     Number       Type             X           Y           Z
 ---------------------------------------------------------------------
      1          6           0       -5.488875   -0.521956    0.100746
      2          6           0       -6.859587    0.078317   -0.213587
      3          6           0       -8.013245   -0.847103    0.174311
      4          1           0       -5.385532   -1.480066   -0.426787
      5          1           0       -5.433133   -0.748724    1.174461
      6          1           0       -6.912221    0.305165   -1.286148
      7          1           0       -6.959603    1.035202    0.314602
      8          1           0       -7.988938   -1.064227    1.247095
      9          1           0       -7.941286   -1.798412   -0.362750
     10          1           0       -8.983798   -0.398316   -0.059091
     11          6           0       -4.325473    0.391400   -0.281362
     12          6           0       -2.954761   -0.208873    0.032972
     13          6           0       -1.801103    0.716547   -0.354926
     14          1           0       -4.381215    0.618167   -1.355077
     15          1           0       -4.428816    1.349510    0.246171
     16          1           0       -2.854745   -1.165758   -0.495218
     17          1           0       -2.902127   -0.435721    1.105532
     18          1           0       -1.873062    1.667856    0.182134
     19          1           0       -1.825410    0.933671   -1.427711
     20          1           0       -0.830550    0.267759   -0.121525
     21          6           0        5.581126    0.099212   -0.267559
     22          6           0        6.596268   -0.918628    0.253472
     23          6           0        7.939623   -0.838420   -0.472311
     24          1           0        5.428466   -0.062477   -1.343429
     25          1           0        5.997564    1.110291   -0.159426
     26          1           0        6.177477   -1.927393    0.145664
     27          1           0        6.746386   -0.754621    1.328266
     28          1           0        8.382514    0.155819   -0.354249
     29          1           0        7.810372   -1.023617   -1.543571
     30          1           0        8.650290   -1.574673   -0.084055
     31          6           0        4.233222    0.031344    0.448175
     32          6           0        3.218080    1.049185   -0.072856
     33          6           0        1.874726    0.968976    0.652927
     34          1           0        3.816784   -0.979735    0.340042
     35          1           0        4.385883    0.193033    1.524045
     36          1           0        3.067963    0.885176   -1.147650
     37          1           0        3.636872    2.057950    0.034952
     38          1           0        2.003976    1.154174    1.724187
     39          1           0        1.431835   -0.025263    0.534866
     40          1           0        1.164059    1.705229    0.264670
 ---------------------------------------------------------------------

 SCF Done:  E(RHF) =  -470.732359633     A.U. after   11 cycles
 E2 =    -0.1582632208D+01 EUMP2 =    -0.47231499184061D+03

 The electronic state is 1-A.
 Alpha  occ. eigenvalues --  -11.21598 -11.21583 -11.21569 -11.21518 -11.21399
 Alpha  occ. eigenvalues --  -11.21353 -11.21340 -11.21291 -11.21069 -11.21046
 Alpha  occ. eigenvalues --  -11.21030 -11.20882  -1.08425  -1.08373  -1.03541
 Alpha  occ. eigenvalues --   -1.03451  -0.96039  -0.95859  -0.87114  -0.86825
 Alpha  occ. eigenvalues --   -0.79666  -0.79463  -0.78238  -0.78188  -0.65059
 Alpha  occ. eigenvalues --   -0.65006  -0.60961  -0.60866  -0.59539  -0.59120
 Alpha  occ. eigenvalues --   -0.57585  -0.57542  -0.55283  -0.55202  -0.53035
 Alpha  occ. eigenvalues --   -0.52457  -0.52316  -0.52189  -0.49890  -0.49854
 Alpha  occ. eigenvalues --   -0.47947  -0.47801  -0.46612  -0.46569  -0.45781
 Alpha  occ. eigenvalues --   -0.45730  -0.45702  -0.45659  -0.43951  -0.43469
 Alpha virt. eigenvalues --    0.22580   0.22978   0.23720   0.24743   0.26565
 Alpha virt. eigenvalues --    0.26670   0.27117   0.27259   0.27638   0.28919
 Alpha virt. eigenvalues --    0.29659   0.31194   0.31590   0.31789   0.32308

 Mulliken charges:
               1
     1  C   -0.298164
     2  C   -0.299561
     3  C   -0.475658
     4  H    0.149435
     5  H    0.149411
     6  H    0.151819
     7  H    0.151869
     8  H    0.155132
     9  H    0.155093
    10  H    0.160128
    11  C   -0.298395
    12  C   -0.299560
    13  C   -0.482434
    14  H    0.149232
    15  H    0.149462
    16  H    0.151091
    17  H    0.151689
    18  H    0.153781
    19  H    0.153621
    20  H    0.170658
    21  C   -0.298252
    22  C   -0.299631
    23  C   -0.475700
    24  H    0.149646
    25  H    0.149544
    26  H    0.151886
    27  H    0.151920
    28  H    0.155184
    29  H    0.155174
    30  H    0.160233
    31  C   -0.298653
    32  C   -0.299740
    33  C   -0.479795
    34  H    0.149531
    35  H    0.149604
    36  H    0.152160
    37  H    0.151916
    38  H    0.154955
    39  H    0.154995
    40  H    0.166370
 Sum of Mulliken charges =  -0.00000

 Dipole moment (field-independent basis, Debye):
    X=              0.0487    Y=              0.0128    Z=              0.0094  Tot=              0.0512
 Quadrupole moment (field-independent basis, Debye-Ang):
   XX=            -86.9240   YY=            -84.4500   ZZ=            -83.6848
   XY=             -0.2038   XZ=              0.8223   YZ=              1.0038

 Normal termination of Gaussian 16 at Wed May  5 23:02:52 2021.
