 Gaussian 16, Revision A.03,
 Gaussian 16:  EM64L-G16RevA.03 25-Dec-2016

 -------------
 #p 6-31g* mp2
 -------------

 ------------------------------------------------------
 Input file generated by CHIRIPA (05-May-2021 14:55:20)
 ------------------------------------------------------
 Symbolic Z-matrix:
 Charge =  0 Multiplicity = 1

                         Standard orientation:
 ---------------------------------------------------------------------
 Center     Atomic      Atomic             Coordinates (Angstroms)
 Number     Number       Type             X           Y           Z
 ---------------------------------------------------------------------
      1          6           0        1.194887   -1.818482    1.027398
      2          6           0        2.475360   -1.733416    1.583882
      3          6           0        3.425929   -0.859643    1.047704
      4          6           0        3.060450   -0.082114   -0.050096
      5          6           0        1.792866   -0.144217   -0.626867
      6          6           0        0.858320   -1.025009   -0.074258
      7          1           0        0.462686   -2.499976    1.450296
      8          1           0        2.739531   -2.348432    2.439460
      9          1           0        4.424449   -0.773801    1.458810
     10          1           0        1.558910    0.481558   -1.479562
     11          1           0       -0.135355   -1.088978   -0.508496
     12          7           0        4.058293    0.846626   -0.626421
     13          8           0        3.711499    1.520911   -1.593742
     14          8           0        5.168303    0.882702   -0.099910
     15          6           0       -3.953121    0.910623    0.331375
     16          6           0       -3.053636    2.136566    0.170208
     17          6           0       -3.559412    3.348012    0.954034
     18          1           0       -4.970011    1.163964    0.001681
     19          1           0       -4.024858    0.654764    1.397577
     20          1           0       -2.982502    2.389202   -0.895499
     21          1           0       -2.038725    1.880221    0.500145
     22          1           0       -3.613509    3.119735    2.023410
     23          1           0       -4.562650    3.631607    0.619836
     24          1           0       -2.901550    4.213077    0.824649
     25          6           0       -3.460621   -0.308558   -0.446294
     26          6           0       -4.360107   -1.534501   -0.285125
     27          6           0       -3.854331   -2.745948   -1.068951
     28          1           0       -3.388884   -0.052699   -1.512494
     29          1           0       -2.443732   -0.561898   -0.116599
     30          1           0       -5.375018   -1.278157   -0.615062
     31          1           0       -4.431240   -1.787137    0.780582
     32          1           0       -2.851093   -3.029543   -0.734752
     33          1           0       -3.800233   -2.517670   -2.138326
     34          1           0       -4.512193   -3.611012   -0.939567
 ---------------------------------------------------------------------

 SCF Done:  E(RHF) =  -669.535618657     A.U. after   15 cycles
 E2 =    -0.2091348828D+01 EUMP2 =    -0.67162696748406D+03

 The electronic state is 1-A.
 Alpha  occ. eigenvalues --  -20.60749 -20.60744 -15.85802 -11.31171 -11.27746
 Alpha  occ. eigenvalues --  -11.27733 -11.27491 -11.26761 -11.26719 -11.22444
 Alpha  occ. eigenvalues --  -11.22334 -11.22137 -11.22040 -11.21972 -11.21450
 Alpha  occ. eigenvalues --   -1.59824  -1.39378  -1.19345  -1.09192  -1.08740
 Alpha  occ. eigenvalues --   -1.04746  -1.04214  -0.96675  -0.95575  -0.87686
 Alpha  occ. eigenvalues --   -0.86148  -0.82405  -0.80292  -0.79018  -0.77446
 Alpha  occ. eigenvalues --   -0.72021  -0.71147  -0.70457  -0.65863  -0.64996
 Alpha  occ. eigenvalues --   -0.64731  -0.62104  -0.61598  -0.60046  -0.58279
 Alpha  occ. eigenvalues --   -0.55981  -0.55252  -0.53334  -0.53133  -0.53071
 Alpha  occ. eigenvalues --   -0.52820  -0.50617  -0.48792  -0.48775  -0.48590
 Alpha  occ. eigenvalues --   -0.47331  -0.46526  -0.46443  -0.44782  -0.44488
 Alpha  occ. eigenvalues --   -0.37329  -0.36345
 Alpha virt. eigenvalues --    0.05080   0.11234   0.16532   0.19356   0.22701
 Alpha virt. eigenvalues --    0.23643   0.24995   0.26350   0.27197   0.28186
 Alpha virt. eigenvalues --    0.29154   0.30514   0.31116   0.31248   0.31702

 Mulliken charges:
               1
     1  C   -0.172572
     2  C   -0.218549
     3  C   -0.171060
     4  C    0.158796
     5  C   -0.172325
     6  C   -0.225609
     7  H    0.224978
     8  H    0.223322
     9  H    0.275578
    10  H    0.276345
    11  H    0.233471
    12  N    0.488017
    13  O   -0.460322
    14  O   -0.460554
    15  C   -0.297827
    16  C   -0.301273
    17  C   -0.476198
    18  H    0.152756
    19  H    0.150268
    20  H    0.153052
    21  H    0.151495
    22  H    0.155602
    23  H    0.156208
    24  H    0.163671
    25  C   -0.303812
    26  C   -0.299991
    27  C   -0.475574
    28  H    0.151647
    29  H    0.142572
    30  H    0.156395
    31  H    0.152361
    32  H    0.146846
    33  H    0.157992
    34  H    0.164295
 Sum of Mulliken charges =  -0.00000

 Dipole moment (field-independent basis, Debye):
    X=             -3.7018    Y=             -3.1976    Z=              2.0255  Tot=              5.2944
 Quadrupole moment (field-independent basis, Debye-Ang):
   XX=           -113.3290   YY=            -95.0611   ZZ=            -92.5838
   XY=            -10.9264   XZ=              9.7471   YZ=             -1.9001

 Normal termination of Gaussian 16 at Thu May  6 10:48:35 2021.
