 Gaussian 16, Revision A.03,
 Gaussian 16:  EM64L-G16RevA.03 25-Dec-2016

 -------------
 #p 6-31g* mp2
 -------------

 ------------------------------------------------------
 Input file generated by CHIRIPA (05-May-2021 14:53:18)
 ------------------------------------------------------
 Symbolic Z-matrix:
 Charge =  0 Multiplicity = 1

                         Standard orientation:
 ---------------------------------------------------------------------
 Center     Atomic      Atomic             Coordinates (Angstroms)
 Number     Number       Type             X           Y           Z
 ---------------------------------------------------------------------
      1          6           0        3.757151   -0.105003    0.180923
      2          6           0        4.179687   -1.448823   -0.413717
      3          6           0        5.222890   -2.170995    0.439506
      4          1           0        4.644122    0.532943    0.296039
      5          1           0        3.356573   -0.268591    1.190959
      6          1           0        4.578069   -1.282913   -1.422866
      7          1           0        3.291579   -2.083574   -0.527608
      8          1           0        4.831801   -2.365476    1.443412
      9          1           0        6.125600   -1.560266    0.543068
     10          1           0        5.510656   -3.129295   -0.004015
     11          6           0        2.714692    0.628949   -0.660695
     12          6           0        2.292157    1.972769   -0.066055
     13          6           0        1.248954    2.694941   -0.919278
     14          1           0        3.115271    0.792538   -1.670730
     15          1           0        1.827721   -0.008997   -0.775811
     16          1           0        3.180265    2.607520    0.047837
     17          1           0        1.893775    1.806859    0.943094
     18          1           0        0.346243    2.084212   -1.022840
     19          1           0        1.640043    2.889423   -1.923184
     20          1           0        0.961188    3.653242   -0.475757
     21          6           0       -1.809155    2.093227    0.941585
     22          6           0       -1.506015    0.973350    1.722933
     23          6           0       -1.899372   -0.304658    1.314872
     24          6           0       -2.597566   -0.426818    0.114500
     25          6           0       -2.914518    0.669604   -0.685929
     26          6           0       -2.511201    1.938053   -0.258237
     27          1           0       -1.499717    3.082301    1.266202
     28          1           0       -0.960914    1.090859    2.655189
     29          1           0       -1.677863   -1.188692    1.900393
     30          1           0       -3.459142    0.520848   -1.610416
     31          1           0       -2.748004    2.805976   -0.867072
     32          7           0       -3.019267   -1.774728   -0.327887
     33          8           0       -3.633329   -1.855658   -1.389497
     34          8           0       -2.727749   -2.724767    0.395355
 ---------------------------------------------------------------------

 SCF Done:  E(RHF) =  -669.534845574     A.U. after   15 cycles
 E2 =    -0.2093052802D+01 EUMP2 =    -0.67162789837542D+03

 The electronic state is 1-A.
 Alpha  occ. eigenvalues --  -20.60831 -20.60825 -15.85887 -11.31271 -11.27868
 Alpha  occ. eigenvalues --  -11.27851 -11.27578 -11.26858 -11.26822 -11.22032
 Alpha  occ. eigenvalues --  -11.21703 -11.21648 -11.21579 -11.21463 -11.21148
 Alpha  occ. eigenvalues --   -1.59907  -1.39460  -1.19463  -1.08858  -1.08671
 Alpha  occ. eigenvalues --   -1.04864  -1.03788  -0.96252  -0.95664  -0.87268
 Alpha  occ. eigenvalues --   -0.86251  -0.82500  -0.79863  -0.78482  -0.77546
 Alpha  occ. eigenvalues --   -0.72103  -0.71233  -0.70554  -0.65322  -0.65104
 Alpha  occ. eigenvalues --   -0.64849  -0.62203  -0.61213  -0.59635  -0.57856
 Alpha  occ. eigenvalues --   -0.55633  -0.55336  -0.53246  -0.52943  -0.52920
 Alpha  occ. eigenvalues --   -0.52593  -0.50140  -0.48864  -0.48857  -0.48167
 Alpha  occ. eigenvalues --   -0.46886  -0.46025  -0.45939  -0.44862  -0.44053
 Alpha  occ. eigenvalues --   -0.37343  -0.36457
 Alpha virt. eigenvalues --    0.04981   0.11100   0.16435   0.20675   0.22774
 Alpha virt. eigenvalues --    0.24152   0.26094   0.26828   0.26919   0.27842
 Alpha virt. eigenvalues --    0.28750   0.30202   0.31218   0.31661   0.32310

 Mulliken charges:
               1
     1  C   -0.297887
     2  C   -0.300518
     3  C   -0.475762
     4  H    0.149370
     5  H    0.146938
     6  H    0.152611
     7  H    0.154941
     8  H    0.154717
     9  H    0.154560
    10  H    0.162014
    11  C   -0.299231
    12  C   -0.297441
    13  C   -0.482131
    14  H    0.150837
    15  H    0.152666
    16  H    0.152083
    17  H    0.145085
    18  H    0.165651
    19  H    0.156172
    20  H    0.149345
    21  C   -0.166199
    22  C   -0.219018
    23  C   -0.171365
    24  C    0.157934
    25  C   -0.171127
    26  C   -0.220300
    27  H    0.227399
    28  H    0.223913
    29  H    0.275922
    30  H    0.276240
    31  H    0.224953
    32  N    0.488142
    33  O   -0.460071
    34  O   -0.460444
 Sum of Mulliken charges =  -0.00000

 Dipole moment (field-independent basis, Debye):
    X=              1.4282    Y=              4.6756    Z=              1.5246  Tot=              5.1211
 Quadrupole moment (field-independent basis, Debye-Ang):
   XX=           -102.2225   YY=            -99.0378   ZZ=            -91.2937
   XY=            -13.5987   XZ=             -2.8286   YZ=             -1.8500

 Normal termination of Gaussian 16 at Thu May  6 01:14:32 2021.
