 Gaussian 16, Revision A.03,
 Gaussian 16:  EM64L-G16RevA.03 25-Dec-2016

 -------------
 #p 6-31g* mp2
 -------------

 ------------------------------------------------------
 Input file generated by CHIRIPA (05-May-2021 14:57:26)
 ------------------------------------------------------
 Symbolic Z-matrix:
 Charge =  0 Multiplicity = 1

                         Standard orientation:
 ---------------------------------------------------------------------
 Center     Atomic      Atomic             Coordinates (Angstroms)
 Number     Number       Type             X           Y           Z
 ---------------------------------------------------------------------
      1          6           0        2.523357   -1.367832    2.022868
      2          6           0        1.827853   -1.484327    0.814884
      3          6           0        2.233927   -0.761445   -0.310769
      4          6           0        3.344797    0.072367   -0.192387
      5          6           0        4.058454    0.209763    0.997196
      6          6           0        3.634478   -0.522648    2.110015
      7          1           0        2.200956   -1.933085    2.892317
      8          1           0        0.964587   -2.139943    0.744286
      9          1           0        1.713766   -0.832813   -1.258269
     10          1           0        4.915266    0.871368    1.036818
     11          1           0        4.176531   -0.430204    3.046859
     12          7           0        3.784165    0.842694   -1.377271
     13          8           0        4.765995    1.570485   -1.247013
     14          8           0        3.138391    0.704100   -2.413807
     15          6           0       -3.622022    2.351127    0.981787
     16          6           0       -2.468202    1.624269    1.293073
     17          6           0       -2.264001    0.350904    0.753266
     18          6           0       -3.238582   -0.167429   -0.098093
     19          6           0       -4.398578    0.532101   -0.427269
     20          6           0       -4.581835    1.803689    0.124121
     21          1           0       -3.772515    3.339617    1.405621
     22          1           0       -1.721107    2.046911    1.958856
     23          1           0       -1.379944   -0.233561    0.977459
     24          1           0       -5.125489    0.084387   -1.094029
     25          1           0       -5.478870    2.365895   -0.119389
     26          7           0       -3.033489   -1.514542   -0.675693
     27          8           0       -3.907150   -1.948902   -1.423146
     28          8           0       -2.002961   -2.110542   -0.370027
 ---------------------------------------------------------------------

 SCF Done:  E(RHF) =  -868.339748303     A.U. after   16 cycles
 E2 =    -0.2599260184D+01 EUMP2 =    -0.87093900848770D+03

 The electronic state is 1-A.
 Alpha  occ. eigenvalues --  -20.61435 -20.61368 -20.60686 -20.60673 -15.86448
 Alpha  occ. eigenvalues --  -15.85732 -11.31598 -11.31081 -11.28167 -11.28117
 Alpha  occ. eigenvalues --  -11.27830 -11.27689 -11.27568 -11.27386 -11.27113
 Alpha  occ. eigenvalues --  -11.27089 -11.26702 -11.26496  -1.60461  -1.59760
 Alpha  occ. eigenvalues --   -1.40029  -1.39312  -1.19747  -1.19254  -1.09177
 Alpha  occ. eigenvalues --   -1.08654  -1.05122  -1.04624  -0.96051  -0.95488
 Alpha  occ. eigenvalues --   -0.86533  -0.86021  -0.82901  -0.82294  -0.77983
 Alpha  occ. eigenvalues --   -0.77334  -0.72682  -0.71947  -0.71768  -0.71087
 Alpha  occ. eigenvalues --   -0.70859  -0.70350  -0.65409  -0.65130  -0.64885
 Alpha  occ. eigenvalues --   -0.64568  -0.62491  -0.61918  -0.55624  -0.55138
 Alpha  occ. eigenvalues --   -0.53456  -0.53246  -0.52971  -0.52659  -0.49439
 Alpha  occ. eigenvalues --   -0.49388  -0.48708  -0.48701  -0.45481  -0.44720
 Alpha  occ. eigenvalues --   -0.37707  -0.37266  -0.36716  -0.36245
 Alpha virt. eigenvalues --    0.04551   0.05145   0.10940   0.11313   0.16098
 Alpha virt. eigenvalues --    0.16541   0.20700   0.21837   0.26149   0.27317
 Alpha virt. eigenvalues --    0.28481   0.28660   0.30400   0.31318   0.32275

 Mulliken charges:
               1
     1  C   -0.174125
     2  C   -0.233536
     3  C   -0.174572
     4  C    0.157895
     5  C   -0.172162
     6  C   -0.219365
     7  H    0.225927
     8  H    0.245508
     9  H    0.281666
    10  H    0.274652
    11  H    0.222161
    12  N    0.487836
    13  O   -0.461924
    14  O   -0.458833
    15  C   -0.169623
    16  C   -0.218699
    17  C   -0.171455
    18  C    0.158554
    19  C   -0.169903
    20  C   -0.218267
    21  H    0.227551
    22  H    0.224911
    23  H    0.270918
    24  H    0.276647
    25  H    0.225307
    26  N    0.491970
    27  O   -0.454963
    28  O   -0.474078
 Sum of Mulliken charges =  -0.00000

 Dipole moment (field-independent basis, Debye):
    X=             -2.5110    Y=              2.0528    Z=              6.1214  Tot=              6.9275
 Quadrupole moment (field-independent basis, Debye-Ang):
   XX=           -103.9902   YY=           -106.9755   ZZ=           -105.3450
   XY=            -23.8062   XZ=             12.5139   YZ=              1.1897

 Normal termination of Gaussian 16 at Thu May  6 19:44:18 2021.
