 Gaussian 16, Revision A.03,
 Gaussian 16:  EM64L-G16RevA.03 25-Dec-2016

 -------------
 #p 6-31g* mp2
 -------------

 ------------------------------------------------------
 Input file generated by CHIRIPA (05-May-2021 14:57:26)
 ------------------------------------------------------
 Symbolic Z-matrix:
 Charge =  0 Multiplicity = 1

                         Standard orientation:
 ---------------------------------------------------------------------
 Center     Atomic      Atomic             Coordinates (Angstroms)
 Number     Number       Type             X           Y           Z
 ---------------------------------------------------------------------
      1          6           0        2.545909    2.345110    0.237759
      2          6           0        2.940175    1.572563    1.335141
      3          6           0        3.331374    0.241504    1.162540
      4          6           0        3.316283   -0.287308   -0.127197
      5          6           0        2.928673    0.456803   -1.240457
      6          6           0        2.541425    1.785750   -1.044278
      7          1           0        2.243551    3.378288    0.380998
      8          1           0        2.944640    2.004334    2.331936
      9          1           0        3.641195   -0.379161    1.994528
     10          1           0        2.934575   -0.001376   -2.222015
     11          1           0        2.235715    2.383352   -1.898361
     12          7           0        3.728338   -1.695323   -0.322402
     13          8           0        3.706302   -2.137762   -1.468874
     14          8           0        4.065539   -2.329824    0.674764
     15          6           0       -1.119390    1.378900    0.380166
     16          6           0       -2.061675    1.766616   -0.578112
     17          6           0       -3.244797    1.040681   -0.744817
     18          6           0       -3.454194   -0.072717    0.067458
     19          6           0       -2.534582   -0.484174    1.030945
     20          6           0       -1.358430    0.256722    1.180226
     21          1           0       -0.203019    1.948636    0.502898
     22          1           0       -1.878694    2.637683   -1.200850
     23          1           0       -3.991233    1.318628   -1.478980
     24          1           0       -2.745019   -1.357039    1.636950
     25          1           0       -0.628415   -0.046711    1.925243
     26          7           0       -4.703023   -0.849150   -0.099802
     27          8           0       -4.863836   -1.826221    0.628283
     28          8           0       -5.497396   -0.465946   -0.955818
 ---------------------------------------------------------------------

 SCF Done:  E(RHF) =  -868.336556954     A.U. after   16 cycles
 E2 =    -0.2601780663D+01 EUMP2 =    -0.87093833761721D+03

 The electronic state is 1-A.
 Alpha  occ. eigenvalues --  -20.61567 -20.61556 -20.60840 -20.60831 -15.86625
 Alpha  occ. eigenvalues --  -15.85896 -11.32268 -11.31305 -11.28861 -11.28811
 Alpha  occ. eigenvalues --  -11.28675 -11.27975 -11.27931 -11.27925 -11.27879
 Alpha  occ. eigenvalues --  -11.27576 -11.26961 -11.26882  -1.60633  -1.59913
 Alpha  occ. eigenvalues --   -1.40179  -1.39465  -1.20480  -1.19495  -1.09853
 Alpha  occ. eigenvalues --   -1.08876  -1.05895  -1.04914  -0.96626  -0.95701
 Alpha  occ. eigenvalues --   -0.87286  -0.86311  -0.83428  -0.82542  -0.78408
 Alpha  occ. eigenvalues --   -0.77581  -0.72836  -0.72112  -0.71961  -0.71617
 Alpha  occ. eigenvalues --   -0.71238  -0.70614  -0.66118  -0.65881  -0.65148
 Alpha  occ. eigenvalues --   -0.64942  -0.63206  -0.62268  -0.56444  -0.55686
 Alpha  occ. eigenvalues --   -0.53993  -0.53968  -0.53207  -0.53011  -0.49618
 Alpha  occ. eigenvalues --   -0.49576  -0.48877  -0.48864  -0.45522  -0.44861
 Alpha  occ. eigenvalues --   -0.38506  -0.37650  -0.37302  -0.36527
 Alpha virt. eigenvalues --    0.04049   0.04965   0.10100   0.11121   0.15379
 Alpha virt. eigenvalues --    0.16443   0.19926   0.21686   0.26076   0.26657
 Alpha virt. eigenvalues --    0.27213   0.29008   0.29777   0.31507   0.31814

 Mulliken charges:
               1
     1  C   -0.188651
     2  C   -0.220786
     3  C   -0.172946
     4  C    0.160959
     5  C   -0.167761
     6  C   -0.215842
     7  H    0.227112
     8  H    0.226788
     9  H    0.278829
    10  H    0.280314
    11  H    0.225987
    12  N    0.487831
    13  O   -0.456003
    14  O   -0.458072
    15  C   -0.170280
    16  C   -0.222681
    17  C   -0.169995
    18  C    0.158150
    19  C   -0.169555
    20  C   -0.222470
    21  H    0.227423
    22  H    0.218251
    23  H    0.275392
    24  H    0.277094
    25  H    0.222735
    26  N    0.488076
    27  O   -0.459208
    28  O   -0.460691
 Sum of Mulliken charges =  -0.00000

 Dipole moment (field-independent basis, Debye):
    X=              3.2317    Y=              7.4746    Z=              1.2052  Tot=              8.2320
 Quadrupole moment (field-independent basis, Debye-Ang):
   XX=           -144.9535   YY=           -107.3620   ZZ=            -97.6523
   XY=              5.9619   XZ=              2.6453   YZ=             -3.8535

 Normal termination of Gaussian 16 at Fri May  7 11:14:08 2021.
