 Gaussian 16, Revision A.03,
 Gaussian 16:  EM64L-G16RevA.03 25-Dec-2016

 -------------
 #p 6-31g* mp2
 -------------

 ------------------------------------------------------
 Input file generated by CHIRIPA (05-May-2021 14:57:25)
 ------------------------------------------------------
 Symbolic Z-matrix:
 Charge =  0 Multiplicity = 1

                         Standard orientation:
 ---------------------------------------------------------------------
 Center     Atomic      Atomic             Coordinates (Angstroms)
 Number     Number       Type             X           Y           Z
 ---------------------------------------------------------------------
      1          6           0       -3.292542    2.412474    0.481822
      2          6           0       -2.478267    1.354087    0.898108
      3          6           0       -2.832796    0.031676    0.615111
      4          6           0       -4.013793   -0.197105   -0.089301
      5          6           0       -4.846024    0.835992   -0.517542
      6          6           0       -4.471743    2.150511   -0.223431
      7          1           0       -3.009463    3.436690    0.705977
      8          1           0       -1.561918    1.554551    1.445979
      9          1           0       -2.220897   -0.806575    0.925486
     10          1           0       -5.753513    0.604759   -1.061981
     11          1           0       -5.106056    2.970489   -0.547972
     12          7           0       -4.399572   -1.592905   -0.394780
     13          8           0       -5.445075   -1.767952   -1.016807
     14          8           0       -3.649137   -2.485457   -0.006403
     15          6           0        1.565033    0.042343    0.858210
     16          6           0        2.405997   -1.005552    1.247077
     17          6           0        3.729364   -1.057442    0.799245
     18          6           0        4.180801   -0.040218   -0.040249
     19          6           0        3.367368    1.016930   -0.445286
     20          6           0        2.047552    1.048466    0.014757
     21          1           0        0.538389    0.074747    1.210840
     22          1           0        2.033977   -1.788289    1.902034
     23          1           0        4.401974   -1.857125    1.084761
     24          1           0        3.766778    1.782777   -1.099019
     25          1           0        1.396709    1.863487   -0.288869
     26          7           0        5.579912   -0.084377   -0.520812
     27          8           0        5.953513    0.823976   -1.259699
     28          8           0        6.276440   -1.026506   -0.149492
 ---------------------------------------------------------------------

 SCF Done:  E(RHF) =  -868.336376176     A.U. after   16 cycles
 E2 =    -0.2600120201D+01 EUMP2 =    -0.87093649637686D+03

 The electronic state is 1-A.
 Alpha  occ. eigenvalues --  -20.61487 -20.61474 -20.61045 -20.61037 -15.86546
 Alpha  occ. eigenvalues --  -15.86100 -11.32067 -11.31576 -11.28767 -11.28608
 Alpha  occ. eigenvalues --  -11.28429 -11.28159 -11.28118 -11.28048 -11.27832
 Alpha  occ. eigenvalues --  -11.27623 -11.27271 -11.27196  -1.60555  -1.60116
 Alpha  occ. eigenvalues --   -1.40105  -1.39666  -1.20264  -1.19766  -1.09620
 Alpha  occ. eigenvalues --   -1.09170  -1.05716  -1.05177  -0.96430  -0.95985
 Alpha  occ. eigenvalues --   -0.87095  -0.86586  -0.83290  -0.82799  -0.78310
 Alpha  occ. eigenvalues --   -0.77804  -0.72760  -0.72318  -0.71880  -0.71438
 Alpha  occ. eigenvalues --   -0.71383  -0.70958  -0.65924  -0.65751  -0.65428
 Alpha  occ. eigenvalues --   -0.65189  -0.63072  -0.62514  -0.56206  -0.55760
 Alpha  occ. eigenvalues --   -0.53996  -0.53815  -0.53501  -0.53281  -0.49531
 Alpha  occ. eigenvalues --   -0.49506  -0.49087  -0.49064  -0.45477  -0.45046
 Alpha  occ. eigenvalues --   -0.38227  -0.37795  -0.37308  -0.36761
 Alpha virt. eigenvalues --    0.04252   0.04717   0.10319   0.10878   0.15604
 Alpha virt. eigenvalues --    0.16154   0.17764   0.22092   0.24674   0.26064
 Alpha virt. eigenvalues --    0.27596   0.29242   0.30046   0.30938   0.32605

 Mulliken charges:
               1
     1  C   -0.170223
     2  C   -0.223152
     3  C   -0.170438
     4  C    0.159519
     5  C   -0.169051
     6  C   -0.218126
     7  H    0.227822
     8  H    0.216692
     9  H    0.271010
    10  H    0.278879
    11  H    0.227038
    12  N    0.488377
    13  O   -0.457094
    14  O   -0.460451
    15  C   -0.172512
    16  C   -0.217868
    17  C   -0.169825
    18  C    0.159353
    19  C   -0.170186
    20  C   -0.218534
    21  H    0.217945
    22  H    0.226634
    23  H    0.277882
    24  H    0.276528
    25  H    0.220115
    26  N    0.487927
    27  O   -0.459688
    28  O   -0.458572
 Sum of Mulliken charges =  -0.00000

 Dipole moment (field-independent basis, Debye):
    X=             -3.6760    Y=              5.0377    Z=              2.6453  Tot=              6.7742
 Quadrupole moment (field-independent basis, Debye-Ang):
   XX=           -152.2097   YY=           -103.0864   ZZ=           -104.1391
   XY=            -22.0047   XZ=              5.7814   YZ=             -4.2673

 Normal termination of Gaussian 16 at Fri May  7 03:30:29 2021.
