 Gaussian 16, Revision A.03,
 Gaussian 16:  EM64L-G16RevA.03 25-Dec-2016

 -------------
 #p 6-31g* mp2
 -------------

 ------------------------------------------------------
 Input file generated by CHIRIPA (05-May-2021 14:57:24)
 ------------------------------------------------------
 Symbolic Z-matrix:
 Charge =  0 Multiplicity = 1

                         Standard orientation:
 ---------------------------------------------------------------------
 Center     Atomic      Atomic             Coordinates (Angstroms)
 Number     Number       Type             X           Y           Z
 ---------------------------------------------------------------------
      1          6           0        4.666905    2.241771    0.414764
      2          6           0        3.472032    2.169736   -0.308845
      3          6           0        2.850283    0.937589   -0.531981
      4          6           0        3.453720   -0.207705   -0.014818
      5          6           0        4.643800   -0.168539    0.710071
      6          6           0        5.247951    1.074462    0.921020
      7          1           0        5.143060    3.203148    0.583367
      8          1           0        3.018515    3.074644   -0.703191
      9          1           0        1.924898    0.853052   -1.088698
     10          1           0        5.071985   -1.087871    1.090733
     11          1           0        6.175869    1.127389    1.483349
     12          7           0        2.804817   -1.517868   -0.244591
     13          8           0        3.356626   -2.512289    0.221535
     14          8           0        1.756685   -1.525547   -0.886461
     15          6           0       -5.832401    0.739927    0.780327
     16          6           0       -5.043849   -0.089705    1.584328
     17          6           0       -3.783546   -0.510409    1.149364
     18          6           0       -3.341044   -0.080555   -0.100719
     19          6           0       -4.103252    0.746049   -0.924767
     20          6           0       -5.360418    1.154424   -0.469452
     21          1           0       -6.810216    1.061952    1.126122
     22          1           0       -5.407830   -0.413172    2.555375
     23          1           0       -3.152388   -1.152664    1.751499
     24          1           0       -3.713378    1.052045   -1.887981
     25          1           0       -5.970650    1.798729   -1.095977
     26          7           0       -2.008479   -0.519411   -0.571969
     27          8           0       -1.641463   -0.126819   -1.677322
     28          8           0       -1.356263   -1.247666    0.172944
 ---------------------------------------------------------------------

 SCF Done:  E(RHF) =  -868.335553662     A.U. after   16 cycles
 E2 =    -0.2600615583D+01 EUMP2 =    -0.87093616924549D+03

 The electronic state is 1-A.
 Alpha  occ. eigenvalues --  -20.60213 -20.60154 -20.59397 -20.59204 -15.85251
 Alpha  occ. eigenvalues --  -15.84343 -11.30872 -11.30117 -11.27485 -11.27452
 Alpha  occ. eigenvalues --  -11.27257 -11.26790 -11.26660 -11.26614 -11.26548
 Alpha  occ. eigenvalues --  -11.26525 -11.25895 -11.25846  -1.59247  -1.58378
 Alpha  occ. eigenvalues --   -1.38800  -1.37911  -1.19067  -1.18345  -1.08411
 Alpha  occ. eigenvalues --   -1.07678  -1.04507  -1.03805  -0.95200  -0.94433
 Alpha  occ. eigenvalues --   -0.85893  -0.85184  -0.82033  -0.81256  -0.77041
 Alpha  occ. eigenvalues --   -0.76221  -0.71448  -0.70622  -0.70539  -0.70171
 Alpha  occ. eigenvalues --   -0.69713  -0.69453  -0.64712  -0.64508  -0.63984
 Alpha  occ. eigenvalues --   -0.63821  -0.61850  -0.61131  -0.54995  -0.54322
 Alpha  occ. eigenvalues --   -0.52826  -0.52601  -0.52126  -0.51900  -0.48220
 Alpha  occ. eigenvalues --   -0.48169  -0.47363  -0.47285  -0.44168  -0.43178
 Alpha  occ. eigenvalues --   -0.37065  -0.36370  -0.36124  -0.35432
 Alpha virt. eigenvalues --    0.05484   0.06313   0.11526   0.12216   0.16932
 Alpha virt. eigenvalues --    0.17711   0.21641   0.22285   0.27535   0.28162
 Alpha virt. eigenvalues --    0.28553   0.29255   0.31170   0.31797   0.32798

 Mulliken charges:
               1
     1  C   -0.172344
     2  C   -0.219739
     3  C   -0.173558
     4  C    0.158520
     5  C   -0.172142
     6  C   -0.219158
     7  H    0.221169
     8  H    0.220158
     9  H    0.286675
    10  H    0.273362
    11  H    0.219409
    12  N    0.485698
    13  O   -0.470487
    14  O   -0.438884
    15  C   -0.171680
    16  C   -0.218553
    17  C   -0.171546
    18  C    0.158461
    19  C   -0.172093
    20  C   -0.218545
    21  H    0.224271
    22  H    0.222754
    23  H    0.276955
    24  H    0.274114
    25  H    0.221892
    26  N    0.486044
    27  O   -0.463352
    28  O   -0.447399
 Sum of Mulliken charges =  -0.00000

 Dipole moment (field-independent basis, Debye):
    X=             -2.6691    Y=              5.9404    Z=              2.3607  Tot=              6.9272
 Quadrupole moment (field-independent basis, Debye-Ang):
   XX=            -58.5005   YY=           -106.2033   ZZ=           -101.2229
   XY=              8.4396   XZ=              0.0151   YZ=             -4.3272

 Normal termination of Gaussian 16 at Wed May  5 19:28:35 2021.
