 Gaussian 16, Revision A.03,
 Gaussian 16:  EM64L-G16RevA.03 25-Dec-2016

 -------------
 #p 6-31g* mp2
 -------------

 ------------------------------------------------------
 Input file generated by CHIRIPA (05-May-2021 14:55:25)
 ------------------------------------------------------
 Symbolic Z-matrix:
 Charge =  0 Multiplicity = 1

                         Standard orientation:
 ---------------------------------------------------------------------
 Center     Atomic      Atomic             Coordinates (Angstroms)
 Number     Number       Type             X           Y           Z
 ---------------------------------------------------------------------
      1          6           0       -0.202552   -1.769365    0.538794
      2          6           0       -0.788770   -1.844420   -0.728974
      3          6           0       -1.990381   -1.181550   -0.995961
      4          6           0       -2.581152   -0.449353    0.032712
      5          6           0       -2.021736   -0.355457    1.306104
      6          6           0       -0.819817   -1.026433    1.550504
      7          1           0        0.731008   -2.287448    0.737423
      8          1           0       -0.311634   -2.420651   -1.516593
      9          1           0       -2.465960   -1.222786   -1.968350
     10          1           0       -2.520978    0.226761    2.071087
     11          1           0       -0.366832   -0.966376    2.536020
     12          7           0       -3.853406    0.256689   -0.237978
     13          8           0       -4.353943    0.895168    0.685301
     14          8           0       -4.325972    0.158236   -1.368299
     15          6           0        3.235225    0.063403    0.228116
     16          6           0        4.185170   -0.774432   -0.628402
     17          6           0        4.575680   -2.093251    0.039439
     18          1           0        3.709852    0.268102    1.197535
     19          1           0        2.330602   -0.523019    0.440622
     20          1           0        5.087136   -0.186099   -0.840386
     21          1           0        3.708305   -0.976999   -1.595967
     22          1           0        3.687993   -2.703080    0.236220
     23          1           0        5.074658   -1.907685    0.996094
     24          1           0        5.255094   -2.676305   -0.590089
     25          6           0        2.835734    1.384833   -0.426068
     26          6           0        1.885790    2.222669    0.430449
     27          6           0        1.495280    3.541488   -0.237393
     28          1           0        3.740359    1.971256   -0.638575
     29          1           0        2.361108    1.180134   -1.395488
     30          1           0        2.362656    2.425236    1.398014
     31          1           0        0.983824    1.634335    0.642434
     32          1           0        0.996301    3.355921   -1.194047
     33          1           0        2.382967    4.151316   -0.434174
     34          1           0        0.815866    4.124541    0.392136
 ---------------------------------------------------------------------

 SCF Done:  E(RHF) =  -669.534988945     A.U. after   15 cycles
 E2 =    -0.2093540813D+01 EUMP2 =    -0.67162852975754D+03

 The electronic state is 1-A.
 Alpha  occ. eigenvalues --  -20.60838 -20.60833 -15.85894 -11.31296 -11.27878
 Alpha  occ. eigenvalues --  -11.27868 -11.27611 -11.26900 -11.26884 -11.22345
 Alpha  occ. eigenvalues --  -11.22032 -11.21988 -11.21883 -11.21806 -11.21234
 Alpha  occ. eigenvalues --   -1.59913  -1.39465  -1.19484  -1.09016  -1.08849
 Alpha  occ. eigenvalues --   -1.04885  -1.04062  -0.96522  -0.95700  -0.87534
 Alpha  occ. eigenvalues --   -0.86278  -0.82530  -0.80143  -0.78798  -0.77559
 Alpha  occ. eigenvalues --   -0.72111  -0.71237  -0.70622  -0.65643  -0.65132
 Alpha  occ. eigenvalues --   -0.64865  -0.62223  -0.61464  -0.59908  -0.58124
 Alpha  occ. eigenvalues --   -0.55866  -0.55382  -0.53296  -0.53139  -0.52969
 Alpha  occ. eigenvalues --   -0.52938  -0.50476  -0.48875  -0.48863  -0.48452
 Alpha  occ. eigenvalues --   -0.47185  -0.46321  -0.46220  -0.44863  -0.44306
 Alpha  occ. eigenvalues --   -0.37382  -0.36473
 Alpha virt. eigenvalues --    0.04925   0.11129   0.16288   0.19471   0.22880
 Alpha virt. eigenvalues --    0.23508   0.25570   0.26438   0.27077   0.27763
 Alpha virt. eigenvalues --    0.28933   0.30196   0.31148   0.31566   0.32234

 Mulliken charges:
               1
     1  C   -0.171029
     2  C   -0.220602
     3  C   -0.170692
     4  C    0.158912
     5  C   -0.171331
     6  C   -0.218351
     7  H    0.229307
     8  H    0.224153
     9  H    0.276092
    10  H    0.276400
    11  H    0.225608
    12  N    0.488074
    13  O   -0.459997
    14  O   -0.460126
    15  C   -0.303609
    16  C   -0.300226
    17  C   -0.475318
    18  H    0.149546
    19  H    0.145992
    20  H    0.156005
    21  H    0.150742
    22  H    0.144680
    23  H    0.157952
    24  H    0.163985
    25  C   -0.296769
    26  C   -0.304621
    27  C   -0.475963
    28  H    0.150853
    29  H    0.150250
    30  H    0.149770
    31  H    0.155761
    32  H    0.157072
    33  H    0.155038
    34  H    0.162440
 Sum of Mulliken charges =  -0.00000

 Dipole moment (field-independent basis, Debye):
    X=              4.4496    Y=             -2.4385    Z=              0.9323  Tot=              5.1589
 Quadrupole moment (field-independent basis, Debye-Ang):
   XX=           -117.9039   YY=            -93.3663   ZZ=            -90.2094
   XY=              5.2095   XZ=             -2.3188   YZ=              1.8339

 Normal termination of Gaussian 16 at Thu May  6 17:45:24 2021.
