 Gaussian 16, Revision A.03,
 Gaussian 16:  EM64L-G16RevA.03 25-Dec-2016

 -------------
 #p 6-31g* mp2
 -------------

 ------------------------------------------------------
 Input file generated by CHIRIPA (05-May-2021 14:51:10)
 ------------------------------------------------------
 Symbolic Z-matrix:
 Charge =  0 Multiplicity = 1

                         Standard orientation:
 ---------------------------------------------------------------------
 Center     Atomic      Atomic             Coordinates (Angstroms)
 Number     Number       Type             X           Y           Z
 ---------------------------------------------------------------------
      1          6           0       -2.012309   -0.554332   -0.420922
      2          6           0       -2.575447   -1.542547   -1.442829
      3          6           0       -1.598369   -2.670799   -1.774732
      4          1           0       -1.076702   -0.128791   -0.808865
      5          1           0       -1.751407   -1.096940    0.498263
      6          1           0       -2.836497   -0.998014   -2.359318
      7          1           0       -3.509922   -1.965641   -1.052492
      8          1           0       -1.346051   -3.239380   -0.873814
      9          1           0       -0.668799   -2.266254   -2.188065
     10          1           0       -2.021200   -3.365595   -2.507078
     11          6           0       -2.977476    0.579328   -0.078877
     12          6           0       -2.414339    1.567542    0.943029
     13          6           0       -3.391417    2.695795    1.274932
     14          1           0       -3.238379    1.121936   -0.998063
     15          1           0       -3.913083    0.153787    0.309065
     16          1           0       -1.479864    1.990637    0.552692
     17          1           0       -2.153289    1.023009    1.859519
     18          1           0       -4.320987    2.291250    1.688266
     19          1           0       -3.643735    3.264375    0.374014
     20          1           0       -2.968586    3.390591    2.007278
     21          6           0        2.617892   -0.733432    0.470257
     22          6           0        1.556917   -1.261593    1.436363
     23          6           0        1.816741   -2.705152    1.868130
     24          1           0        2.653205   -1.381968   -0.415802
     25          1           0        3.605227   -0.802305    0.947562
     26          1           0        0.571713   -1.190459    0.957897
     27          1           0        1.523994   -0.611614    2.320138
     28          1           0        2.786613   -2.788785    2.369084
     29          1           0        1.828922   -3.370919    0.999104
     30          1           0        1.046360   -3.062537    2.558529
     31          6           0        2.371894    0.708436    0.029543
     32          6           0        3.432869    1.236597   -0.936563
     33          6           0        3.173044    2.680157   -1.368331
     34          1           0        1.384559    0.777308   -0.447763
     35          1           0        2.336581    1.356972    0.915602
     36          1           0        3.465792    0.586619   -1.820339
     37          1           0        4.418073    1.165464   -0.458097
     38          1           0        3.160864    3.345923   -0.499304
     39          1           0        2.203173    2.763789   -1.869285
     40          1           0        3.943425    3.037541   -2.058729
 ---------------------------------------------------------------------

 SCF Done:  E(RHF) =  -470.732746186     A.U. after   11 cycles
 E2 =    -0.1584494772D+01 EUMP2 =    -0.47231724095751D+03

 The electronic state is 1-A.
 Alpha  occ. eigenvalues --  -11.21677 -11.21608 -11.21597 -11.21469 -11.21416
 Alpha  occ. eigenvalues --  -11.21403 -11.21366 -11.21292 -11.21156 -11.21086
 Alpha  occ. eigenvalues --  -11.21079 -11.20999  -1.08510  -1.08366  -1.03582
 Alpha  occ. eigenvalues --   -1.03475  -0.96035  -0.95940  -0.87055  -0.86952
 Alpha  occ. eigenvalues --   -0.79673  -0.79530  -0.78503  -0.78014  -0.65149
 Alpha  occ. eigenvalues --   -0.65000  -0.60987  -0.60877  -0.59407  -0.59300
 Alpha  occ. eigenvalues --   -0.57651  -0.57549  -0.55342  -0.55216  -0.52729
 Alpha  occ. eigenvalues --   -0.52634  -0.52478  -0.52357  -0.50018  -0.49847
 Alpha  occ. eigenvalues --   -0.48073  -0.47815  -0.46766  -0.46633  -0.46361
 Alpha  occ. eigenvalues --   -0.45707  -0.45664  -0.44975  -0.43835  -0.43729
 Alpha virt. eigenvalues --    0.20512   0.22832   0.23445   0.24679   0.25008
 Alpha virt. eigenvalues --    0.26140   0.26880   0.28039   0.28371   0.30660
 Alpha virt. eigenvalues --    0.31129   0.31279   0.31436   0.31783   0.32269

 Mulliken charges:
               1
     1  C   -0.307774
     2  C   -0.298815
     3  C   -0.477070
     4  H    0.154507
     5  H    0.153694
     6  H    0.152021
     7  H    0.152323
     8  H    0.156150
     9  H    0.154526
    10  H    0.161000
    11  C   -0.297289
    12  C   -0.301100
    13  C   -0.475702
    14  H    0.149400
    15  H    0.149769
    16  H    0.153446
    17  H    0.152465
    18  H    0.155118
    19  H    0.155140
    20  H    0.160472
    21  C   -0.297421
    22  C   -0.310071
    23  C   -0.475639
    24  H    0.149080
    25  H    0.149126
    26  H    0.164682
    27  H    0.150626
    28  H    0.154813
    29  H    0.155277
    30  H    0.158865
    31  C   -0.303566
    32  C   -0.299419
    33  C   -0.475579
    34  H    0.153151
    35  H    0.149938
    36  H    0.151656
    37  H    0.152210
    38  H    0.155306
    39  H    0.154336
    40  H    0.160347
 Sum of Mulliken charges =  -0.00000

 Dipole moment (field-independent basis, Debye):
    X=             -0.0643    Y=              0.0053    Z=             -0.0120  Tot=              0.0656
 Quadrupole moment (field-independent basis, Debye-Ang):
   XX=            -84.7183   YY=            -86.2411   ZZ=            -83.9180
   XY=              1.0749   XZ=              0.2814   YZ=              0.0389

 Normal termination of Gaussian 16 at Wed May  5 21:26:49 2021.
