 Gaussian 16, Revision A.03,
 Gaussian 16:  EM64L-G16RevA.03 25-Dec-2016

 -------------
 #p 6-31g* mp2
 -------------

 ------------------------------------------------------
 Input file generated by CHIRIPA (05-May-2021 14:57:22)
 ------------------------------------------------------
 Symbolic Z-matrix:
 Charge =  0 Multiplicity = 1

                         Standard orientation:
 ---------------------------------------------------------------------
 Center     Atomic      Atomic             Coordinates (Angstroms)
 Number     Number       Type             X           Y           Z
 ---------------------------------------------------------------------
      1          6           0        1.431685    2.864056    0.198800
      2          6           0        1.802647    2.271262   -1.012606
      3          6           0        2.321233    0.973206   -1.038424
      4          6           0        2.455906    0.293743    0.171321
      5          6           0        2.095311    0.857172    1.394354
      6          6           0        1.578941    2.156366    1.396303
      7          1           0        1.029696    3.872859    0.209585
      8          1           0        1.689399    2.818493   -1.944141
      9          1           0        2.616363    0.490296   -1.962066
     10          1           0        2.219937    0.286690    2.306734
     11          1           0        1.291681    2.614223    2.338583
     12          7           0        3.003736   -1.081053    0.156623
     13          8           0        3.112475   -1.658575    1.236105
     14          8           0        3.314013   -1.555065   -0.934100
     15          6           0       -4.401179    0.883386    0.328253
     16          6           0       -3.597467    1.185553   -0.775950
     17          6           0       -2.467224    0.414631   -1.063660
     18          6           0       -2.168826   -0.656032   -0.222275
     19          6           0       -2.949896   -0.982301    0.885322
     20          6           0       -4.075403   -0.197671    1.153908
     21          1           0       -5.277340    1.487580    0.544325
     22          1           0       -3.848048    2.024523   -1.418900
     23          1           0       -1.827644    0.626314   -1.911921
     24          1           0       -2.674589   -1.824884    1.507960
     25          1           0       -4.697755   -0.434671    2.012135
     26          7           0       -0.974795   -1.479429   -0.516738
     27          8           0       -0.733448   -2.417402    0.239962
     28          8           0       -0.302871   -1.171243   -1.498662
 ---------------------------------------------------------------------

 SCF Done:  E(RHF) =  -868.336608493     A.U. after   16 cycles
 E2 =    -0.2602752955D+01 EUMP2 =    -0.87093936144722D+03

 The electronic state is 1-A.
 Alpha  occ. eigenvalues --  -20.60828 -20.60797 -20.59536 -20.59489 -15.85846
 Alpha  occ. eigenvalues --  -15.84589 -11.31330 -11.30295 -11.27942 -11.27895
 Alpha  occ. eigenvalues --  -11.27693 -11.27015 -11.26982 -11.26941 -11.26923
 Alpha  occ. eigenvalues --  -11.26889 -11.26124 -11.26081  -1.59880  -1.58558
 Alpha  occ. eigenvalues --   -1.39430  -1.38111  -1.19519  -1.18564  -1.08894
 Alpha  occ. eigenvalues --   -1.07899  -1.04943  -1.04035  -0.95707  -0.94667
 Alpha  occ. eigenvalues --   -0.86334  -0.85415  -0.82541  -0.81514  -0.77574
 Alpha  occ. eigenvalues --   -0.76463  -0.72067  -0.71273  -0.70833  -0.70632
 Alpha  occ. eigenvalues --   -0.69795  -0.69706  -0.65173  -0.64950  -0.64224
 Alpha  occ. eigenvalues --   -0.64070  -0.62289  -0.61374  -0.55443  -0.54583
 Alpha  occ. eigenvalues --   -0.53265  -0.53039  -0.52351  -0.52146  -0.48838
 Alpha  occ. eigenvalues --   -0.48806  -0.47609  -0.47537  -0.44836  -0.43414
 Alpha  occ. eigenvalues --   -0.37529  -0.36654  -0.36459  -0.35611
 Alpha virt. eigenvalues --    0.04945   0.06114   0.11095   0.12015   0.16448
 Alpha virt. eigenvalues --    0.17482   0.21201   0.21974   0.27081   0.27781
 Alpha virt. eigenvalues --    0.28194   0.28932   0.30740   0.31456   0.32346

 Mulliken charges:
               1
     1  C   -0.173054
     2  C   -0.224998
     3  C   -0.154157
     4  C    0.160208
     5  C   -0.173953
     6  C   -0.220544
     7  H    0.219485
     8  H    0.218171
     9  H    0.278960
    10  H    0.274639
    11  H    0.218557
    12  N    0.492742
    13  O   -0.463093
    14  O   -0.454324
    15  C   -0.171480
    16  C   -0.219563
    17  C   -0.169238
    18  C    0.159658
    19  C   -0.171380
    20  C   -0.219043
    21  H    0.225073
    22  H    0.221372
    23  H    0.272970
    24  H    0.277729
    25  H    0.223841
    26  N    0.486087
    27  O   -0.452756
    28  O   -0.461910
 Sum of Mulliken charges =  -0.00000

 Dipole moment (field-independent basis, Debye):
    X=             -6.0977    Y=              7.3164    Z=              0.9673  Tot=              9.5732
 Quadrupole moment (field-independent basis, Debye-Ang):
   XX=            -97.3133   YY=           -105.8418   ZZ=            -97.5474
   XY=              8.0275   XZ=             -3.5334   YZ=             -3.4713

 Normal termination of Gaussian 16 at Thu May  6 08:09:57 2021.
