 Gaussian 16, Revision A.03,
 Gaussian 16:  EM64L-G16RevA.03 25-Dec-2016

 -------------
 #p 6-31g* mp2
 -------------

 ------------------------------------------------------
 Input file generated by CHIRIPA (05-May-2021 14:51:08)
 ------------------------------------------------------
 Symbolic Z-matrix:
 Charge =  0 Multiplicity = 1

                         Standard orientation:
 ---------------------------------------------------------------------
 Center     Atomic      Atomic             Coordinates (Angstroms)
 Number     Number       Type             X           Y           Z
 ---------------------------------------------------------------------
      1          6           0       -3.724062    0.565671   -0.675088
      2          6           0       -2.440462    1.070665   -0.015287
      3          6           0       -1.635668    2.001164   -0.923182
      4          1           0       -3.468456    0.041179   -1.605958
      5          1           0       -4.344035    1.426496   -0.961458
      6          1           0       -1.823722    0.209105    0.271002
      7          1           0       -2.699138    1.593850    0.914219
      8          1           0       -2.229400    2.878704   -1.198876
      9          1           0       -1.349009    1.486091   -1.845748
     10          1           0       -0.722221    2.350340   -0.431704
     11          6           0       -4.539481   -0.365662    0.220142
     12          6           0       -5.823081   -0.870656   -0.439659
     13          6           0       -6.627875   -1.801155    0.468236
     14          1           0       -3.919508   -1.226487    0.506513
     15          1           0       -4.795087    0.158830    1.151012
     16          1           0       -5.564405   -1.393841   -1.369165
     17          1           0       -6.439821   -0.009096   -0.725948
     18          1           0       -6.914533   -1.286082    1.390802
     19          1           0       -6.034143   -2.678695    0.743931
     20          1           0       -7.541322   -2.150331   -0.023242
     21          6           0        3.387788   -0.204235    0.365517
     22          6           0        2.680123    1.057898    0.859701
     23          6           0        1.192323    0.833454    1.131491
     24          1           0        2.895512   -0.558043   -0.550686
     25          1           0        3.266685   -1.000567    1.112901
     26          1           0        2.803702    1.852026    0.112236
     27          1           0        3.174260    1.408851    1.774729
     28          1           0        1.052313    0.059801    1.893370
     29          1           0        0.679649    0.505494    0.221431
     30          1           0        0.706065    1.748490    1.483798
     31          6           0        4.875755    0.004225    0.089429
     32          6           0        5.583420   -1.257907   -0.404755
     33          6           0        7.071220   -1.033462   -0.676545
     34          1           0        4.996858    0.800559   -0.657955
     35          1           0        5.368030    0.358034    1.005632
     36          1           0        5.089282   -1.608860   -1.319782
     37          1           0        5.459840   -2.052035    0.342710
     38          1           0        7.583894   -0.705503    0.233514
     39          1           0        7.211229   -0.259810   -1.438424
     40          1           0        7.557478   -1.948500   -1.028853
 ---------------------------------------------------------------------

 SCF Done:  E(RHF) =  -470.731756589     A.U. after   11 cycles
 E2 =    -0.1583448715D+01 EUMP2 =    -0.47231520530366D+03

 The electronic state is 1-A.
 Alpha  occ. eigenvalues --  -11.21607 -11.21598 -11.21567 -11.21489 -11.21412
 Alpha  occ. eigenvalues --  -11.21353 -11.21350 -11.21288 -11.21075 -11.21045
 Alpha  occ. eigenvalues --  -11.21022 -11.20907  -1.08442  -1.08365  -1.03587
 Alpha  occ. eigenvalues --   -1.03422  -0.96089  -0.95826  -0.87086  -0.86864
 Alpha  occ. eigenvalues --   -0.79624  -0.79516  -0.78265  -0.78163  -0.65104
 Alpha  occ. eigenvalues --   -0.64984  -0.61114  -0.60784  -0.59589  -0.59106
 Alpha  occ. eigenvalues --   -0.57619  -0.57546  -0.55396  -0.55051  -0.52899
 Alpha  occ. eigenvalues --   -0.52488  -0.52406  -0.52189  -0.49912  -0.49801
 Alpha  occ. eigenvalues --   -0.47990  -0.47780  -0.46646  -0.46522  -0.45833
 Alpha  occ. eigenvalues --   -0.45719  -0.45708  -0.45581  -0.43828  -0.43657
 Alpha virt. eigenvalues --    0.21975   0.23041   0.23550   0.25077   0.26423
 Alpha virt. eigenvalues --    0.26678   0.27014   0.27364   0.27809   0.29197
 Alpha virt. eigenvalues --    0.29781   0.31235   0.31576   0.31651   0.32224

 Mulliken charges:
               1
     1  C   -0.297858
     2  C   -0.301746
     3  C   -0.481628
     4  H    0.149093
     5  H    0.149265
     6  H    0.155637
     7  H    0.151310
     8  H    0.154503
     9  H    0.152893
    10  H    0.167451
    11  C   -0.298198
    12  C   -0.299579
    13  C   -0.475664
    14  H    0.149441
    15  H    0.149563
    16  H    0.151790
    17  H    0.151853
    18  H    0.155126
    19  H    0.155113
    20  H    0.160112
    21  C   -0.298536
    22  C   -0.301124
    23  C   -0.479583
    24  H    0.149673
    25  H    0.149521
    26  H    0.152078
    27  H    0.151898
    28  H    0.154917
    29  H    0.161888
    30  H    0.160649
    31  C   -0.298276
    32  C   -0.299654
    33  C   -0.475710
    34  H    0.149628
    35  H    0.149704
    36  H    0.151888
    37  H    0.151892
    38  H    0.155198
    39  H    0.155225
    40  H    0.160248
 Sum of Mulliken charges =  -0.00000

 Dipole moment (field-independent basis, Debye):
    X=              0.0343    Y=             -0.0044    Z=              0.0226  Tot=              0.0413
 Quadrupole moment (field-independent basis, Debye-Ang):
   XX=            -86.3866   YY=            -84.5895   ZZ=            -84.1151
   XY=             -0.9137   XZ=              0.5622   YZ=              0.4773

 Normal termination of Gaussian 16 at Thu May  6 02:05:58 2021.
