 Gaussian 16, Revision A.03,
 Gaussian 16:  EM64L-G16RevA.03 25-Dec-2016

 -------------
 #p 6-31g* mp2
 -------------

 ------------------------------------------------------
 Input file generated by CHIRIPA (05-May-2021 14:55:25)
 ------------------------------------------------------
 Symbolic Z-matrix:
 Charge =  0 Multiplicity = 1

                         Standard orientation:
 ---------------------------------------------------------------------
 Center     Atomic      Atomic             Coordinates (Angstroms)
 Number     Number       Type             X           Y           Z
 ---------------------------------------------------------------------
      1          6           0       -0.976501   -2.105570    0.595212
      2          6           0       -0.604071   -0.917868   -0.042896
      3          6           0       -1.567011    0.035690   -0.386436
      4          6           0       -2.899250   -0.232232   -0.075556
      5          6           0       -3.301732   -1.406019    0.559679
      6          6           0       -2.321771   -2.345432    0.893936
      7          1           0       -0.221855   -2.840823    0.858477
      8          1           0        0.439935   -0.728912   -0.276114
      9          1           0       -1.306413    0.963596   -0.880904
     10          1           0       -4.350330   -1.566174    0.779246
     11          1           0       -2.613911   -3.266934    1.389450
     12          7           0       -3.927681    0.769770   -0.434333
     13          8           0       -5.094732    0.509916   -0.149541
     14          8           0       -3.547242    1.796020   -0.993541
     15          6           0        2.876580    0.951980    0.095667
     16          6           0        3.203585    2.376527    0.544801
     17          6           0        1.957967    3.251315    0.689623
     18          1           0        2.340331    0.990379   -0.862408
     19          1           0        2.188833    0.495145    0.820718
     20          1           0        3.891602    2.830057   -0.180153
     21          1           0        3.739287    2.334723    1.501823
     22          1           0        1.271250    2.824613    1.427827
     23          1           0        1.424430    3.322761   -0.263706
     24          1           0        2.214760    4.265369    1.011511
     25          6           0        4.111585    0.065298   -0.053619
     26          6           0        3.784581   -1.359247   -0.502753
     27          6           0        5.030199   -2.234037   -0.647575
     28          1           0        4.799333    0.522133   -0.778670
     29          1           0        4.647835    0.026900    0.904456
     30          1           0        3.248879   -1.317444   -1.459776
     31          1           0        3.096564   -1.812778    0.222200
     32          1           0        5.563736   -2.305482    0.305754
     33          1           0        5.716916   -1.807334   -1.385779
     34          1           0        4.773406   -3.248090   -0.969463
 ---------------------------------------------------------------------

 SCF Done:  E(RHF) =  -669.535374116     A.U. after   15 cycles
 E2 =    -0.2092363345D+01 EUMP2 =    -0.67162773746095D+03

 The electronic state is 1-A.
 Alpha  occ. eigenvalues --  -20.60680 -20.60675 -15.85731 -11.31074 -11.27644
 Alpha  occ. eigenvalues --  -11.27611 -11.27363 -11.26663 -11.26524 -11.22700
 Alpha  occ. eigenvalues --  -11.22429 -11.22295 -11.22276 -11.21921 -11.21576
 Alpha  occ. eigenvalues --   -1.59756  -1.39310  -1.19236  -1.09369  -1.08635
 Alpha  occ. eigenvalues --   -1.04629  -1.04351  -0.96781  -0.95478  -0.87794
 Alpha  occ. eigenvalues --   -0.86035  -0.82315  -0.80439  -0.79268  -0.77335
 Alpha  occ. eigenvalues --   -0.71950  -0.71078  -0.70351  -0.65990  -0.64883
 Alpha  occ. eigenvalues --   -0.64629  -0.61990  -0.61735  -0.60163  -0.58408
 Alpha  occ. eigenvalues --   -0.56050  -0.55140  -0.53452  -0.53275  -0.52967
 Alpha  occ. eigenvalues --   -0.52652  -0.50716  -0.48745  -0.48713  -0.48707
 Alpha  occ. eigenvalues --   -0.47472  -0.46680  -0.46630  -0.44720  -0.44632
 Alpha  occ. eigenvalues --   -0.37222  -0.36225
 Alpha virt. eigenvalues --    0.05160   0.11352   0.16617   0.19869   0.22616
 Alpha virt. eigenvalues --    0.22961   0.24888   0.25325   0.26788   0.28386
 Alpha virt. eigenvalues --    0.29275   0.30696   0.31098   0.31315   0.31637

 Mulliken charges:
               1
     1  C   -0.174101
     2  C   -0.227044
     3  C   -0.174606
     4  C    0.158924
     5  C   -0.171579
     6  C   -0.218323
     7  H    0.225131
     8  H    0.239319
     9  H    0.275455
    10  H    0.275082
    11  H    0.222724
    12  N    0.488067
    13  O   -0.460917
    14  O   -0.460598
    15  C   -0.307298
    16  C   -0.299238
    17  C   -0.477875
    18  H    0.146145
    19  H    0.148681
    20  H    0.155004
    21  H    0.154511
    22  H    0.156996
    23  H    0.155609
    24  H    0.165010
    25  C   -0.297054
    26  C   -0.303308
    27  C   -0.475809
    28  H    0.154028
    29  H    0.153038
    30  H    0.152061
    31  H    0.144028
    32  H    0.157570
    33  H    0.159056
    34  H    0.161313
 Sum of Mulliken charges =  -0.00000

 Dipole moment (field-independent basis, Debye):
    X=              3.9113    Y=             -3.4082    Z=              1.2801  Tot=              5.3435
 Quadrupole moment (field-independent basis, Debye-Ang):
   XX=           -113.2310   YY=            -91.8869   ZZ=            -93.9734
   XY=             12.6336   XZ=             -5.5341   YZ=             -1.6343

 Normal termination of Gaussian 16 at Wed May  5 16:08:21 2021.
