 Gaussian 16, Revision A.03,
 Gaussian 16:  EM64L-G16RevA.03 25-Dec-2016

 -------------
 #p 6-31g* mp2
 -------------

 ------------------------------------------------------
 Input file generated by CHIRIPA (05-May-2021 14:57:24)
 ------------------------------------------------------
 Symbolic Z-matrix:
 Charge =  0 Multiplicity = 1

                         Standard orientation:
 ---------------------------------------------------------------------
 Center     Atomic      Atomic             Coordinates (Angstroms)
 Number     Number       Type             X           Y           Z
 ---------------------------------------------------------------------
      1          6           0       -2.089598    2.365696   -0.009023
      2          6           0       -1.518772    1.097373    0.139423
      3          6           0       -2.318574   -0.048949    0.110959
      4          6           0       -3.691757    0.110517   -0.068567
      5          6           0       -4.290206    1.360488   -0.219301
      6          6           0       -3.471058    2.492981   -0.187597
      7          1           0       -1.460778    3.250814    0.014347
      8          1           0       -0.446208    0.995502    0.278254
      9          1           0       -1.902884   -1.042921    0.223382
     10          1           0       -5.362509    1.430220   -0.356126
     11          1           0       -3.917118    3.476711   -0.303144
     12          7           0       -4.548713   -1.095722   -0.100416
     13          8           0       -5.755855   -0.928370   -0.259903
     14          8           0       -3.997025   -2.185685    0.034712
     15          6           0        5.124633    1.641438   -0.224146
     16          6           0        5.425158    0.407263   -0.809824
     17          6           0        4.560272   -0.680489   -0.657137
     18          6           0        3.398341   -0.497912    0.091109
     19          6           0        3.071170    0.719162    0.686912
     20          6           0        3.950668    1.793181    0.521038
     21          1           0        5.802173    2.481097   -0.347880
     22          1           0        6.336162    0.286514   -1.389081
     23          1           0        4.768442   -1.647034   -1.099715
     24          1           0        2.155513    0.808936    1.258690
     25          1           0        3.714709    2.750495    0.977018
     26          7           0        2.474990   -1.642197    0.259732
     27          8           0        1.457680   -1.455517    0.923710
     28          8           0        2.786062   -2.704102   -0.275274
 ---------------------------------------------------------------------

 SCF Done:  E(RHF) =  -868.338455948     A.U. after   16 cycles
 E2 =    -0.2599707184D+01 EUMP2 =    -0.87093816313190D+03

 The electronic state is 1-A.
 Alpha  occ. eigenvalues --  -20.61678 -20.61602 -20.60179 -20.60149 -15.86672
 Alpha  occ. eigenvalues --  -15.85219 -11.31992 -11.30599 -11.28618 -11.28480
 Alpha  occ. eigenvalues --  -11.28228 -11.27573 -11.27485 -11.27253 -11.27056
 Alpha  occ. eigenvalues --  -11.27048 -11.26306 -11.26184  -1.60691  -1.59244
 Alpha  occ. eigenvalues --   -1.40254  -1.38793  -1.20142  -1.18804  -1.09536
 Alpha  occ. eigenvalues --   -1.08227  -1.05542  -1.04188  -0.96386  -0.95039
 Alpha  occ. eigenvalues --   -0.86941  -0.85613  -0.83225  -0.81850  -0.78296
 Alpha  occ. eigenvalues --   -0.76866  -0.72887  -0.72003  -0.71438  -0.71244
 Alpha  occ. eigenvalues --   -0.70569  -0.69947  -0.65796  -0.65545  -0.64457
 Alpha  occ. eigenvalues --   -0.64219  -0.62898  -0.61497  -0.56016  -0.54785
 Alpha  occ. eigenvalues --   -0.53861  -0.53636  -0.52556  -0.52276  -0.49650
 Alpha  occ. eigenvalues --   -0.49623  -0.48211  -0.48180  -0.45660  -0.44193
 Alpha  occ. eigenvalues --   -0.38096  -0.37141  -0.36853  -0.35794
 Alpha virt. eigenvalues --    0.04194   0.05638   0.10434   0.11828   0.15731
 Alpha virt. eigenvalues --    0.17087   0.19825   0.21983   0.25269   0.27024
 Alpha virt. eigenvalues --    0.28709   0.28799   0.30234   0.31008   0.32641

 Mulliken charges:
               1
     1  C   -0.171891
     2  C   -0.224060
     3  C   -0.173193
     4  C    0.158023
     5  C   -0.171511
     6  C   -0.219038
     7  H    0.218876
     8  H    0.225941
     9  H    0.290925
    10  H    0.273888
    11  H    0.220233
    12  N    0.487646
    13  O   -0.463755
    14  O   -0.456127
    15  C   -0.170228
    16  C   -0.217691
    17  C   -0.169866
    18  C    0.159425
    19  C   -0.176454
    20  C   -0.218261
    21  H    0.228080
    22  H    0.226666
    23  H    0.278459
    24  H    0.272141
    25  H    0.223426
    26  N    0.489516
    27  O   -0.469258
    28  O   -0.451914
 Sum of Mulliken charges =  -0.00000

 Dipole moment (field-independent basis, Debye):
    X=              6.6966    Y=              7.9835    Z=             -0.5484  Tot=             10.4347
 Quadrupole moment (field-independent basis, Debye-Ang):
   XX=            -99.6400   YY=           -105.4560   ZZ=           -104.8531
   XY=             -7.5062   XZ=             -4.1074   YZ=              1.8074

 Normal termination of Gaussian 16 at Fri May  7 12:35:43 2021.
