 Gaussian 16, Revision A.03,
 Gaussian 16:  EM64L-G16RevA.03 25-Dec-2016

 -------------
 #p 6-31g* mp2
 -------------

 ------------------------------------------------------
 Input file generated by CHIRIPA (05-May-2021 14:55:24)
 ------------------------------------------------------
 Symbolic Z-matrix:
 Charge =  0 Multiplicity = 1

                         Standard orientation:
 ---------------------------------------------------------------------
 Center     Atomic      Atomic             Coordinates (Angstroms)
 Number     Number       Type             X           Y           Z
 ---------------------------------------------------------------------
      1          6           0       -1.657963    1.466672   -0.310019
      2          6           0       -1.699279    0.069699   -0.367281
      3          6           0       -2.909882   -0.611831   -0.210736
      4          6           0       -4.065189    0.138560    0.002497
      5          6           0       -4.056468    1.531167    0.064612
      6          6           0       -2.834614    2.191670   -0.094635
      7          1           0       -0.713168    1.987934   -0.432676
      8          1           0       -0.787050   -0.495939   -0.534426
      9          1           0       -2.970494   -1.692643   -0.250600
     10          1           0       -4.982410    2.067679    0.232554
     11          1           0       -2.805528    3.276649   -0.049695
     12          7           0       -5.352755   -0.571815    0.169654
     13          8           0       -6.356579    0.112366    0.356395
     14          8           0       -5.333746   -1.799336    0.110766
     15          6           0        5.580057   -0.109672   -0.308362
     16          6           0        6.637403    0.401165    0.670948
     17          6           0        7.928554    0.832633   -0.025156
     18          1           0        5.992765   -0.955246   -0.875479
     19          1           0        5.357137    0.678719   -1.040579
     20          1           0        6.857255   -0.387467    1.401935
     21          1           0        6.222065    1.245500    1.235936
     22          1           0        7.729963    1.636416   -0.741463
     23          1           0        8.368761   -0.005829   -0.574520
     24          1           0        8.670561    1.194314    0.693504
     25          6           0        4.283579   -0.544762    0.372496
     26          6           0        3.226232   -1.055599   -0.606815
     27          6           0        1.935083   -1.487067    0.089290
     28          1           0        4.506500   -1.333152    1.104713
     29          1           0        3.870871    0.300812    0.939613
     30          1           0        3.641571   -1.899934   -1.171801
     31          1           0        3.006381   -0.266967   -1.337801
     32          1           0        1.494875   -0.648605    0.638655
     33          1           0        2.133674   -2.290849    0.805597
     34          1           0        1.193076   -1.848747   -0.629370
 ---------------------------------------------------------------------

 SCF Done:  E(RHF) =  -669.535240358     A.U. after   15 cycles
 E2 =    -0.2091183949D+01 EUMP2 =    -0.67162642430725D+03

 The electronic state is 1-A.
 Alpha  occ. eigenvalues --  -20.60700 -20.60695 -15.85751 -11.31102 -11.27669
 Alpha  occ. eigenvalues --  -11.27642 -11.27403 -11.26693 -11.26580 -11.22570
 Alpha  occ. eigenvalues --  -11.22309 -11.22169 -11.22135 -11.22007 -11.21521
 Alpha  occ. eigenvalues --   -1.59775  -1.39329  -1.19266  -1.09180  -1.08667
 Alpha  occ. eigenvalues --   -1.04666  -1.04314  -0.96787  -0.95506  -0.87820
 Alpha  occ. eigenvalues --   -0.86059  -0.82337  -0.80387  -0.78948  -0.77385
 Alpha  occ. eigenvalues --   -0.71970  -0.71098  -0.70386  -0.65822  -0.64916
 Alpha  occ. eigenvalues --   -0.64700  -0.62109  -0.61649  -0.60162  -0.58366
 Alpha  occ. eigenvalues --   -0.56074  -0.55175  -0.53601  -0.53205  -0.52992
 Alpha  occ. eigenvalues --   -0.52632  -0.50688  -0.48727  -0.48724  -0.48691
 Alpha  occ. eigenvalues --   -0.47395  -0.46498  -0.46400  -0.44738  -0.44553
 Alpha  occ. eigenvalues --   -0.37253  -0.36262
 Alpha virt. eigenvalues --    0.05141   0.11341   0.16637   0.20261   0.22467
 Alpha virt. eigenvalues --    0.23810   0.25862   0.26130   0.26714   0.27722
 Alpha virt. eigenvalues --    0.29164   0.29738   0.30860   0.31327   0.32431

 Mulliken charges:
               1
     1  C   -0.174499
     2  C   -0.225678
     3  C   -0.173917
     4  C    0.158970
     5  C   -0.171602
     6  C   -0.218271
     7  H    0.224864
     8  H    0.237127
     9  H    0.275521
    10  H    0.275195
    11  H    0.222824
    12  N    0.488065
    13  O   -0.460796
    14  O   -0.460543
    15  C   -0.298793
    16  C   -0.300124
    17  C   -0.476063
    18  H    0.151470
    19  H    0.149162
    20  H    0.153299
    21  H    0.151840
    22  H    0.155251
    23  H    0.156204
    24  H    0.161815
    25  C   -0.299132
    26  C   -0.299676
    27  C   -0.484026
    28  H    0.152390
    29  H    0.148806
    30  H    0.156592
    31  H    0.150007
    32  H    0.153294
    33  H    0.163787
    34  H    0.156636
 Sum of Mulliken charges =  -0.00000

 Dipole moment (field-independent basis, Debye):
    X=              4.8250    Y=              2.4372    Z=             -0.5588  Tot=              5.4344
 Quadrupole moment (field-independent basis, Debye-Ang):
   XX=           -131.1005   YY=            -89.4434   ZZ=            -95.7245
   XY=            -12.8586   XZ=              2.5626   YZ=              0.4828

 Normal termination of Gaussian 16 at Thu May  6 09:29:22 2021.
