 Gaussian 16, Revision A.03,
 Gaussian 16:  EM64L-G16RevA.03 25-Dec-2016

 -------------
 #p 6-31g* mp2
 -------------

 ------------------------------------------------------
 Input file generated by CHIRIPA (05-May-2021 14:55:21)
 ------------------------------------------------------
 Symbolic Z-matrix:
 Charge =  0 Multiplicity = 1

                         Standard orientation:
 ---------------------------------------------------------------------
 Center     Atomic      Atomic             Coordinates (Angstroms)
 Number     Number       Type             X           Y           Z
 ---------------------------------------------------------------------
      1          6           0       -2.033146    2.323797    0.468907
      2          6           0       -1.372299    1.436831    1.325115
      3          6           0       -1.485542    0.055522    1.141507
      4          6           0       -2.271427   -0.406315    0.086813
      5          6           0       -2.942090    0.452010   -0.783118
      6          6           0       -2.814555    1.829428   -0.580626
      7          1           0       -1.939625    3.395320    0.618872
      8          1           0       -0.764767    1.817924    2.141030
      9          1           0       -0.984741   -0.653534    1.789469
     10          1           0       -3.540547    0.042184   -1.587674
     11          1           0       -3.328910    2.515911   -1.247129
     12          7           0       -2.398878   -1.866585   -0.117560
     13          8           0       -3.097290   -2.248193   -1.054168
     14          8           0       -1.797949   -2.601887    0.662730
     15          6           0        2.769525    0.844898   -0.567247
     16          6           0        2.278696    2.031940    0.262214
     17          6           0        2.061221    3.290664   -0.578092
     18          1           0        3.707628    1.119195   -1.068915
     19          1           0        2.040003    0.635013   -1.361691
     20          1           0        3.008252    2.238648    1.055710
     21          1           0        1.341753    1.754721    0.762117
     22          1           0        1.317478    3.107848   -1.360412
     23          1           0        2.993445    3.594524   -1.065151
     24          1           0        1.710434    4.126854    0.034764
     25          6           0        2.991556   -0.420847    0.258778
     26          6           0        3.482384   -1.607889   -0.570684
     27          6           0        3.699859   -2.866612    0.269623
     28          1           0        3.721077   -0.210961    1.053222
     29          1           0        2.053453   -0.695144    0.760446
     30          1           0        4.419327   -1.330669   -1.070587
     31          1           0        2.752829   -1.814596   -1.364179
     32          1           0        2.767635   -3.170473    0.756682
     33          1           0        4.443602   -2.683797    1.051943
     34          1           0        4.050647   -3.702803   -0.343234
 ---------------------------------------------------------------------

 SCF Done:  E(RHF) =  -669.535135114     A.U. after   15 cycles
 E2 =    -0.2093314170D+01 EUMP2 =    -0.67162844928399D+03

 The electronic state is 1-A.
 Alpha  occ. eigenvalues --  -20.60869 -20.60863 -15.85922 -11.31311 -11.27878
 Alpha  occ. eigenvalues --  -11.27864 -11.27605 -11.26891 -11.26880 -11.21923
 Alpha  occ. eigenvalues --  -11.21573 -11.21567 -11.21509 -11.21448 -11.20822
 Alpha  occ. eigenvalues --   -1.59943  -1.39496  -1.19487  -1.08876  -1.08567
 Alpha  occ. eigenvalues --   -1.04897  -1.03655  -0.96109  -0.95699  -0.87128
 Alpha  occ. eigenvalues --   -0.86286  -0.82538  -0.79753  -0.78382  -0.77573
 Alpha  occ. eigenvalues --   -0.72139  -0.71267  -0.70571  -0.65247  -0.65133
 Alpha  occ. eigenvalues --   -0.64873  -0.62243  -0.61048  -0.59521  -0.57718
 Alpha  occ. eigenvalues --   -0.55404  -0.55355  -0.53232  -0.52991  -0.52802
 Alpha  occ. eigenvalues --   -0.52528  -0.50038  -0.48901  -0.48893  -0.48052
 Alpha  occ. eigenvalues --   -0.46772  -0.45920  -0.45817  -0.44894  -0.43915
 Alpha  occ. eigenvalues --   -0.37434  -0.36419
 Alpha virt. eigenvalues --    0.04923   0.11050   0.16340   0.20581   0.22949
 Alpha virt. eigenvalues --    0.24037   0.25538   0.26871   0.27187   0.28514
 Alpha virt. eigenvalues --    0.29364   0.29933   0.31394   0.31461   0.32110

 Mulliken charges:
               1
     1  C   -0.170420
     2  C   -0.218108
     3  C   -0.171691
     4  C    0.158519
     5  C   -0.170872
     6  C   -0.218787
     7  H    0.227113
     8  H    0.225815
     9  H    0.276406
    10  H    0.276037
    11  H    0.224203
    12  N    0.488085
    13  O   -0.459881
    14  O   -0.460504
    15  C   -0.297488
    16  C   -0.305383
    17  C   -0.475655
    18  H    0.150242
    19  H    0.151554
    20  H    0.150489
    21  H    0.151656
    22  H    0.155859
    23  H    0.158010
    24  H    0.153120
    25  C   -0.298935
    26  C   -0.299732
    27  C   -0.477276
    28  H    0.148334
    29  H    0.147491
    30  H    0.150883
    31  H    0.155138
    32  H    0.161443
    33  H    0.152726
    34  H    0.161608
 Sum of Mulliken charges =  -0.00000

 Dipole moment (field-independent basis, Debye):
    X=              0.3640    Y=              5.0517    Z=              0.6694  Tot=              5.1089
 Quadrupole moment (field-independent basis, Debye-Ang):
   XX=            -94.6846   YY=           -100.3955   ZZ=            -92.0222
   XY=            -12.4228   XZ=              1.0342   YZ=             -0.0861

 Normal termination of Gaussian 16 at Wed May  5 22:14:24 2021.
