 Gaussian 16, Revision A.03,
 Gaussian 16:  EM64L-G16RevA.03 25-Dec-2016

 -------------
 #p 6-31g* mp2
 -------------

 ------------------------------------------------------
 Input file generated by CHIRIPA (05-May-2021 14:57:23)
 ------------------------------------------------------
 Symbolic Z-matrix:
 Charge =  0 Multiplicity = 1

                         Standard orientation:
 ---------------------------------------------------------------------
 Center     Atomic      Atomic             Coordinates (Angstroms)
 Number     Number       Type             X           Y           Z
 ---------------------------------------------------------------------
      1          6           0        1.754330   -0.076956    2.510702
      2          6           0        1.744044   -1.228506    1.716759
      3          6           0        2.215548   -1.188152    0.401235
      4          6           0        2.692414    0.026012   -0.090391
      5          6           0        2.715663    1.190385    0.675758
      6          6           0        2.239252    1.126693    1.988588
      7          1           0        1.386148   -0.117368    3.531586
      8          1           0        1.368028   -2.164657    2.119597
      9          1           0        2.219057   -2.064595   -0.235360
     10          1           0        3.096609    2.109027    0.246346
     11          1           0        2.248442    2.022579    2.602874
     12          7           0        3.194172    0.081086   -1.481652
     13          8           0        3.609129    1.163058   -1.891268
     14          8           0        3.162992   -0.958761   -2.136162
     15          6           0       -3.029198    2.470528   -0.188765
     16          6           0       -4.065120    1.579798   -0.488738
     17          6           0       -3.844111    0.199544   -0.464222
     18          6           0       -2.569164   -0.257413   -0.134085
     19          6           0       -1.516669    0.604742    0.169610
     20          6           0       -1.760515    1.981021    0.138874
     21          1           0       -3.209753    3.541199   -0.210226
     22          1           0       -5.051407    1.957112   -0.743530
     23          1           0       -4.628106   -0.512355   -0.692194
     24          1           0       -0.544139    0.198649    0.419992
     25          1           0       -0.954119    2.670434    0.372284
     26          7           0       -2.323104   -1.716522   -0.104839
     27          8           0       -1.190883   -2.093800    0.189058
     28          8           0       -3.267121   -2.455266   -0.376364
 ---------------------------------------------------------------------

 SCF Done:  E(RHF) =  -868.339035026     A.U. after   16 cycles
 E2 =    -0.2602820475D+01 EUMP2 =    -0.87094185550084D+03

 The electronic state is 1-A.
 Alpha  occ. eigenvalues --  -20.61153 -20.61085 -20.60797 -20.60764 -15.86169
 Alpha  occ. eigenvalues --  -15.85836 -11.31320 -11.31269 -11.27914 -11.27903
 Alpha  occ. eigenvalues --  -11.27780 -11.27643 -11.27628 -11.27542 -11.26978
 Alpha  occ. eigenvalues --  -11.26878 -11.26851 -11.26631  -1.60193  -1.59859
 Alpha  occ. eigenvalues --   -1.39756  -1.39407  -1.19509  -1.19453  -1.08937
 Alpha  occ. eigenvalues --   -1.08832  -1.04864  -1.04806  -0.95803  -0.95639
 Alpha  occ. eigenvalues --   -0.86281  -0.86187  -0.82676  -0.82404  -0.77734
 Alpha  occ. eigenvalues --   -0.77456  -0.72425  -0.72043  -0.71502  -0.71197
 Alpha  occ. eigenvalues --   -0.70620  -0.70483  -0.65164  -0.65044  -0.64890
 Alpha  occ. eigenvalues --   -0.64739  -0.62259  -0.62090  -0.55435  -0.55294
 Alpha  occ. eigenvalues --   -0.53487  -0.53218  -0.52828  -0.52576  -0.49162
 Alpha  occ. eigenvalues --   -0.49133  -0.48817  -0.48792  -0.45209  -0.44795
 Alpha  occ. eigenvalues --   -0.37556  -0.37467  -0.36422  -0.36375
 Alpha virt. eigenvalues --    0.04745   0.05061   0.11031   0.11375   0.16324
 Alpha virt. eigenvalues --    0.16482   0.21151   0.21671   0.26907   0.27648
 Alpha virt. eigenvalues --    0.28250   0.28398   0.30871   0.31142   0.32509

 Mulliken charges:
               1
     1  C   -0.179872
     2  C   -0.211872
     3  C   -0.167093
     4  C    0.154169
     5  C   -0.179788
     6  C   -0.224400
     7  H    0.227221
     8  H    0.236871
     9  H    0.284856
    10  H    0.273731
    11  H    0.221388
    12  N    0.488375
    13  O   -0.463233
    14  O   -0.455334
    15  C   -0.169419
    16  C   -0.219475
    17  C   -0.169413
    18  C    0.154198
    19  C   -0.175806
    20  C   -0.222770
    21  H    0.225837
    22  H    0.223870
    23  H    0.275551
    24  H    0.289628
    25  H    0.221731
    26  N    0.490383
    27  O   -0.471549
    28  O   -0.457784
 Sum of Mulliken charges =  -0.00000

 Dipole moment (field-independent basis, Debye):
    X=             -2.6301    Y=              4.5857    Z=              4.7726  Tot=              7.1221
 Quadrupole moment (field-independent basis, Debye-Ang):
   XX=           -105.9092   YY=           -102.9873   ZZ=           -106.6412
   XY=            -12.4501   XZ=             15.4583   YZ=              0.0155

 Normal termination of Gaussian 16 at Thu May  6 16:14:42 2021.
