 Gaussian 16, Revision A.03,
 Gaussian 16:  EM64L-G16RevA.03 25-Dec-2016

 -------------
 #p 6-31g* mp2
 -------------

 ------------------------------------------------------
 Input file generated by CHIRIPA (05-May-2021 14:57:25)
 ------------------------------------------------------
 Symbolic Z-matrix:
 Charge =  0 Multiplicity = 1

                         Standard orientation:
 ---------------------------------------------------------------------
 Center     Atomic      Atomic             Coordinates (Angstroms)
 Number     Number       Type             X           Y           Z
 ---------------------------------------------------------------------
      1          6           0       -3.073284    1.118636    1.488469
      2          6           0       -2.634331   -0.144914    1.897470
      3          6           0       -2.001969   -1.003796    0.993596
      4          6           0       -1.824091   -0.564883   -0.317512
      5          6           0       -2.250268    0.688106   -0.755327
      6          6           0       -2.880192    1.530387    0.165708
      7          1           0       -3.563571    1.779388    2.197285
      8          1           0       -2.782947   -0.467338    2.924116
      9          1           0       -1.652295   -1.987215    1.283480
     10          1           0       -2.087984    0.981568   -1.785357
     11          1           0       -3.220057    2.511129   -0.154732
     12          7           0       -1.155928   -1.465356   -1.283487
     13          8           0       -1.011150   -1.055080   -2.432987
     14          8           0       -0.789652   -2.564372   -0.872828
     15          6           0        2.473099   -1.721693    1.384588
     16          6           0        2.409098   -1.713169   -0.012678
     17          6           0        2.111356   -0.534236   -0.702616
     18          6           0        1.882114    0.623185    0.039756
     19          6           0        1.938647    0.646725    1.432429
     20          6           0        2.238084   -0.543796    2.101419
     21          1           0        2.705050   -2.642018    1.912412
     22          1           0        2.591159   -2.626446   -0.571983
     23          1           0        2.055426   -0.499373   -1.783853
     24          1           0        1.752374    1.572862    1.962514
     25          1           0        2.287119   -0.547453    3.186603
     26          7           0        1.566012    1.877402   -0.679562
     27          8           0        1.368090    2.883804   -0.002349
     28          8           0        1.522157    1.830306   -1.906955
 ---------------------------------------------------------------------

 SCF Done:  E(RHF) =  -868.339365878     A.U. after   16 cycles
 E2 =    -0.2604506839D+01 EUMP2 =    -0.87094387271653D+03

 The electronic state is 1-A.
 Alpha  occ. eigenvalues --  -20.60950 -20.60898 -20.60542 -20.60494 -15.85909
 Alpha  occ. eigenvalues --  -15.85557 -11.31089 -11.30774 -11.27695 -11.27539
 Alpha  occ. eigenvalues --  -11.27357 -11.27356 -11.27093 -11.26997 -11.26679
 Alpha  occ. eigenvalues --  -11.26532 -11.26404 -11.26143  -1.59989  -1.59604
 Alpha  occ. eigenvalues --   -1.39543  -1.39153  -1.19252  -1.18917  -1.08690
 Alpha  occ. eigenvalues --   -1.08347  -1.04610  -1.04263  -0.95555  -0.95206
 Alpha  occ. eigenvalues --   -0.86020  -0.85673  -0.82391  -0.82019  -0.77458
 Alpha  occ. eigenvalues --   -0.77085  -0.72177  -0.71786  -0.71438  -0.70845
 Alpha  occ. eigenvalues --   -0.70345  -0.69981  -0.64902  -0.64614  -0.64546
 Alpha  occ. eigenvalues --   -0.64242  -0.61949  -0.61578  -0.55137  -0.54788
 Alpha  occ. eigenvalues --   -0.53090  -0.52701  -0.52508  -0.52327  -0.48949
 Alpha  occ. eigenvalues --   -0.48924  -0.48545  -0.48524  -0.45012  -0.44567
 Alpha  occ. eigenvalues --   -0.37418  -0.36735  -0.36257  -0.35717
 Alpha virt. eigenvalues --    0.04966   0.05430   0.11440   0.11796   0.16572
 Alpha virt. eigenvalues --    0.16950   0.21578   0.21993   0.27532   0.27942
 Alpha virt. eigenvalues --    0.28491   0.28866   0.31094   0.31483   0.32692

 Mulliken charges:
               1
     1  C   -0.170335
     2  C   -0.220350
     3  C   -0.168926
     4  C    0.155201
     5  C   -0.173452
     6  C   -0.214645
     7  H    0.225855
     8  H    0.220334
     9  H    0.271247
    10  H    0.283751
    11  H    0.228539
    12  N    0.486910
    13  O   -0.456370
    14  O   -0.465654
    15  C   -0.174527
    16  C   -0.202686
    17  C   -0.184142
    18  C    0.154601
    19  C   -0.172090
    20  C   -0.220907
    21  H    0.224285
    22  H    0.232122
    23  H    0.287403
    24  H    0.271025
    25  H    0.218755
    26  N    0.487162
    27  O   -0.466460
    28  O   -0.456644
 Sum of Mulliken charges =  -0.00000

 Dipole moment (field-independent basis, Debye):
    X=             -1.2956    Y=             -1.2962    Z=              5.6294  Tot=              5.9202
 Quadrupole moment (field-independent basis, Debye-Ang):
   XX=            -93.1860   YY=           -111.2121   ZZ=           -100.9609
   XY=            -13.8211   XZ=             -0.9109   YZ=             -1.9418

 Normal termination of Gaussian 16 at Fri May  7 08:07:37 2021.
