 Gaussian 16, Revision A.03,
 Gaussian 16:  EM64L-G16RevA.03 25-Dec-2016

 -------------
 #p 6-31g* mp2
 -------------

 ------------------------------------------------------
 Input file generated by CHIRIPA (05-May-2021 14:53:17)
 ------------------------------------------------------
 Symbolic Z-matrix:
 Charge =  0 Multiplicity = 1

                         Standard orientation:
 ---------------------------------------------------------------------
 Center     Atomic      Atomic             Coordinates (Angstroms)
 Number     Number       Type             X           Y           Z
 ---------------------------------------------------------------------
      1          6           0       -3.751163    0.916481   -0.133713
      2          6           0       -3.116057    2.107942    0.583954
      3          6           0       -3.640716    3.451631    0.076977
      4          1           0       -3.561224    1.002520   -1.212354
      5          1           0       -4.841514    0.957944   -0.004052
      6          1           0       -2.027118    2.063481    0.454144
      7          1           0       -3.307367    2.018955    1.661032
      8          1           0       -4.723707    3.521590    0.221329
      9          1           0       -3.436184    3.566369   -0.992417
     10          1           0       -3.173432    4.289603    0.603579
     11          6           0       -3.236792   -0.433820    0.362108
     12          6           0       -3.871898   -1.625281   -0.355559
     13          6           0       -3.347240   -2.968970    0.151418
     14          1           0       -2.146442   -0.475283    0.232447
     15          1           0       -3.426732   -0.519860    1.440748
     16          1           0       -3.680588   -1.536295   -1.432638
     17          1           0       -4.960837   -1.580820   -0.225749
     18          1           0       -3.551772   -3.083708    1.220811
     19          1           0       -2.264249   -3.038929    0.007065
     20          1           0       -3.814523   -3.806942   -0.375185
     21          6           0        4.492450    1.608276    0.083944
     22          6           0        3.262921    1.889842   -0.520623
     23          6           0        2.278854    0.901983   -0.622083
     24          6           0        2.559251   -0.362249   -0.105957
     25          6           0        3.774459   -0.673621    0.501996
     26          6           0        4.743852    0.329697    0.592426
     27          1           0        5.251198    2.381673    0.158476
     28          1           0        3.064912    2.881910   -0.916398
     29          1           0        1.318344    1.092748   -1.085168
     30          1           0        3.942685   -1.671966    0.887255
     31          1           0        5.697813    0.108177    1.062459
     32          7           0        1.525231   -1.416234   -0.207530
     33          8           0        1.796879   -2.522085    0.255003
     34          8           0        0.462696   -1.116539   -0.747752
 ---------------------------------------------------------------------

 SCF Done:  E(RHF) =  -669.536678177     A.U. after   15 cycles
 E2 =    -0.2091435503D+01 EUMP2 =    -0.67162811368012D+03

 The electronic state is 1-A.
 Alpha  occ. eigenvalues --  -20.61083 -20.61077 -15.86094 -11.31364 -11.27923
 Alpha  occ. eigenvalues --  -11.27915 -11.27647 -11.26915 -11.26906 -11.21131
 Alpha  occ. eigenvalues --  -11.20781 -11.20601 -11.20390 -11.20113 -11.19630
 Alpha  occ. eigenvalues --   -1.60128  -1.39687  -1.19526  -1.08940  -1.07514
 Alpha  occ. eigenvalues --   -1.04915  -1.02639  -0.95791  -0.95080  -0.86318
 Alpha  occ. eigenvalues --   -0.86100  -0.82629  -0.78770  -0.77695  -0.77242
 Alpha  occ. eigenvalues --   -0.72321  -0.71431  -0.70636  -0.65186  -0.64917
 Alpha  occ. eigenvalues --   -0.64134  -0.62263  -0.60027  -0.58526  -0.56681
 Alpha  occ. eigenvalues --   -0.55422  -0.54349  -0.53248  -0.53006  -0.51833
 Alpha  occ. eigenvalues --   -0.51496  -0.49106  -0.49081  -0.48985  -0.47064
 Alpha  occ. eigenvalues --   -0.45812  -0.45285  -0.44813  -0.44416  -0.42872
 Alpha  occ. eigenvalues --   -0.37500  -0.36513
 Alpha virt. eigenvalues --    0.04800   0.11139   0.16278   0.21108   0.23540
 Alpha virt. eigenvalues --    0.25253   0.26595   0.27452   0.27919   0.28871
 Alpha virt. eigenvalues --    0.29031   0.31040   0.32074   0.32373   0.32520

 Mulliken charges:
               1
     1  C   -0.297005
     2  C   -0.297829
     3  C   -0.475111
     4  H    0.148343
     5  H    0.146313
     6  H    0.147526
     7  H    0.151169
     8  H    0.155531
     9  H    0.153058
    10  H    0.156211
    11  C   -0.309505
    12  C   -0.296180
    13  C   -0.481692
    14  H    0.173412
    15  H    0.143766
    16  H    0.151919
    17  H    0.144824
    18  H    0.149260
    19  H    0.176063
    20  H    0.154432
    21  C   -0.170409
    22  C   -0.218460
    23  C   -0.170826
    24  C    0.158052
    25  C   -0.170539
    26  C   -0.218553
    27  H    0.226327
    28  H    0.224261
    29  H    0.275576
    30  H    0.276045
    31  H    0.224102
    32  N    0.490606
    33  O   -0.457783
    34  O   -0.462905
 Sum of Mulliken charges =  -0.00000

 Dipole moment (field-independent basis, Debye):
    X=              4.0277    Y=              3.5884    Z=              0.3225  Tot=              5.4039
 Quadrupole moment (field-independent basis, Debye-Ang):
   XX=            -75.2289   YY=            -97.2320   ZZ=            -94.1941
   XY=              6.4576   XZ=              1.7986   YZ=             -2.0041

 Normal termination of Gaussian 16 at Thu May  6 18:56:33 2021.
