 Gaussian 16, Revision A.03,
 Gaussian 16:  EM64L-G16RevA.03 25-Dec-2016

 -------------
 #p 6-31g* mp2
 -------------

 ------------------------------------------------------
 Input file generated by CHIRIPA (05-May-2021 14:53:15)
 ------------------------------------------------------
 Symbolic Z-matrix:
 Charge =  0 Multiplicity = 1

                         Standard orientation:
 ---------------------------------------------------------------------
 Center     Atomic      Atomic             Coordinates (Angstroms)
 Number     Number       Type             X           Y           Z
 ---------------------------------------------------------------------
      1          6           0        3.895854   -0.267099   -0.159922
      2          6           0        4.274841    1.023990    0.566331
      3          6           0        5.755633    1.077298    0.943436
      4          1           0        4.144237   -1.125916    0.478580
      5          1           0        4.509674   -0.363514   -1.066192
      6          1           0        3.659520    1.118634    1.470233
      7          1           0        4.025351    1.879840   -0.073896
      8          1           0        6.383602    1.007978    0.049316
      9          1           0        6.015692    0.242447    1.602218
     10          1           0        6.004689    2.008630    1.461559
     11          6           0        2.418701   -0.335216   -0.543465
     12          6           0        2.039714   -1.626305   -1.269719
     13          6           0        0.558923   -1.679613   -1.646824
     14          1           0        1.804882   -0.238801    0.362805
     15          1           0        2.170318    0.523601   -1.181968
     16          1           0        2.289205   -2.482155   -0.629492
     17          1           0        2.655036   -1.720949   -2.173621
     18          1           0        0.298863   -0.844762   -2.305606
     19          1           0       -0.069047   -1.610293   -0.752704
     20          1           0        0.309867   -2.610945   -2.164947
     21          6           0       -2.633638    2.358194   -1.078481
     22          6           0       -2.366511    2.421550    0.293069
     23          6           0       -2.271783    1.251738    1.052751
     24          6           0       -2.450477    0.030044    0.405588
     25          6           0       -2.717740   -0.065859   -0.959206
     26          6           0       -2.808093    1.116879   -1.699148
     27          1           0       -2.705526    3.271953   -1.660953
     28          1           0       -2.230576    3.384178    0.777748
     29          1           0       -2.065968    1.271861    2.116073
     30          1           0       -2.848490   -1.040129   -1.414312
     31          1           0       -3.015651    1.064645   -2.764153
     32          7           0       -2.352507   -1.215226    1.199379
     33          8           0       -2.513954   -2.279152    0.605549
     34          8           0       -2.116129   -1.103764    2.400352
 ---------------------------------------------------------------------

 SCF Done:  E(RHF) =  -669.535276865     A.U. after   15 cycles
 E2 =    -0.2092954545D+01 EUMP2 =    -0.67162823140936D+03

 The electronic state is 1-A.
 Alpha  occ. eigenvalues --  -20.60887 -20.60863 -15.85892 -11.31172 -11.27778
 Alpha  occ. eigenvalues --  -11.27748 -11.27513 -11.26759 -11.26747 -11.21548
 Alpha  occ. eigenvalues --  -11.21365 -11.21271 -11.21207 -11.21020 -11.20784
 Alpha  occ. eigenvalues --   -1.59941  -1.39496  -1.19368  -1.08781  -1.08289
 Alpha  occ. eigenvalues --   -1.04762  -1.03381  -0.95842  -0.95618  -0.86868
 Alpha  occ. eigenvalues --   -0.86158  -0.82457  -0.79465  -0.78113  -0.77505
 Alpha  occ. eigenvalues --   -0.72123  -0.71280  -0.70484  -0.65032  -0.64908
 Alpha  occ. eigenvalues --   -0.64765  -0.62112  -0.60771  -0.59204  -0.57462
 Alpha  occ. eigenvalues --   -0.55282  -0.55116  -0.53180  -0.52864  -0.52516
 Alpha  occ. eigenvalues --   -0.52191  -0.49801  -0.48882  -0.48877  -0.47777
 Alpha  occ. eigenvalues --   -0.46508  -0.45663  -0.45582  -0.44792  -0.43638
 Alpha  occ. eigenvalues --   -0.37331  -0.36322
 Alpha virt. eigenvalues --    0.04998   0.11265   0.16468   0.21369   0.22990
 Alpha virt. eigenvalues --    0.24406   0.26699   0.27019   0.27589   0.27932
 Alpha virt. eigenvalues --    0.28577   0.30578   0.31641   0.31848   0.32023

 Mulliken charges:
               1
     1  C   -0.298278
     2  C   -0.299446
     3  C   -0.475615
     4  H    0.151946
     5  H    0.148585
     6  H    0.152382
     7  H    0.149361
     8  H    0.154724
     9  H    0.156506
    10  H    0.159211
    11  C   -0.298099
    12  C   -0.300165
    13  C   -0.478605
    14  H    0.150718
    15  H    0.146153
    16  H    0.156379
    17  H    0.149475
    18  H    0.147136
    19  H    0.160710
    20  H    0.161672
    21  C   -0.170240
    22  C   -0.218729
    23  C   -0.170677
    24  C    0.155207
    25  C   -0.166508
    26  C   -0.219877
    27  H    0.225593
    28  H    0.223369
    29  H    0.275371
    30  H    0.276843
    31  H    0.223491
    32  N    0.488497
    33  O   -0.457737
    34  O   -0.459354
 Sum of Mulliken charges =  -0.00000

 Dipole moment (field-independent basis, Debye):
    X=             -0.4220    Y=              4.3280    Z=             -2.7403  Tot=              5.1399
 Quadrupole moment (field-independent basis, Debye-Ang):
   XX=            -94.8271   YY=            -93.1941   ZZ=            -93.3290
   XY=            -10.5381   XZ=              7.3068   YZ=              3.6924

 Normal termination of Gaussian 16 at Thu May  6 20:26:10 2021.
