 Gaussian 16, Revision A.03,
 Gaussian 16:  EM64L-G16RevA.03 25-Dec-2016

 -------------
 #p 6-31g* mp2
 -------------

 ------------------------------------------------------
 Input file generated by CHIRIPA (05-May-2021 14:51:09)
 ------------------------------------------------------
 Symbolic Z-matrix:
 Charge =  0 Multiplicity = 1

                         Standard orientation:
 ---------------------------------------------------------------------
 Center     Atomic      Atomic             Coordinates (Angstroms)
 Number     Number       Type             X           Y           Z
 ---------------------------------------------------------------------
      1          6           0        2.846209   -0.615251   -0.965890
      2          6           0        1.410069   -0.991528   -1.331817
      3          6           0        1.335340   -2.198041   -2.268053
      4          1           0        3.408539   -0.402957   -1.885488
      5          1           0        3.334834   -1.478359   -0.492936
      6          1           0        0.923864   -0.127525   -1.802688
      7          1           0        0.851041   -1.202765   -0.411229
      8          1           0        1.795524   -3.075759   -1.802818
      9          1           0        1.868761   -1.994410   -3.202183
     10          1           0        0.299631   -2.449695   -2.516722
     11          6           0        2.937327    0.589087   -0.030478
     12          6           0        4.373466    0.965364    0.335450
     13          6           0        4.448195    2.171877    1.271685
     14          1           0        2.448701    1.452194   -0.503431
     15          1           0        2.374996    0.376793    0.889121
     16          1           0        4.932495    1.176601   -0.585138
     17          1           0        4.859672    0.101361    0.806320
     18          1           0        3.914775    1.968246    2.205815
     19          1           0        3.988012    3.049595    0.806451
     20          1           0        5.483905    2.423531    1.520354
     21          6           0       -2.260271   -0.173003    0.885502
     22          6           0       -2.315444   -1.572550    1.498861
     23          6           0       -1.044880   -1.930302    2.270531
     24          1           0       -1.391960   -0.107110    0.215695
     25          1           0       -2.095577    0.563517    1.684132
     26          1           0       -2.481367   -2.306083    0.699477
     27          1           0       -3.183834   -1.635178    2.167138
     28          1           0       -0.877764   -1.220955    3.087538
     29          1           0       -0.171305   -1.895672    1.611538
     30          1           0       -1.105813   -2.934890    2.700588
     31          6           0       -3.523265    0.199168    0.110865
     32          6           0       -3.468092    1.598714   -0.502494
     33          6           0       -4.738656    1.956466   -1.274162
     34          1           0       -3.687959   -0.537352   -0.687765
     35          1           0       -4.391575    0.133275    0.780672
     36          1           0       -2.599701    1.661342   -1.170771
     37          1           0       -3.302169    2.332247    0.296890
     38          1           0       -5.612230    1.921835   -0.615171
     39          1           0       -4.905772    1.247120   -2.091171
     40          1           0       -4.677721    2.961054   -1.704220
 ---------------------------------------------------------------------

 SCF Done:  E(RHF) =  -470.733031302     A.U. after   11 cycles
 E2 =    -0.1583598327D+01 EUMP2 =    -0.47231662962834D+03

 The electronic state is 1-A.
 Alpha  occ. eigenvalues --  -11.21665 -11.21608 -11.21597 -11.21582 -11.21436
 Alpha  occ. eigenvalues --  -11.21370 -11.21363 -11.21290 -11.21139 -11.21100
 Alpha  occ. eigenvalues --  -11.21069 -11.21058  -1.08475  -1.08399  -1.03583
 Alpha  occ. eigenvalues --   -1.03512  -0.96012  -0.95973  -0.87029  -0.86991
 Alpha  occ. eigenvalues --   -0.79696  -0.79545  -0.78357  -0.78135  -0.65188
 Alpha  occ. eigenvalues --   -0.64970  -0.61124  -0.60793  -0.59411  -0.59304
 Alpha  occ. eigenvalues --   -0.57622  -0.57583  -0.55323  -0.55241  -0.52711
 Alpha  occ. eigenvalues --   -0.52670  -0.52437  -0.52405  -0.50008  -0.49881
 Alpha  occ. eigenvalues --   -0.48133  -0.47836  -0.46863  -0.46477  -0.46078
 Alpha  occ. eigenvalues --   -0.45751  -0.45711  -0.45234  -0.43815  -0.43767
 Alpha virt. eigenvalues --    0.20554   0.23050   0.23717   0.24698   0.25773
 Alpha virt. eigenvalues --    0.26198   0.27019   0.27837   0.28321   0.29457
 Alpha virt. eigenvalues --    0.30546   0.31589   0.31704   0.31865   0.32050

 Mulliken charges:
               1
     1  C   -0.297348
     2  C   -0.312016
     3  C   -0.475094
     4  H    0.149864
     5  H    0.149592
     6  H    0.151975
     7  H    0.162679
     8  H    0.155487
     9  H    0.155629
    10  H    0.159829
    11  C   -0.299187
    12  C   -0.299658
    13  C   -0.475749
    14  H    0.149610
    15  H    0.150504
    16  H    0.151923
    17  H    0.152044
    18  H    0.155431
    19  H    0.155205
    20  H    0.160249
    21  C   -0.304852
    22  C   -0.299056
    23  C   -0.481875
    24  H    0.156974
    25  H    0.149077
    26  H    0.151714
    27  H    0.152042
    28  H    0.155309
    29  H    0.159466
    30  H    0.160578
    31  C   -0.297864
    32  C   -0.299597
    33  C   -0.475687
    34  H    0.149218
    35  H    0.149421
    36  H    0.151831
    37  H    0.151944
    38  H    0.155167
    39  H    0.155103
    40  H    0.160116
 Sum of Mulliken charges =  -0.00000

 Dipole moment (field-independent basis, Debye):
    X=              0.0295    Y=              0.0002    Z=             -0.0051  Tot=              0.0299
 Quadrupole moment (field-independent basis, Debye-Ang):
   XX=            -85.4362   YY=            -85.1528   ZZ=            -84.2197
   XY=              0.0163   XZ=             -1.0340   YZ=             -0.4939

 Normal termination of Gaussian 16 at Wed May  5 15:06:42 2021.
