 Gaussian 16, Revision A.03,
 Gaussian 16:  EM64L-G16RevA.03 25-Dec-2016

 -------------
 #p 6-31g* mp2
 -------------

 ------------------------------------------------------
 Input file generated by CHIRIPA (05-May-2021 14:57:23)
 ------------------------------------------------------
 Symbolic Z-matrix:
 Charge =  0 Multiplicity = 1

                         Standard orientation:
 ---------------------------------------------------------------------
 Center     Atomic      Atomic             Coordinates (Angstroms)
 Number     Number       Type             X           Y           Z
 ---------------------------------------------------------------------
      1          6           0        0.943764    0.186187    2.057678
      2          6           0        1.055486   -1.028108    1.372458
      3          6           0        2.016890   -1.192298    0.370813
      4          6           0        2.853914   -0.116472    0.078787
      5          6           0        2.767274    1.105706    0.743666
      6          6           0        1.798507    1.247347    1.741652
      7          1           0        0.194062    0.304975    2.834359
      8          1           0        0.393029   -1.853937    1.615775
      9          1           0        2.125150   -2.121471   -0.175388
     10          1           0        3.441851    1.910840    0.478858
     11          1           0        1.714024    2.191527    2.272155
     12          7           0        3.875607   -0.278357   -0.979673
     13          8           0        4.601032    0.684721   -1.218158
     14          8           0        3.931638   -1.365256   -1.550768
     15          6           0       -2.972250   -2.383720    0.153527
     16          6           0       -2.602794   -1.539476    1.205798
     17          6           0       -2.441052   -0.167375    0.991964
     18          6           0       -2.657808    0.328922   -0.292558
     19          6           0       -3.026614   -0.486497   -1.361373
     20          6           0       -3.182611   -1.855467   -1.124447
     21          1           0       -3.095663   -3.448384    0.328608
     22          1           0       -2.438762   -1.946948    2.199331
     23          1           0       -2.155655    0.508908    1.788587
     24          1           0       -3.183143   -0.051056   -2.340816
     25          1           0       -3.469601   -2.508739   -1.943542
     26          7           0       -2.489621    1.779847   -0.531158
     27          8           0       -2.686481    2.192388   -1.672075
     28          8           0       -2.164119    2.477066    0.427263
 ---------------------------------------------------------------------

 SCF Done:  E(RHF) =  -868.335762173     A.U. after   16 cycles
 E2 =    -0.2603122637D+01 EUMP2 =    -0.87093888480912D+03

 The electronic state is 1-A.
 Alpha  occ. eigenvalues --  -20.61359 -20.61332 -20.60718 -20.60702 -15.86407
 Alpha  occ. eigenvalues --  -15.85764 -11.31865 -11.31151 -11.28583 -11.28416
 Alpha  occ. eigenvalues --  -11.28250 -11.27722 -11.27637 -11.27589 -11.27524
 Alpha  occ. eigenvalues --  -11.27419 -11.26802 -11.26686  -1.60414  -1.59786
 Alpha  occ. eigenvalues --   -1.39969  -1.39339  -1.20081  -1.19319  -1.09445
 Alpha  occ. eigenvalues --   -1.08742  -1.05529  -1.04708  -0.96269  -0.95569
 Alpha  occ. eigenvalues --   -0.86911  -0.86131  -0.83112  -0.82392  -0.78151
 Alpha  occ. eigenvalues --   -0.77412  -0.72635  -0.71987  -0.71731  -0.71257
 Alpha  occ. eigenvalues --   -0.71106  -0.70462  -0.65744  -0.65548  -0.64983
 Alpha  occ. eigenvalues --   -0.64744  -0.62872  -0.62061  -0.56017  -0.55313
 Alpha  occ. eigenvalues --   -0.53974  -0.53614  -0.52928  -0.52750  -0.49396
 Alpha  occ. eigenvalues --   -0.49372  -0.48747  -0.48736  -0.45356  -0.44741
 Alpha  occ. eigenvalues --   -0.38098  -0.37779  -0.36759  -0.36076
 Alpha virt. eigenvalues --    0.04358   0.05126   0.10408   0.11362   0.15845
 Alpha virt. eigenvalues --    0.16528   0.19141   0.22230   0.25513   0.26153
 Alpha virt. eigenvalues --    0.27954   0.29592   0.30246   0.30956   0.32845

 Mulliken charges:
               1
     1  C   -0.173478
     2  C   -0.211712
     3  C   -0.173543
     4  C    0.159323
     5  C   -0.170737
     6  C   -0.212921
     7  H    0.217042
     8  H    0.216896
     9  H    0.273296
    10  H    0.277512
    11  H    0.228733
    12  N    0.488105
    13  O   -0.458572
    14  O   -0.462100
    15  C   -0.171812
    16  C   -0.226244
    17  C   -0.164537
    18  C    0.160642
    19  C   -0.168371
    20  C   -0.218183
    21  H    0.227451
    22  H    0.218756
    23  H    0.268968
    24  H    0.279271
    25  H    0.227196
    26  N    0.488967
    27  O   -0.456179
    28  O   -0.463769
 Sum of Mulliken charges =  -0.00000

 Dipole moment (field-independent basis, Debye):
    X=             -4.2504    Y=             -4.3657    Z=              4.3124  Tot=              7.4647
 Quadrupole moment (field-independent basis, Debye-Ang):
   XX=           -122.5107   YY=           -104.4049   ZZ=           -100.8844
   XY=             17.8114   XZ=             10.5396   YZ=              3.2433

 Normal termination of Gaussian 16 at Thu May  6 06:35:43 2021.
