 Gaussian 16, Revision A.03,
 Gaussian 16:  EM64L-G16RevA.03 25-Dec-2016

 -------------
 #p 6-31g* mp2
 -------------

 ------------------------------------------------------
 Input file generated by CHIRIPA (05-May-2021 14:57:24)
 ------------------------------------------------------
 Symbolic Z-matrix:
 Charge =  0 Multiplicity = 1

                         Standard orientation:
 ---------------------------------------------------------------------
 Center     Atomic      Atomic             Coordinates (Angstroms)
 Number     Number       Type             X           Y           Z
 ---------------------------------------------------------------------
      1          6           0        5.905230    1.239880    0.179986
      2          6           0        4.766303    1.672163    0.867371
      3          6           0        3.578015    0.938264    0.804830
      4          6           0        3.564024   -0.228458    0.042036
      5          6           0        4.682138   -0.685156   -0.654051
      6          6           0        5.859593    0.064672   -0.577196
      7          1           0        6.824113    1.816177    0.234129
      8          1           0        4.798833    2.584459    1.456185
      9          1           0        2.681624    1.249978    1.327073
     10          1           0        4.619032   -1.598639   -1.232830
     11          1           0        6.742561   -0.273449   -1.112067
     12          7           0        2.311771   -1.013836   -0.031750
     13          8           0        2.325346   -2.038290   -0.710679
     14          8           0        1.340392   -0.590089    0.590744
     15          6           0       -3.379602   -2.363030    0.335048
     16          6           0       -2.337016   -1.553299   -0.127417
     17          6           0       -2.542152   -0.187860   -0.346605
     18          6           0       -3.808192    0.337040   -0.091828
     19          6           0       -4.866985   -0.443695    0.369368
     20          6           0       -4.639038   -1.806624    0.581530
     21          1           0       -3.211387   -3.422760    0.502589
     22          1           0       -1.357882   -1.982687   -0.319690
     23          1           0       -1.752699    0.461964   -0.704251
     24          1           0       -5.832087    0.013050    0.552067
     25          1           0       -5.450576   -2.433065    0.940726
     26          7           0       -4.037436    1.781241   -0.320154
     27          8           0       -5.162061    2.219439   -0.088124
     28          8           0       -3.088150    2.447660   -0.726821
 ---------------------------------------------------------------------

 SCF Done:  E(RHF) =  -868.341247820     A.U. after   16 cycles
 E2 =    -0.2598410869D+01 EUMP2 =    -0.87093965868824D+03

 The electronic state is 1-A.
 Alpha  occ. eigenvalues --  -20.61683 -20.61678 -20.59928 -20.59923 -15.86669
 Alpha  occ. eigenvalues --  -15.84966 -11.31678 -11.30059 -11.28215 -11.28183
 Alpha  occ. eigenvalues --  -11.27887 -11.27149 -11.27118 -11.26648 -11.26442
 Alpha  occ. eigenvalues --  -11.26251 -11.25657 -11.25281  -1.60735  -1.59008
 Alpha  occ. eigenvalues --   -1.40292  -1.38568  -1.19819  -1.18185  -1.09286
 Alpha  occ. eigenvalues --   -1.07640  -1.05164  -1.03506  -0.96178  -0.94525
 Alpha  occ. eigenvalues --   -0.86580  -0.84932  -0.83021  -0.81338  -0.78104
 Alpha  occ. eigenvalues --   -0.76417  -0.72902  -0.72018  -0.71196  -0.70922
 Alpha  occ. eigenvalues --   -0.70325  -0.69310  -0.65474  -0.65165  -0.63821
 Alpha  occ. eigenvalues --   -0.63474  -0.62512  -0.60836  -0.55686  -0.54062
 Alpha  occ. eigenvalues --   -0.53514  -0.53250  -0.51904  -0.51575  -0.49674
 Alpha  occ. eigenvalues --   -0.49637  -0.47962  -0.47921  -0.45771  -0.44034
 Alpha  occ. eigenvalues --   -0.37780  -0.36748  -0.36188  -0.35095
 Alpha virt. eigenvalues --    0.04391   0.06051   0.10911   0.12537   0.15956
 Alpha virt. eigenvalues --    0.17620   0.21081   0.22754   0.27029   0.27913
 Alpha virt. eigenvalues --    0.28840   0.29439   0.30710   0.32180   0.32351

 Mulliken charges:
               1
     1  C   -0.169446
     2  C   -0.218512
     3  C   -0.169919
     4  C    0.157378
     5  C   -0.170369
     6  C   -0.218663
     7  H    0.227855
     8  H    0.226509
     9  H    0.277852
    10  H    0.275418
    11  H    0.224943
    12  N    0.489349
    13  O   -0.462286
    14  O   -0.466010
    15  C   -0.173049
    16  C   -0.220229
    17  C   -0.171520
    18  C    0.157160
    19  C   -0.173985
    20  C   -0.218876
    21  H    0.223589
    22  H    0.245259
    23  H    0.277305
    24  H    0.270965
    25  H    0.218624
    26  N    0.488213
    27  O   -0.464436
    28  O   -0.463122
 Sum of Mulliken charges =  -0.00000

 Dipole moment (field-independent basis, Debye):
    X=              5.8680    Y=             -2.3490    Z=              1.0654  Tot=              6.4099
 Quadrupole moment (field-independent basis, Debye-Ang):
   XX=            -75.2821   YY=           -108.3811   ZZ=           -104.1154
   XY=             28.1586   XZ=             -5.0629   YZ=              3.1182

 Normal termination of Gaussian 16 at Fri May  7 03:25:02 2021.
