 Gaussian 16, Revision A.03,
 Gaussian 16:  EM64L-G16RevA.03 25-Dec-2016

 -------------
 #p 6-31g* mp2
 -------------

 ------------------------------------------------------
 Input file generated by CHIRIPA (05-May-2021 14:53:14)
 ------------------------------------------------------
 Symbolic Z-matrix:
 Charge =  0 Multiplicity = 1

                         Standard orientation:
 ---------------------------------------------------------------------
 Center     Atomic      Atomic             Coordinates (Angstroms)
 Number     Number       Type             X           Y           Z
 ---------------------------------------------------------------------
      1          6           0       -4.665608   -0.396475   -0.216543
      2          6           0       -6.039359    0.131634    0.198060
      3          6           0       -7.130065   -0.192100   -0.823385
      4          1           0       -4.394833    0.030378   -1.191952
      5          1           0       -4.726023   -1.484545   -0.357421
      6          1           0       -5.976037    1.218195    0.339457
      7          1           0       -6.306810   -0.296375    1.172684
      8          1           0       -7.222366   -1.274623   -0.958387
      9          1           0       -6.889713    0.248553   -1.796348
     10          1           0       -8.103858    0.194591   -0.507065
     11          6           0       -3.564779   -0.080681    0.794486
     12          6           0       -2.191029   -0.608790    0.379884
     13          6           0       -1.100322   -0.285056    1.401328
     14          1           0       -3.504364    1.007390    0.935364
     15          1           0       -3.835555   -0.507533    1.769895
     16          1           0       -1.923577   -0.180780   -0.594741
     17          1           0       -2.254350   -1.695350    0.238486
     18          1           0       -1.340674   -0.725708    2.374291
     19          1           0       -1.008021    0.797467    1.536330
     20          1           0       -0.126529   -0.671747    1.085008
     21          6           0        5.013096   -1.558345    0.072004
     22          6           0        3.813356   -1.891286   -0.565410
     23          6           0        2.810110   -0.932651   -0.735893
     24          6           0        3.041161    0.355063   -0.254546
     25          6           0        4.225754    0.717538    0.384707
     26          6           0        5.215109   -0.257289    0.544195
     27          1           0        5.787045   -2.309324    0.200169
     28          1           0        3.653715   -2.900912   -0.933127
     29          1           0        1.871837   -1.163266   -1.225667
     30          1           0        4.355868    1.732325    0.740651
     31          1           0        6.145850    0.004123    1.039606
     32          7           0        1.986422    1.378498   -0.429209
     33          8           0        2.214482    2.505934    0.003820
     34          8           0        0.951631    1.033852   -0.995832
 ---------------------------------------------------------------------

 SCF Done:  E(RHF) =  -669.535981649     A.U. after   15 cycles
 E2 =    -0.2092105732D+01 EUMP2 =    -0.67162808738047D+03

 The electronic state is 1-A.
 Alpha  occ. eigenvalues --  -20.60916 -20.60902 -15.85930 -11.31278 -11.27838
 Alpha  occ. eigenvalues --  -11.27829 -11.27572 -11.26849 -11.26839 -11.21071
 Alpha  occ. eigenvalues --  -11.20750 -11.20655 -11.20631 -11.20582 -11.20113
 Alpha  occ. eigenvalues --   -1.59963  -1.39522  -1.19442  -1.08842  -1.07713
 Alpha  occ. eigenvalues --   -1.04840  -1.02797  -0.95688  -0.95261  -0.86300
 Alpha  occ. eigenvalues --   -0.86236  -0.82517  -0.78888  -0.77581  -0.77506
 Alpha  occ. eigenvalues --   -0.72169  -0.71284  -0.70549  -0.65101  -0.64843
 Alpha  occ. eigenvalues --   -0.64329  -0.62190  -0.60167  -0.58662  -0.56880
 Alpha  occ. eigenvalues --   -0.55343  -0.54542  -0.53167  -0.52933  -0.51996
 Alpha  occ. eigenvalues --   -0.51702  -0.49218  -0.48918  -0.48909  -0.47206
 Alpha  occ. eigenvalues --   -0.45906  -0.45066  -0.44957  -0.44870  -0.43060
 Alpha  occ. eigenvalues --   -0.37415  -0.36437
 Alpha virt. eigenvalues --    0.04941   0.11129   0.16416   0.21246   0.23571
 Alpha virt. eigenvalues --    0.24786   0.27083   0.27351   0.27809   0.28321
 Alpha virt. eigenvalues --    0.28849   0.30790   0.31667   0.32130   0.32392

 Mulliken charges:
               1
     1  C   -0.298091
     2  C   -0.299254
     3  C   -0.475371
     4  H    0.151505
     5  H    0.146384
     6  H    0.152776
     7  H    0.150296
     8  H    0.153574
     9  H    0.155405
    10  H    0.158776
    11  C   -0.298434
    12  C   -0.302386
    13  C   -0.469930
    14  H    0.152759
    15  H    0.145760
    16  H    0.167039
    17  H    0.142705
    18  H    0.145762
    19  H    0.163980
    20  H    0.150939
    21  C   -0.170641
    22  C   -0.218577
    23  C   -0.172110
    24  C    0.159049
    25  C   -0.170785
    26  C   -0.218352
    27  H    0.225971
    28  H    0.223966
    29  H    0.276387
    30  H    0.275851
    31  H    0.223828
    32  N    0.490135
    33  O   -0.459357
    34  O   -0.459561
 Sum of Mulliken charges =  -0.00000

 Dipole moment (field-independent basis, Debye):
    X=              3.9278    Y=             -3.4448    Z=              0.5040  Tot=              5.2487
 Quadrupole moment (field-independent basis, Debye-Ang):
   XX=            -72.1806   YY=            -94.7274   ZZ=            -95.1504
   XY=             -7.9449   XZ=              2.0658   YZ=              2.5864

 Normal termination of Gaussian 16 at Wed May  5 20:12:11 2021.
