 Gaussian 16, Revision A.03,
 Gaussian 16:  EM64L-G16RevA.03 25-Dec-2016

 -------------
 #p 6-31g* mp2
 -------------

 ------------------------------------------------------
 Input file generated by CHIRIPA (05-May-2021 14:55:23)
 ------------------------------------------------------
 Symbolic Z-matrix:
 Charge =  0 Multiplicity = 1

                         Standard orientation:
 ---------------------------------------------------------------------
 Center     Atomic      Atomic             Coordinates (Angstroms)
 Number     Number       Type             X           Y           Z
 ---------------------------------------------------------------------
      1          6           0       -0.897774    1.318426    1.197334
      2          6           0       -1.958307    1.944013    0.533685
      3          6           0       -2.996732    1.187016   -0.016930
      4          6           0       -2.942427   -0.199667    0.115173
      5          6           0       -1.899417   -0.852267    0.770562
      6          6           0       -0.871759   -0.075260    1.313450
      7          1           0       -0.095282    1.914252    1.622064
      8          1           0       -1.981136    3.026194    0.441991
      9          1           0       -3.829785    1.645461   -0.535841
     10          1           0       -1.904325   -1.932872    0.845971
     11          1           0       -0.049395   -0.563810    1.828310
     12          7           0       -4.036062   -1.011658   -0.463648
     13          8           0       -3.964864   -2.231779   -0.333760
     14          8           0       -4.943744   -0.412599   -1.036256
     15          6           0        2.984641    0.555930   -0.509165
     16          6           0        3.279891    2.028531   -0.222354
     17          6           0        2.168474    2.959690   -0.707625
     18          1           0        2.837538    0.421709   -1.589577
     19          1           0        2.036554    0.278755   -0.027812
     20          1           0        4.227834    2.302479   -0.702949
     21          1           0        3.426498    2.159228    0.857479
     22          1           0        1.219863    2.714609   -0.219083
     23          1           0        2.025752    2.858675   -1.788378
     24          1           0        2.400110    4.007505   -0.492479
     25          6           0        4.086548   -0.387377   -0.029894
     26          6           0        3.791298   -1.859977   -0.316704
     27          6           0        4.902715   -2.791136    0.168566
     28          1           0        5.034635   -0.110203   -0.511247
     29          1           0        4.233651   -0.253156    1.050518
     30          1           0        3.644691   -1.990674   -1.396538
     31          1           0        2.843355   -2.133927    0.163891
     32          1           0        5.045437   -2.690122    1.249319
     33          1           0        5.851327   -2.546057   -0.319976
     34          1           0        4.671079   -3.838952   -0.046580
 ---------------------------------------------------------------------

 SCF Done:  E(RHF) =  -669.534913026     A.U. after   15 cycles
 E2 =    -0.2092971571D+01 EUMP2 =    -0.67162788459645D+03

 The electronic state is 1-A.
 Alpha  occ. eigenvalues --  -20.60806 -20.60801 -15.85861 -11.31257 -11.27834
 Alpha  occ. eigenvalues --  -11.27825 -11.27572 -11.26858 -11.26836 -11.22385
 Alpha  occ. eigenvalues --  -11.22170 -11.22065 -11.21989 -11.21879 -11.21533
 Alpha  occ. eigenvalues --   -1.59881  -1.39434  -1.19439  -1.09111  -1.08827
 Alpha  occ. eigenvalues --   -1.04841  -1.04199  -0.96644  -0.95660  -0.87661
 Alpha  occ. eigenvalues --   -0.86238  -0.82489  -0.80260  -0.78900  -0.77522
 Alpha  occ. eigenvalues --   -0.72080  -0.71204  -0.70586  -0.65779  -0.65092
 Alpha  occ. eigenvalues --   -0.64820  -0.62185  -0.61620  -0.60006  -0.58245
 Alpha  occ. eigenvalues --   -0.56076  -0.55240  -0.53330  -0.53211  -0.53016
 Alpha  occ. eigenvalues --   -0.52926  -0.50588  -0.48840  -0.48832  -0.48559
 Alpha  occ. eigenvalues --   -0.47304  -0.46434  -0.46376  -0.44833  -0.44441
 Alpha  occ. eigenvalues --   -0.37352  -0.36428
 Alpha virt. eigenvalues --    0.04967   0.11022   0.16348   0.19586   0.22823
 Alpha virt. eigenvalues --    0.23545   0.25404   0.26310   0.26946   0.28266
 Alpha virt. eigenvalues --    0.29098   0.30573   0.30987   0.31498   0.32013

 Mulliken charges:
               1
     1  C   -0.169230
     2  C   -0.218610
     3  C   -0.170440
     4  C    0.158670
     5  C   -0.171394
     6  C   -0.219219
     7  H    0.227584
     8  H    0.224757
     9  H    0.276116
    10  H    0.276065
    11  H    0.223877
    12  N    0.488086
    13  O   -0.460161
    14  O   -0.460147
    15  C   -0.301825
    16  C   -0.300597
    17  C   -0.479789
    18  H    0.153932
    19  H    0.146876
    20  H    0.155951
    21  H    0.147595
    22  H    0.149213
    23  H    0.160444
    24  H    0.160616
    25  C   -0.298843
    26  C   -0.298730
    27  C   -0.476107
    28  H    0.152102
    29  H    0.147071
    30  H    0.155269
    31  H    0.147079
    32  H    0.154404
    33  H    0.156870
    34  H    0.162518
 Sum of Mulliken charges =  -0.00000

 Dipole moment (field-independent basis, Debye):
    X=              3.8755    Y=              2.8171    Z=              1.9467  Tot=              5.1716
 Quadrupole moment (field-independent basis, Debye-Ang):
   XX=           -116.8526   YY=            -93.2401   ZZ=            -93.6695
   XY=            -11.0002   XZ=             -5.7256   YZ=             -1.5127

 Normal termination of Gaussian 16 at Thu May  6 19:17:37 2021.
