 Gaussian 16, Revision A.03,
 Gaussian 16:  EM64L-G16RevA.03 25-Dec-2016

 -------------
 #p 6-31g* mp2
 -------------

 ------------------------------------------------------
 Input file generated by CHIRIPA (05-May-2021 14:53:12)
 ------------------------------------------------------
 Symbolic Z-matrix:
 Charge =  0 Multiplicity = 1

                         Standard orientation:
 ---------------------------------------------------------------------
 Center     Atomic      Atomic             Coordinates (Angstroms)
 Number     Number       Type             X           Y           Z
 ---------------------------------------------------------------------
      1          6           0       -3.306714   -0.765086    0.354707
      2          6           0       -2.064756   -0.239794    1.075537
      3          6           0       -0.972279   -1.299756    1.219645
      4          1           0       -3.703215   -1.630055    0.903851
      5          1           0       -3.017194   -1.132126   -0.639704
      6          1           0       -2.356762    0.127418    2.067759
      7          1           0       -1.671277    0.624144    0.524718
      8          1           0       -0.652627   -1.659684    0.236347
      9          1           0       -1.342007   -2.159232    1.788155
     10          1           0       -0.093676   -0.902874    1.737720
     11          6           0       -4.407762    0.282956    0.202954
     12          6           0       -5.649720   -0.242336   -0.517876
     13          6           0       -6.742197    0.817626   -0.661984
     14          1           0       -4.697282    0.649997    1.197365
     15          1           0       -4.011261    1.147926   -0.346190
     16          1           0       -6.043199   -1.106274    0.032943
     17          1           0       -5.357715   -0.609548   -1.510098
     18          1           0       -6.372469    1.677102   -1.230494
     19          1           0       -7.061849    1.177554    0.321314
     20          1           0       -7.620801    0.420745   -1.180059
     21          6           0        3.352617   -2.297315   -0.487019
     22          6           0        2.139793   -1.711406   -0.864231
     23          6           0        1.940790   -0.335173   -0.719559
     24          6           0        2.980680    0.428635   -0.191812
     25          6           0        4.200423   -0.125707    0.193184
     26          6           0        4.377254   -1.503995    0.039556
     27          1           0        3.498597   -3.367204   -0.602882
     28          1           0        1.342288   -2.325049   -1.273463
     29          1           0        1.011900    0.144373   -1.003491
     30          1           0        4.976881    0.511924    0.598101
     31          1           0        5.320202   -1.956299    0.333352
     32          7           0        2.781739    1.886679   -0.033914
     33          8           0        3.713532    2.537711    0.433586
     34          8           0        1.697784    2.350852   -0.380643
 ---------------------------------------------------------------------

 SCF Done:  E(RHF) =  -669.534531674     A.U. after   15 cycles
 E2 =    -0.2092513679D+01 EUMP2 =    -0.67162704535349D+03

 The electronic state is 1-A.
 Alpha  occ. eigenvalues --  -20.60776 -20.60770 -15.85827 -11.31164 -11.27732
 Alpha  occ. eigenvalues --  -11.27726 -11.27472 -11.26742 -11.26723 -11.21712
 Alpha  occ. eigenvalues --  -11.21642 -11.21547 -11.21403 -11.21395 -11.21057
 Alpha  occ. eigenvalues --   -1.59849  -1.39404  -1.19343  -1.08740  -1.08535
 Alpha  occ. eigenvalues --   -1.04755  -1.03649  -0.96128  -0.95574  -0.87143
 Alpha  occ. eigenvalues --   -0.86142  -0.82419  -0.79707  -0.78331  -0.77466
 Alpha  occ. eigenvalues --   -0.72046  -0.71173  -0.70456  -0.65193  -0.64987
 Alpha  occ. eigenvalues --   -0.64755  -0.62178  -0.60999  -0.59478  -0.57713
 Alpha  occ. eigenvalues --   -0.55493  -0.55203  -0.53218  -0.52874  -0.52639
 Alpha  occ. eigenvalues --   -0.52507  -0.50060  -0.48802  -0.48801  -0.48022
 Alpha  occ. eigenvalues --   -0.46740  -0.45879  -0.45796  -0.44813  -0.43895
 Alpha  occ. eigenvalues --   -0.37326  -0.36262
 Alpha virt. eigenvalues --    0.05062   0.11247   0.16495   0.20181   0.22874
 Alpha virt. eigenvalues --    0.24024   0.25919   0.26660   0.27424   0.28254
 Alpha virt. eigenvalues --    0.28882   0.29812   0.31445   0.31583   0.32392

 Mulliken charges:
               1
     1  C   -0.297574
     2  C   -0.304728
     3  C   -0.475192
     4  H    0.149093
     5  H    0.144668
     6  H    0.155609
     7  H    0.159764
     8  H    0.141746
     9  H    0.155143
    10  H    0.165759
    11  C   -0.298967
    12  C   -0.299603
    13  C   -0.475906
    14  H    0.151011
    15  H    0.152966
    16  H    0.151208
    17  H    0.150748
    18  H    0.156593
    19  H    0.155820
    20  H    0.159940
    21  C   -0.171571
    22  C   -0.216265
    23  C   -0.166828
    24  C    0.156031
    25  C   -0.171295
    26  C   -0.218830
    27  H    0.225608
    28  H    0.223102
    29  H    0.276583
    30  H    0.275398
    31  H    0.223278
    32  N    0.488304
    33  O   -0.460265
    34  O   -0.461349
 Sum of Mulliken charges =  -0.00000

 Dipole moment (field-independent basis, Debye):
    X=              0.6691    Y=             -5.0640    Z=             -0.4924  Tot=              5.1317
 Quadrupole moment (field-independent basis, Debye-Ang):
   XX=            -86.9117   YY=           -100.2451   ZZ=            -93.7601
   XY=            -14.3750   XZ=             -0.4302   YZ=              0.8198

 Normal termination of Gaussian 16 at Thu May  6 04:08:04 2021.
