 Gaussian 16, Revision A.03,
 Gaussian 16:  EM64L-G16RevA.03 25-Dec-2016

 -------------
 #p 6-31g* mp2
 -------------

 ------------------------------------------------------
 Input file generated by CHIRIPA (05-May-2021 14:55:19)
 ------------------------------------------------------
 Symbolic Z-matrix:
 Charge =  0 Multiplicity = 1

                         Standard orientation:
 ---------------------------------------------------------------------
 Center     Atomic      Atomic             Coordinates (Angstroms)
 Number     Number       Type             X           Y           Z
 ---------------------------------------------------------------------
      1          6           0       -4.131429   -2.230221    0.351732
      2          6           0       -3.080137   -1.911193   -0.514020
      3          6           0       -2.694629   -0.580659   -0.702725
      4          6           0       -3.385327    0.410090   -0.006563
      5          6           0       -4.436808    0.124100    0.862855
      6          6           0       -4.805222   -1.213349    1.036199
      7          1           0       -4.424262   -3.266498    0.492356
      8          1           0       -2.555068   -2.698839   -1.046900
      9          1           0       -1.884328   -0.305560   -1.366918
     10          1           0       -4.941333    0.931081    1.380208
     11          1           0       -5.622045   -1.458164    1.709187
     12          7           0       -2.986256    1.822328   -0.198206
     13          8           0       -3.610710    2.676760    0.426806
     14          8           0       -2.056566    2.048066   -0.969799
     15          6           0        4.970625    0.282989    0.099515
     16          6           0        6.325113   -0.357085    0.405539
     17          6           0        7.421683    0.675990    0.666470
     18          1           0        5.072169    0.940754   -0.774543
     19          1           0        4.677758    0.925198    0.941650
     20          1           0        6.614689   -0.998980   -0.436324
     21          1           0        6.220288   -1.013552    1.278854
     22          1           0        7.158702    1.309838    1.519510
     23          1           0        7.555345    1.324492   -0.205413
     24          1           0        8.381471    0.196677    0.883098
     25          6           0        3.864189   -0.736970   -0.163573
     26          6           0        2.509701   -0.096896   -0.469595
     27          6           0        1.413130   -1.129971   -0.730526
     28          1           0        4.157057   -1.379179   -1.005707
     29          1           0        3.762645   -1.394736    0.710486
     30          1           0        2.614525    0.559570   -1.342911
     31          1           0        2.220124    0.544998    0.372267
     32          1           0        1.279469   -1.778474    0.141356
     33          1           0        1.676112   -1.763819   -1.583567
     34          1           0        0.453343   -0.650658   -0.947155
 ---------------------------------------------------------------------

 SCF Done:  E(RHF) =  -669.535454846     A.U. after   15 cycles
 E2 =    -0.2091069781D+01 EUMP2 =    -0.67162652462697D+03

 The electronic state is 1-A.
 Alpha  occ. eigenvalues --  -20.60775 -20.60769 -15.85825 -11.31181 -11.27751
 Alpha  occ. eigenvalues --  -11.27735 -11.27490 -11.26769 -11.26751 -11.21528
 Alpha  occ. eigenvalues --  -11.21525 -11.21346 -11.21299 -11.21260 -11.20974
 Alpha  occ. eigenvalues --   -1.59848  -1.39402  -1.19354  -1.08751  -1.08370
 Alpha  occ. eigenvalues --   -1.04757  -1.03504  -0.95989  -0.95586  -0.87016
 Alpha  occ. eigenvalues --   -0.86154  -0.82418  -0.79563  -0.78166  -0.77469
 Alpha  occ. eigenvalues --   -0.72045  -0.71170  -0.70476  -0.65007  -0.64997
 Alpha  occ. eigenvalues --   -0.64769  -0.62148  -0.60897  -0.59339  -0.57578
 Alpha  occ. eigenvalues --   -0.55275  -0.55262  -0.53131  -0.52961  -0.52567
 Alpha  occ. eigenvalues --   -0.52364  -0.49921  -0.48802  -0.48801  -0.47878
 Alpha  occ. eigenvalues --   -0.46574  -0.45718  -0.45630  -0.44809  -0.43764
 Alpha  occ. eigenvalues --   -0.37335  -0.36343
 Alpha virt. eigenvalues --    0.05036   0.11247   0.16551   0.20867   0.22943
 Alpha virt. eigenvalues --    0.24098   0.26245   0.26735   0.27535   0.27899
 Alpha virt. eigenvalues --    0.28809   0.30322   0.31407   0.31546   0.32064

 Mulliken charges:
               1
     1  C   -0.170960
     2  C   -0.219299
     3  C   -0.173133
     4  C    0.158471
     5  C   -0.171018
     6  C   -0.218417
     7  H    0.225603
     8  H    0.224590
     9  H    0.279598
    10  H    0.275518
    11  H    0.223390
    12  N    0.487900
    13  O   -0.460272
    14  O   -0.461172
    15  C   -0.298554
    16  C   -0.299574
    17  C   -0.475750
    18  H    0.151073
    19  H    0.151063
    20  H    0.151254
    21  H    0.151192
    22  H    0.155782
    23  H    0.155765
    24  H    0.159715
    25  C   -0.299010
    26  C   -0.297780
    27  C   -0.481452
    28  H    0.148202
    29  H    0.148260
    30  H    0.156261
    31  H    0.156783
    32  H    0.153904
    33  H    0.152920
    34  H    0.159146
 Sum of Mulliken charges =  -0.00000

 Dipole moment (field-independent basis, Debye):
    X=             -1.3797    Y=             -4.9215    Z=              0.6961  Tot=              5.1584
 Quadrupole moment (field-independent basis, Debye-Ang):
   XX=            -83.7302   YY=            -99.4874   ZZ=            -92.3161
   XY=             15.0347   XZ=             -5.4538   YZ=              1.1885

 Normal termination of Gaussian 16 at Thu May  6 20:37:12 2021.
