 Gaussian 16, Revision A.03,
 Gaussian 16:  EM64L-G16RevA.03 25-Dec-2016

 -------------
 #p 6-31g* mp2
 -------------

 ------------------------------------------------------
 Input file generated by CHIRIPA (05-May-2021 14:55:20)
 ------------------------------------------------------
 Symbolic Z-matrix:
 Charge =  0 Multiplicity = 1

                         Standard orientation:
 ---------------------------------------------------------------------
 Center     Atomic      Atomic             Coordinates (Angstroms)
 Number     Number       Type             X           Y           Z
 ---------------------------------------------------------------------
      1          6           0        4.702847   -0.803989   -1.048163
      2          6           0        4.639456    0.481724   -0.500947
      3          6           0        3.511420    0.893956    0.214698
      4          6           0        2.460291   -0.009350    0.364557
      5          6           0        2.493564   -1.296908   -0.168713
      6          6           0        3.631588   -1.687643   -0.880595
      7          1           0        5.583012   -1.115871   -1.602632
      8          1           0        5.469912    1.170099   -0.629502
      9          1           0        3.435974    1.883513    0.648865
     10          1           0        1.649942   -1.960798   -0.023905
     11          1           0        3.678054   -2.686752   -1.304467
     12          7           0        1.260803    0.415683    1.120187
     13          8           0        0.348082   -0.398971    1.238150
     14          8           0        1.256078    1.555430    1.580178
     15          6           0       -3.200118   -0.634635   -0.284862
     16          6           0       -4.344878   -1.565753    0.115797
     17          6           0       -3.925005   -3.035406    0.156058
     18          1           0       -2.818862   -0.935656   -1.270243
     19          1           0       -2.369491   -0.760355    0.423410
     20          1           0       -5.173635   -1.437305   -0.592214
     21          1           0       -4.723579   -1.262360    1.100253
     22          1           0       -3.113973   -3.184760    0.876142
     23          1           0       -3.566586   -3.360698   -0.825941
     24          1           0       -4.758539   -3.683308    0.444681
     25          6           0       -3.604314    0.837898   -0.329590
     26          6           0       -2.459554    1.769018   -0.730249
     27          6           0       -2.879427    3.238671   -0.770511
     28          1           0       -4.434941    0.963620   -1.037862
     29          1           0       -3.985569    1.138920    0.655790
     30          1           0       -2.080853    1.465625   -1.714705
     31          1           0       -1.630797    1.640570   -0.022238
     32          1           0       -3.237846    3.563963    0.211488
     33          1           0       -3.690458    3.388023   -1.490595
     34          1           0       -2.045892    3.886573   -1.059133
 ---------------------------------------------------------------------

 SCF Done:  E(RHF) =  -669.536738940     A.U. after   15 cycles
 E2 =    -0.2091895765D+01 EUMP2 =    -0.67162863470485D+03

 The electronic state is 1-A.
 Alpha  occ. eigenvalues --  -20.61073 -20.61067 -15.86084 -11.31347 -11.27903
 Alpha  occ. eigenvalues --  -11.27897 -11.27633 -11.26896 -11.26886 -11.20660
 Alpha  occ. eigenvalues --  -11.20361 -11.20327 -11.20233 -11.20067 -11.20059
 Alpha  occ. eigenvalues --   -1.60118  -1.39675  -1.19509  -1.08925  -1.07293
 Alpha  occ. eigenvalues --   -1.04896  -1.02506  -0.95776  -0.94968  -0.86299
 Alpha  occ. eigenvalues --   -0.85997  -0.82615  -0.78567  -0.77677  -0.77089
 Alpha  occ. eigenvalues --   -0.72305  -0.71422  -0.70618  -0.65167  -0.64900
 Alpha  occ. eigenvalues --   -0.63902  -0.62242  -0.59899  -0.58349  -0.56580
 Alpha  occ. eigenvalues --   -0.55405  -0.54252  -0.53231  -0.52987  -0.51711
 Alpha  occ. eigenvalues --   -0.51409  -0.49098  -0.49063  -0.48916  -0.46896
 Alpha  occ. eigenvalues --   -0.45570  -0.45212  -0.44671  -0.44299  -0.42721
 Alpha  occ. eigenvalues --   -0.37483  -0.36493
 Alpha virt. eigenvalues --    0.04805   0.11164   0.16296   0.21274   0.24034
 Alpha virt. eigenvalues --    0.25250   0.27218   0.27667   0.28030   0.28750
 Alpha virt. eigenvalues --    0.29167   0.30971   0.32237   0.32446   0.32742

 Mulliken charges:
               1
     1  C   -0.170337
     2  C   -0.218683
     3  C   -0.170405
     4  C    0.158592
     5  C   -0.170329
     6  C   -0.218677
     7  H    0.226235
     8  H    0.224011
     9  H    0.275974
    10  H    0.276263
    11  H    0.224149
    12  N    0.491875
    13  O   -0.463012
    14  O   -0.459296
    15  C   -0.310036
    16  C   -0.298187
    17  C   -0.475382
    18  H    0.140853
    19  H    0.177939
    20  H    0.147326
    21  H    0.151861
    22  H    0.157654
    23  H    0.150514
    24  H    0.156596
    25  C   -0.295837
    26  C   -0.306716
    27  C   -0.474021
    28  H    0.143026
    29  H    0.150125
    30  H    0.143442
    31  H    0.171324
    32  H    0.156186
    33  H    0.149864
    34  H    0.157108
 Sum of Mulliken charges =  -0.00000

 Dipole moment (field-independent basis, Debye):
    X=              4.6002    Y=             -1.4981    Z=             -2.4544  Tot=              5.4250
 Quadrupole moment (field-independent basis, Debye-Ang):
   XX=            -74.6132   YY=            -92.6289   ZZ=            -96.6502
   XY=             -1.5616   XZ=             -5.2676   YZ=              0.7280

 Normal termination of Gaussian 16 at Thu May  6 14:07:43 2021.
