 Gaussian 16, Revision A.03,
 Gaussian 16:  EM64L-G16RevA.03 25-Dec-2016

 -------------
 #p 6-31g* mp2
 -------------

 ------------------------------------------------------
 Input file generated by CHIRIPA (05-May-2021 14:51:08)
 ------------------------------------------------------
 Symbolic Z-matrix:
 Charge =  0 Multiplicity = 1

                         Standard orientation:
 ---------------------------------------------------------------------
 Center     Atomic      Atomic             Coordinates (Angstroms)
 Number     Number       Type             X           Y           Z
 ---------------------------------------------------------------------
      1          6           0        3.919715   -0.466687   -0.377827
      2          6           0        5.070320    0.215827    0.362624
      3          6           0        6.259247    0.523860   -0.548070
      4          1           0        4.285677   -1.397280   -0.832814
      5          1           0        3.591759    0.177832   -1.205133
      6          1           0        5.395090   -0.429165    1.189138
      7          1           0        4.701529    1.144807    0.816062
      8          1           0        5.956896    1.186488   -1.365450
      9          1           0        6.654397   -0.396428   -0.990254
     10          1           0        7.070288    1.011548    0.001687
     11          6           0        2.723811   -0.781023    0.519243
     12          6           0        1.573206   -1.463538   -0.221208
     13          6           0        0.384279   -1.771571    0.689485
     14          1           0        3.051766   -1.425543    1.346549
     15          1           0        2.357848    0.149570    0.974230
     16          1           0        1.941997   -2.392517   -0.674646
     17          1           0        1.248436   -0.818545   -1.047722
     18          1           0       -0.010871   -0.851283    1.131670
     19          1           0        0.686630   -2.434198    1.506865
     20          1           0       -0.426763   -2.259259    0.139729
     21          6           0       -3.481768   -0.090132   -0.289916
     22          6           0       -4.896683   -0.535607    0.080967
     23          6           0       -5.201810   -1.966169   -0.364212
     24          1           0       -3.351444   -0.172857   -1.377628
     25          1           0       -2.756817   -0.779221    0.165052
     26          1           0       -5.618704    0.154922   -0.373423
     27          1           0       -5.023717   -0.451632    1.167902
     28          1           0       -4.504292   -2.671050    0.099699
     29          1           0       -5.102660   -2.061050   -1.450384
     30          1           0       -6.218368   -2.264068   -0.089028
     31          6           0       -3.161757    1.337843    0.148500
     32          6           0       -1.746842    1.783318   -0.222383
     33          6           0       -1.441716    3.213879    0.222797
     34          1           0       -3.886709    2.026931   -0.306468
     35          1           0       -3.292082    1.420567    1.236211
     36          1           0       -1.619809    1.699342   -1.309317
     37          1           0       -1.024822    1.092788    0.232008
     38          1           0       -1.540866    3.308760    1.308968
     39          1           0       -2.139234    3.918760   -0.241115
     40          1           0       -0.425157    3.511777   -0.052387
 ---------------------------------------------------------------------

 SCF Done:  E(RHF) =  -470.733016218     A.U. after   11 cycles
 E2 =    -0.1583360155D+01 EUMP2 =    -0.47231637637346D+03

 The electronic state is 1-A.
 Alpha  occ. eigenvalues --  -11.21620 -11.21610 -11.21592 -11.21568 -11.21422
 Alpha  occ. eigenvalues --  -11.21375 -11.21362 -11.21296 -11.21110 -11.21093
 Alpha  occ. eigenvalues --  -11.21077 -11.21050  -1.08456  -1.08401  -1.03562
 Alpha  occ. eigenvalues --   -1.03510  -0.96011  -0.95964  -0.87028  -0.86984
 Alpha  occ. eigenvalues --   -0.79627  -0.79579  -0.78274  -0.78203  -0.65182
 Alpha  occ. eigenvalues --   -0.64959  -0.61087  -0.60802  -0.59386  -0.59323
 Alpha  occ. eigenvalues --   -0.57638  -0.57552  -0.55316  -0.55253  -0.52734
 Alpha  occ. eigenvalues --   -0.52653  -0.52458  -0.52353  -0.50019  -0.49879
 Alpha  occ. eigenvalues --   -0.48027  -0.47810  -0.46775  -0.46530  -0.45867
 Alpha  occ. eigenvalues --   -0.45758  -0.45728  -0.45473  -0.43793  -0.43758
 Alpha virt. eigenvalues --    0.20707   0.23066   0.23867   0.24272   0.26210
 Alpha virt. eigenvalues --    0.26611   0.27110   0.27525   0.28017   0.29313
 Alpha virt. eigenvalues --    0.30077   0.31431   0.31752   0.32022   0.32147

 Mulliken charges:
               1
     1  C   -0.298338
     2  C   -0.299686
     3  C   -0.475718
     4  H    0.149702
     5  H    0.149704
     6  H    0.151919
     7  H    0.152001
     8  H    0.155213
     9  H    0.155190
    10  H    0.160295
    11  C   -0.298629
    12  C   -0.300611
    13  C   -0.481180
    14  H    0.149549
    15  H    0.149464
    16  H    0.152184
    17  H    0.153606
    18  H    0.158061
    19  H    0.155301
    20  H    0.162508
    21  C   -0.303837
    22  C   -0.299393
    23  C   -0.475740
    24  H    0.148968
    25  H    0.156206
    26  H    0.151698
    27  H    0.151881
    28  H    0.155101
    29  H    0.154989
    30  H    0.160200
    31  C   -0.297604
    32  C   -0.307176
    33  C   -0.475273
    34  H    0.149462
    35  H    0.149274
    36  H    0.151659
    37  H    0.159024
    38  H    0.155043
    39  H    0.155436
    40  H    0.159545
 Sum of Mulliken charges =  -0.00000

 Dipole moment (field-independent basis, Debye):
    X=              0.0216    Y=             -0.0221    Z=              0.0004  Tot=              0.0309
 Quadrupole moment (field-independent basis, Debye-Ang):
   XX=            -85.6125   YY=            -84.9814   ZZ=            -84.2869
   XY=             -1.1331   XZ=              0.7632   YZ=             -0.6245

 Normal termination of Gaussian 16 at Thu May  6 14:51:40 2021.
