 Gaussian 16, Revision A.03,
 Gaussian 16:  EM64L-G16RevA.03 25-Dec-2016

 -------------
 #p 6-31g* mp2
 -------------

 ------------------------------------------------------
 Input file generated by CHIRIPA (05-May-2021 14:55:21)
 ------------------------------------------------------
 Symbolic Z-matrix:
 Charge =  0 Multiplicity = 1

                         Standard orientation:
 ---------------------------------------------------------------------
 Center     Atomic      Atomic             Coordinates (Angstroms)
 Number     Number       Type             X           Y           Z
 ---------------------------------------------------------------------
      1          6           0       -1.727143    1.314655    0.621166
      2          6           0       -1.912484   -0.013811    1.017836
      3          6           0       -3.102224   -0.684562    0.719238
      4          6           0       -4.090032    0.006633    0.019399
      5          6           0       -3.935250    1.330330   -0.389452
      6          6           0       -2.737337    1.981310   -0.079976
      7          1           0       -0.799750    1.828031    0.857350
      8          1           0       -1.129681   -0.534041    1.562470
      9          1           0       -3.272072   -1.712916    1.014293
     10          1           0       -4.733785    1.822617   -0.931129
     11          1           0       -2.596162    3.013025   -0.389296
     12          7           0       -5.353883   -0.692996   -0.302471
     13          8           0       -6.208779   -0.061845   -0.920079
     14          8           0       -5.465662   -1.859267    0.068949
     15          6           0        5.641365    0.067555    0.191575
     16          6           0        6.838172   -0.431644   -0.618635
     17          6           0        8.176963    0.023954   -0.037376
     18          1           0        5.668934    1.164912    0.236201
     19          1           0        5.733412   -0.289773    1.226582
     20          1           0        6.743184   -0.074636   -1.652143
     21          1           0        6.807644   -1.527932   -0.661499
     22          1           0        8.297838   -0.344576    0.986428
     23          1           0        8.233012    1.116978   -0.009844
     24          1           0        9.018875   -0.344053   -0.632032
     25          6           0        4.295874   -0.379722   -0.377039
     26          6           0        3.099067    0.119477    0.433170
     27          6           0        1.760275   -0.336121   -0.148088
     28          1           0        4.203827   -0.022395   -1.412047
     29          1           0        4.268303   -1.477080   -0.421665
     30          1           0        3.129595    1.215765    0.476033
     31          1           0        3.194055   -0.237531    1.466677
     32          1           0        1.704227   -1.429145   -0.175621
     33          1           0        1.639401    0.032409   -1.171894
     34          1           0        0.918363    0.031885    0.446566
 ---------------------------------------------------------------------

 SCF Done:  E(RHF) =  -669.534400195     A.U. after   15 cycles
 E2 =    -0.2091891871D+01 EUMP2 =    -0.67162629206641D+03

 The electronic state is 1-A.
 Alpha  occ. eigenvalues --  -20.60737 -20.60732 -15.85791 -11.31155 -11.27726
 Alpha  occ. eigenvalues --  -11.27715 -11.27460 -11.26740 -11.26714 -11.22453
 Alpha  occ. eigenvalues --  -11.22047 -11.22043 -11.22031 -11.21907 -11.21447
 Alpha  occ. eigenvalues --   -1.59812  -1.39366  -1.19330  -1.09062  -1.08730
 Alpha  occ. eigenvalues --   -1.04737  -1.04188  -0.96650  -0.95562  -0.87674
 Alpha  occ. eigenvalues --   -0.86134  -0.82393  -0.80259  -0.78841  -0.77441
 Alpha  occ. eigenvalues --   -0.72011  -0.71135  -0.70466  -0.65686  -0.65000
 Alpha  occ. eigenvalues --   -0.64794  -0.62127  -0.61576  -0.60017  -0.58243
 Alpha  occ. eigenvalues --   -0.55918  -0.55239  -0.53538  -0.53087  -0.52944
 Alpha  occ. eigenvalues --   -0.52716  -0.50562  -0.48770  -0.48764  -0.48565
 Alpha  occ. eigenvalues --   -0.47279  -0.46389  -0.46294  -0.44772  -0.44442
 Alpha  occ. eigenvalues --   -0.37275  -0.36320
 Alpha virt. eigenvalues --    0.05086   0.11235   0.16566   0.20280   0.22519
 Alpha virt. eigenvalues --    0.23965   0.26026   0.26451   0.26839   0.27571
 Alpha virt. eigenvalues --    0.28867   0.30327   0.30792   0.31440   0.31524

 Mulliken charges:
               1
     1  C   -0.169549
     2  C   -0.217132
     3  C   -0.172106
     4  C    0.158264
     5  C   -0.171034
     6  C   -0.219427
     7  H    0.226003
     8  H    0.224688
     9  H    0.275557
    10  H    0.275484
    11  H    0.223273
    12  N    0.488115
    13  O   -0.460533
    14  O   -0.460459
    15  C   -0.298608
    16  C   -0.300133
    17  C   -0.476005
    18  H    0.149589
    19  H    0.149985
    20  H    0.152661
    21  H    0.152922
    22  H    0.155594
    23  H    0.155337
    24  H    0.161709
    25  C   -0.299045
    26  C   -0.300048
    27  C   -0.478846
    28  H    0.151033
    29  H    0.151543
    30  H    0.149982
    31  H    0.151810
    32  H    0.158639
    33  H    0.159960
    34  H    0.150778
 Sum of Mulliken charges =  -0.00000

 Dipole moment (field-independent basis, Debye):
    X=              4.6061    Y=              2.4335    Z=              1.0746  Tot=              5.3191
 Quadrupole moment (field-independent basis, Debye-Ang):
   XX=           -131.7381   YY=            -90.8528   ZZ=            -94.1531
   XY=            -12.1324   XZ=             -4.0913   YZ=             -2.7107

 Normal termination of Gaussian 16 at Thu May  6 07:46:33 2021.
