 Gaussian 16, Revision A.03,
 Gaussian 16:  EM64L-G16RevA.03 25-Dec-2016

 -------------
 #p 6-31g* mp2
 -------------

 ------------------------------------------------------
 Input file generated by CHIRIPA (05-May-2021 14:51:08)
 ------------------------------------------------------
 Symbolic Z-matrix:
 Charge =  0 Multiplicity = 1

                         Standard orientation:
 ---------------------------------------------------------------------
 Center     Atomic      Atomic             Coordinates (Angstroms)
 Number     Number       Type             X           Y           Z
 ---------------------------------------------------------------------
      1          6           0       -2.043125   -0.842250   -0.249587
      2          6           0       -2.551095   -2.228364    0.148708
      3          6           0       -1.600498   -3.349672   -0.271800
      4          1           0       -1.896067   -0.811373   -1.337872
      5          1           0       -1.056075   -0.676816    0.204019
      6          1           0       -3.537507   -2.390584   -0.304385
      7          1           0       -2.697144   -2.255885    1.236150
      8          1           0       -0.617623   -3.215429    0.191381
      9          1           0       -1.462760   -3.350894   -1.357906
     10          1           0       -1.983056   -4.331883    0.022768
     11          6           0       -2.982601    0.289157    0.163971
     12          6           0       -2.474631    1.675271   -0.234324
     13          6           0       -3.425229    2.796579    0.186183
     14          1           0       -3.969651    0.123723   -0.289636
     15          1           0       -3.129660    0.258280    1.252256
     16          1           0       -2.328582    1.702792   -1.321766
     17          1           0       -1.488220    1.837492    0.218769
     18          1           0       -3.562967    2.797801    1.272290
     19          1           0       -4.408104    2.662337   -0.276998
     20          1           0       -3.042670    3.778791   -0.108384
     21          6           0        2.201106    0.934664    0.273285
     22          6           0        2.803582    2.162964   -0.409568
     23          6           0        2.169565    3.471969    0.061943
     24          1           0        1.119657    0.909911    0.081456
     25          1           0        2.323483    1.031516    1.360961
     26          1           0        2.681338    2.063174   -1.495715
     27          1           0        3.883753    2.184693   -0.216250
     28          1           0        2.303870    3.598272    1.141114
     29          1           0        1.094623    3.476062   -0.145620
     30          1           0        2.615103    4.337116   -0.438934
     31          6           0        2.824621   -0.381572   -0.187669
     32          6           0        2.222145   -1.609871    0.495185
     33          6           0        2.856161   -2.918876    0.023673
     34          1           0        2.702244   -0.478422   -1.275345
     35          1           0        3.906070   -0.356818    0.004161
     36          1           0        1.141973   -1.631600    0.301866
     37          1           0        2.344389   -1.510081    1.581331
     38          1           0        3.931103   -2.922969    0.231237
     39          1           0        2.721856   -3.045179   -1.055498
     40          1           0        2.410622   -3.784023    0.524550
 ---------------------------------------------------------------------

 SCF Done:  E(RHF) =  -470.732476897     A.U. after   11 cycles
 E2 =    -0.1585114685D+01 EUMP2 =    -0.47231759158212D+03

 The electronic state is 1-A.
 Alpha  occ. eigenvalues --  -11.21655 -11.21630 -11.21596 -11.21565 -11.21445
 Alpha  occ. eigenvalues --  -11.21396 -11.21385 -11.21337 -11.21102 -11.21068
 Alpha  occ. eigenvalues --  -11.21066 -11.21061  -1.08503  -1.08405  -1.03598
 Alpha  occ. eigenvalues --   -1.03499  -0.96035  -0.95954  -0.87035  -0.86985
 Alpha  occ. eigenvalues --   -0.79718  -0.79522  -0.78488  -0.78079  -0.65320
 Alpha  occ. eigenvalues --   -0.64865  -0.61182  -0.60758  -0.59448  -0.59262
 Alpha  occ. eigenvalues --   -0.57745  -0.57491  -0.55387  -0.55164  -0.52704
 Alpha  occ. eigenvalues --   -0.52670  -0.52467  -0.52372  -0.49969  -0.49907
 Alpha  occ. eigenvalues --   -0.48172  -0.47778  -0.46950  -0.46581  -0.46319
 Alpha  occ. eigenvalues --   -0.45799  -0.45741  -0.44824  -0.43822  -0.43766
 Alpha virt. eigenvalues --    0.20577   0.21805   0.23495   0.24508   0.25276
 Alpha virt. eigenvalues --    0.25867   0.26835   0.27187   0.28780   0.29541
 Alpha virt. eigenvalues --    0.31034   0.31221   0.31667   0.31739   0.32026

 Mulliken charges:
               1
     1  C   -0.308570
     2  C   -0.299406
     3  C   -0.482155
     4  H    0.148905
     5  H    0.159092
     6  H    0.152140
     7  H    0.151947
     8  H    0.162329
     9  H    0.154773
    10  H    0.160495
    11  C   -0.297318
    12  C   -0.305476
    13  C   -0.475585
    14  H    0.149872
    15  H    0.149886
    16  H    0.151630
    17  H    0.156713
    18  H    0.155536
    19  H    0.155398
    20  H    0.160467
    21  C   -0.306736
    22  C   -0.299088
    23  C   -0.477764
    24  H    0.157284
    25  H    0.148833
    26  H    0.152099
    27  H    0.152014
    28  H    0.154945
    29  H    0.157022
    30  H    0.160342
    31  C   -0.296721
    32  C   -0.312330
    33  C   -0.475594
    34  H    0.149616
    35  H    0.149632
    36  H    0.163213
    37  H    0.151076
    38  H    0.155262
    39  H    0.155763
    40  H    0.160461
 Sum of Mulliken charges =  -0.00000

 Dipole moment (field-independent basis, Debye):
    X=             -0.0182    Y=             -0.0059    Z=             -0.0011  Tot=              0.0191
 Quadrupole moment (field-independent basis, Debye-Ang):
   XX=            -84.5734   YY=            -86.6714   ZZ=            -83.5347
   XY=              0.9537   XZ=              1.1133   YZ=             -0.3458

 Normal termination of Gaussian 16 at Thu May  6 02:04:49 2021.
