 Gaussian 16, Revision A.03,
 Gaussian 16:  EM64L-G16RevA.03 25-Dec-2016

 -------------
 #p 6-31g* mp2
 -------------

 ------------------------------------------------------
 Input file generated by CHIRIPA (05-May-2021 14:51:12)
 ------------------------------------------------------
 Symbolic Z-matrix:
 Charge =  0 Multiplicity = 1

                         Standard orientation:
 ---------------------------------------------------------------------
 Center     Atomic      Atomic             Coordinates (Angstroms)
 Number     Number       Type             X           Y           Z
 ---------------------------------------------------------------------
      1          6           0        3.305789   -0.511457   -0.070180
      2          6           0        2.178054   -1.495600   -0.382690
      3          6           0        2.642189   -2.952298   -0.362596
      4          1           0        4.116636   -0.649506   -0.798475
      5          1           0        3.727712   -0.749249    0.916142
      6          1           0        1.757464   -1.255159   -1.367529
      7          1           0        1.369715   -1.355061    0.346318
      8          1           0        3.043123   -3.215328    0.621614
      9          1           0        3.433075   -3.114858   -1.101971
     10          1           0        1.820214   -3.638702   -0.588574
     11          6           0        2.857373    0.948811   -0.086510
     12          6           0        3.985107    1.932955    0.226001
     13          6           0        3.520972    3.389653    0.205906
     14          1           0        2.435449    1.186603   -1.072832
     15          1           0        2.046525    1.086860    0.641785
     16          1           0        4.793446    1.792415   -0.503007
     17          1           0        4.405697    1.692513    1.210839
     18          1           0        2.730086    3.552212    0.945281
     19          1           0        3.120038    3.652682   -0.778304
     20          1           0        4.342948    4.076056    0.431885
     21          6           0       -3.172085    0.536383    0.006752
     22          6           0       -4.633583    0.960502   -0.142012
     23          6           0       -4.798398    2.473910   -0.284235
     24          1           0       -2.738786    1.037792    0.882986
     25          1           0       -2.604973    0.887456   -0.866476
     26          1           0       -5.198051    0.607535    0.730574
     27          1           0       -5.063507    0.457876   -1.017882
     28          1           0       -4.260111    2.838971   -1.164904
     29          1           0       -4.395418    2.989480    0.593487
     30          1           0       -5.850921    2.755011   -0.389287
     31          6           0       -2.991077   -0.973737    0.149938
     32          6           0       -1.529578   -1.397856    0.298702
     33          6           0       -1.364763   -2.911263    0.440924
     34          1           0       -3.558189   -1.324809    1.023166
     35          1           0       -3.424375   -1.475146   -0.726296
     36          1           0       -1.099653   -0.895230    1.174572
     37          1           0       -0.965111   -1.044888   -0.573884
     38          1           0       -1.767743   -3.426835   -0.436797
     39          1           0       -1.903050   -3.276326    1.321593
     40          1           0       -0.312240   -3.192366    0.545977
 ---------------------------------------------------------------------

 SCF Done:  E(RHF) =  -470.731902303     A.U. after   11 cycles
 E2 =    -0.1584273733D+01 EUMP2 =    -0.47231617603540D+03

 The electronic state is 1-A.
 Alpha  occ. eigenvalues --  -11.21589 -11.21589 -11.21548 -11.21513 -11.21381
 Alpha  occ. eigenvalues --  -11.21380 -11.21320 -11.21320 -11.21061 -11.21061
 Alpha  occ. eigenvalues --  -11.21057 -11.21011  -1.08453  -1.08369  -1.03614
 Alpha  occ. eigenvalues --   -1.03421  -0.96050  -0.95887  -0.87036  -0.86928
 Alpha  occ. eigenvalues --   -0.79766  -0.79435  -0.78367  -0.78061  -0.65070
 Alpha  occ. eigenvalues --   -0.65027  -0.61001  -0.60916  -0.59782  -0.59012
 Alpha  occ. eigenvalues --   -0.57871  -0.57164  -0.55250  -0.55239  -0.52865
 Alpha  occ. eigenvalues --   -0.52541  -0.52449  -0.52191  -0.49916  -0.49896
 Alpha  occ. eigenvalues --   -0.48180  -0.47673  -0.46659  -0.46558  -0.45987
 Alpha  occ. eigenvalues --   -0.45781  -0.45597  -0.45411  -0.43855  -0.43652
 Alpha virt. eigenvalues --    0.21584   0.23155   0.23388   0.25210   0.25629
 Alpha virt. eigenvalues --    0.26142   0.26912   0.27245   0.28534   0.29221
 Alpha virt. eigenvalues --    0.30509   0.31118   0.31357   0.31718   0.32107

 Mulliken charges:
               1
     1  C   -0.297347
     2  C   -0.307381
     3  C   -0.479358
     4  H    0.149200
     5  H    0.149094
     6  H    0.150927
     7  H    0.163260
     8  H    0.154825
     9  H    0.155603
    10  H    0.162339
    11  C   -0.298364
    12  C   -0.299599
    13  C   -0.475646
    14  H    0.149146
    15  H    0.149885
    16  H    0.151911
    17  H    0.151828
    18  H    0.155180
    19  H    0.155142
    20  H    0.160180
    21  C   -0.298149
    22  C   -0.299629
    23  C   -0.475659
    24  H    0.149304
    25  H    0.149611
    26  H    0.151870
    27  H    0.151889
    28  H    0.155194
    29  H    0.155127
    30  H    0.160193
    31  C   -0.297806
    32  C   -0.302714
    33  C   -0.483298
    34  H    0.149163
    35  H    0.149483
    36  H    0.149777
    37  H    0.156970
    38  H    0.154750
    39  H    0.154865
    40  H    0.168235
 Sum of Mulliken charges =  -0.00000

 Dipole moment (field-independent basis, Debye):
    X=              0.0049    Y=             -0.0004    Z=             -0.0052  Tot=              0.0072
 Quadrupole moment (field-independent basis, Debye-Ang):
   XX=            -85.0872   YY=            -87.2029   ZZ=            -82.7461
   XY=              0.4834   XZ=             -0.2920   YZ=              0.1358

 Normal termination of Gaussian 16 at Wed May  5 21:31:37 2021.
