 Gaussian 16, Revision A.03,
 Gaussian 16:  EM64L-G16RevA.03 25-Dec-2016

 -------------
 #p 6-31g* mp2
 -------------

 ------------------------------------------------------
 Input file generated by CHIRIPA (05-May-2021 14:53:15)
 ------------------------------------------------------
 Symbolic Z-matrix:
 Charge =  0 Multiplicity = 1

                         Standard orientation:
 ---------------------------------------------------------------------
 Center     Atomic      Atomic             Coordinates (Angstroms)
 Number     Number       Type             X           Y           Z
 ---------------------------------------------------------------------
      1          6           0       -4.088320   -0.677830    0.228860
      2          6           0       -5.110503   -1.455358   -0.600945
      3          6           0       -5.104439   -2.953242   -0.294189
      4          1           0       -3.086217   -1.087685    0.042431
      5          1           0       -4.296848   -0.835324    1.296150
      6          1           0       -4.900953   -1.295331   -1.666354
      7          1           0       -6.110265   -1.043480   -0.412665
      8          1           0       -5.335604   -3.131314    0.761015
      9          1           0       -4.119421   -3.384596   -0.499798
     10          1           0       -5.842597   -3.489777   -0.898435
     11          6           0       -4.082396    0.820984   -0.066519
     12          6           0       -3.060212    1.598511    0.763286
     13          6           0       -3.066277    3.096395    0.456530
     14          1           0       -3.873868    0.978477   -1.133809
     15          1           0       -5.084498    1.230838    0.119910
     16          1           0       -2.060451    1.186633    0.575006
     17          1           0       -3.269763    1.438484    1.828695
     18          1           0       -4.051294    3.527749    0.662139
     19          1           0       -2.835112    3.274468   -0.598674
     20          1           0       -2.328119    3.632930    1.060776
     21          6           0        2.014774    2.130518   -0.510952
     22          6           0        3.412396    2.074303   -0.514609
     23          6           0        4.075119    0.868284   -0.267903
     24          6           0        3.305465   -0.267296   -0.020149
     25          6           0        1.911690   -0.243398   -0.009725
     26          6           0        1.270194    0.973529   -0.258966
     27          1           0        1.508199    3.071620   -0.703583
     28          1           0        3.993218    2.971249   -0.709999
     29          1           0        5.155972    0.796430   -0.264752
     30          1           0        1.359801   -1.154240    0.188271
     31          1           0        0.184663    1.014217   -0.255498
     32          7           0        3.995824   -1.549828    0.242371
     33          8           0        3.294877   -2.536157    0.457922
     34          8           0        5.224804   -1.544461    0.227610
 ---------------------------------------------------------------------

 SCF Done:  E(RHF) =  -669.535499363     A.U. after   15 cycles
 E2 =    -0.2091034268D+01 EUMP2 =    -0.67162653363137D+03

 The electronic state is 1-A.
 Alpha  occ. eigenvalues --  -20.60749 -20.60743 -15.85802 -11.31167 -11.27739
 Alpha  occ. eigenvalues --  -11.27734 -11.27476 -11.26752 -11.26730 -11.22597
 Alpha  occ. eigenvalues --  -11.22130 -11.22052 -11.22019 -11.21970 -11.21379
 Alpha  occ. eigenvalues --   -1.59824  -1.39378  -1.19340  -1.09129  -1.08734
 Alpha  occ. eigenvalues --   -1.04746  -1.04208  -0.96636  -0.95569  -0.87653
 Alpha  occ. eigenvalues --   -0.86144  -0.82405  -0.80294  -0.78909  -0.77451
 Alpha  occ. eigenvalues --   -0.72020  -0.71147  -0.70447  -0.65806  -0.64992
 Alpha  occ. eigenvalues --   -0.64745  -0.62147  -0.61560  -0.60026  -0.58238
 Alpha  occ. eigenvalues --   -0.55920  -0.55244  -0.53340  -0.53073  -0.53058
 Alpha  occ. eigenvalues --   -0.52847  -0.50579  -0.48793  -0.48775  -0.48575
 Alpha  occ. eigenvalues --   -0.47331  -0.46448  -0.46354  -0.44783  -0.44454
 Alpha  occ. eigenvalues --   -0.37320  -0.36347
 Alpha virt. eigenvalues --    0.05086   0.11290   0.16567   0.19108   0.22752
 Alpha virt. eigenvalues --    0.23733   0.25014   0.26474   0.27171   0.28592
 Alpha virt. eigenvalues --    0.28860   0.29986   0.31078   0.31140   0.32119

 Mulliken charges:
               1
     1  C   -0.297856
     2  C   -0.300262
     3  C   -0.476301
     4  H    0.145962
     5  H    0.152034
     6  H    0.152304
     7  H    0.153090
     8  H    0.156361
     9  H    0.156527
    10  H    0.162042
    11  C   -0.298562
    12  C   -0.305029
    13  C   -0.477227
    14  H    0.149195
    15  H    0.153119
    16  H    0.144204
    17  H    0.157715
    18  H    0.160690
    19  H    0.153011
    20  H    0.159517
    21  C   -0.173260
    22  C   -0.218538
    23  C   -0.171109
    24  C    0.158783
    25  C   -0.173497
    26  C   -0.226287
    27  H    0.226408
    28  H    0.223348
    29  H    0.275536
    30  H    0.275610
    31  H    0.235394
    32  N    0.488102
    33  O   -0.460459
    34  O   -0.460565
 Sum of Mulliken charges =  -0.00000

 Dipole moment (field-independent basis, Debye):
    X=             -2.6416    Y=              4.5133    Z=             -0.8956  Tot=              5.3057
 Quadrupole moment (field-independent basis, Debye-Ang):
   XX=           -105.5596   YY=            -97.6228   ZZ=            -94.9936
   XY=             17.8289   XZ=             -4.2346   YZ=              0.1450

 Normal termination of Gaussian 16 at Thu May  6 10:35:02 2021.
