 Gaussian 16, Revision A.03,
 Gaussian 16:  EM64L-G16RevA.03 25-Dec-2016

 -------------
 #p 6-31g* mp2
 -------------

 ------------------------------------------------------
 Input file generated by CHIRIPA (05-May-2021 14:57:22)
 ------------------------------------------------------
 Symbolic Z-matrix:
 Charge =  0 Multiplicity = 1

                         Standard orientation:
 ---------------------------------------------------------------------
 Center     Atomic      Atomic             Coordinates (Angstroms)
 Number     Number       Type             X           Y           Z
 ---------------------------------------------------------------------
      1          6           0        1.733985    1.287126    0.033680
      2          6           0        1.781850   -0.086858    0.291359
      3          6           0        2.990394   -0.784123    0.203092
      4          6           0        4.136988   -0.072738   -0.146972
      5          6           0        4.121595    1.296216   -0.409681
      6          6           0        2.901951    1.973068   -0.315402
      7          1           0        0.790848    1.820849    0.104583
      8          1           0        0.876372   -0.622157    0.562670
      9          1           0        3.055946   -1.847797    0.397304
     10          1           0        5.040866    1.802577   -0.677930
     11          1           0        2.867766    3.040124   -0.516071
     12          7           0        5.422295   -0.800096   -0.243599
     13          8           0        6.418393   -0.150359   -0.553870
     14          8           0        5.409284   -2.006164   -0.007234
     15          6           0       -1.817923    0.656455    1.327064
     16          6           0       -2.196952   -0.689863    1.310181
     17          6           0       -3.362500   -1.091121    0.650607
     18          6           0       -4.128873   -0.115160    0.015420
     19          6           0       -3.777773    1.233921    0.014488
     20          6           0       -2.608150    1.612365    0.680304
     21          1           0       -0.910916    0.959301    1.841862
     22          1           0       -1.585188   -1.434414    1.811613
     23          1           0       -3.679345   -2.126593    0.621871
     24          1           0       -4.408025    1.953161   -0.494328
     25          1           0       -2.316246    2.658647    0.691774
     26          7           0       -5.364943   -0.527878   -0.686146
     27          8           0       -6.022883    0.351334   -1.238178
     28          8           0       -5.652430   -1.722763   -0.670716
 ---------------------------------------------------------------------

 SCF Done:  E(RHF) =  -868.336151973     A.U. after   16 cycles
 E2 =    -0.2601817947D+01 EUMP2 =    -0.87093796991995D+03

 The electronic state is 1-A.
 Alpha  occ. eigenvalues --  -20.61539 -20.61533 -20.61268 -20.61262 -15.86601
 Alpha  occ. eigenvalues --  -15.86325 -11.32217 -11.31826 -11.28811 -11.28806
 Alpha  occ. eigenvalues --  -11.28682 -11.28421 -11.28386 -11.28229 -11.27934
 Alpha  occ. eigenvalues --  -11.27925 -11.27490 -11.27450  -1.60608  -1.60340
 Alpha  occ. eigenvalues --   -1.40154  -1.39889  -1.20434  -1.20017  -1.09825
 Alpha  occ. eigenvalues --   -1.09397  -1.05863  -1.05439  -0.96611  -0.96200
 Alpha  occ. eigenvalues --   -0.87281  -0.86840  -0.83410  -0.83037  -0.78390
 Alpha  occ. eigenvalues --   -0.78052  -0.72816  -0.72547  -0.71933  -0.71791
 Alpha  occ. eigenvalues --   -0.71664  -0.70993  -0.66112  -0.65956  -0.65674
 Alpha  occ. eigenvalues --   -0.65380  -0.63201  -0.62767  -0.56519  -0.55902
 Alpha  occ. eigenvalues --   -0.54201  -0.53961  -0.53754  -0.53497  -0.49595
 Alpha  occ. eigenvalues --   -0.49552  -0.49312  -0.49288  -0.45503  -0.45265
 Alpha  occ. eigenvalues --   -0.38459  -0.38029  -0.37450  -0.37035
 Alpha virt. eigenvalues --    0.04101   0.04471   0.09928   0.10531   0.15445
 Alpha virt. eigenvalues --    0.15898   0.18768   0.22191   0.24175   0.26220
 Alpha virt. eigenvalues --    0.27724   0.29329   0.29695   0.30204   0.32468

 Mulliken charges:
               1
     1  C   -0.174907
     2  C   -0.222502
     3  C   -0.170654
     4  C    0.159483
     5  C   -0.169979
     6  C   -0.217839
     7  H    0.220294
     8  H    0.221228
     9  H    0.276741
    10  H    0.277744
    11  H    0.224606
    12  N    0.487980
    13  O   -0.458513
    14  O   -0.459114
    15  C   -0.178663
    16  C   -0.222859
    17  C   -0.169050
    18  C    0.159879
    19  C   -0.168614
    20  C   -0.220898
    21  H    0.225905
    22  H    0.224274
    23  H    0.279778
    24  H    0.279182
    25  H    0.223345
    26  N    0.487942
    27  O   -0.457633
    28  O   -0.457154
 Sum of Mulliken charges =  -0.00000

 Dipole moment (field-independent basis, Debye):
    X=             -0.3686    Y=              3.9459    Z=              2.7010  Tot=              4.7960
 Quadrupole moment (field-independent basis, Debye-Ang):
   XX=           -175.9144   YY=            -97.4082   ZZ=           -105.7922
   XY=              5.9289   XZ=             -8.5601   YZ=             -3.4595

 Normal termination of Gaussian 16 at Thu May  6 03:23:15 2021.
