 Gaussian 16, Revision A.03,
 Gaussian 16:  EM64L-G16RevA.03 25-Dec-2016

 -------------
 #p 6-31g* mp2
 -------------

 ------------------------------------------------------
 Input file generated by CHIRIPA (05-May-2021 14:51:12)
 ------------------------------------------------------
 Symbolic Z-matrix:
 Charge =  0 Multiplicity = 1

                         Standard orientation:
 ---------------------------------------------------------------------
 Center     Atomic      Atomic             Coordinates (Angstroms)
 Number     Number       Type             X           Y           Z
 ---------------------------------------------------------------------
      1          6           0        3.038089    0.662253    0.695563
      2          6           0        1.723012    0.635597    1.475207
      3          6           0        1.299710    2.019746    1.967895
      4          1           0        3.827020    1.082878    1.334005
      5          1           0        2.934323    1.341726   -0.161726
      6          1           0        1.828783   -0.044689    2.329982
      7          1           0        0.937162    0.214809    0.834899
      8          1           0        1.166602    2.704837    1.124371
      9          1           0        2.063289    2.443865    2.627949
     10          1           0        0.357200    1.977516    2.522649
     11          6           0        3.474464   -0.714040    0.196442
     12          6           0        4.789542   -0.687383   -0.583202
     13          6           0        5.212844   -2.071532   -1.075890
     14          1           0        3.578230   -1.393513    1.053731
     15          1           0        2.685534   -1.134664   -0.442000
     16          1           0        5.575392   -0.266596    0.057106
     17          1           0        4.683771   -0.007098   -1.437977
     18          1           0        4.449265   -2.495651   -1.735944
     19          1           0        5.345952   -2.756624   -0.232366
     20          1           0        6.155354   -2.029302   -1.630644
     21          6           0       -3.115553    0.737408   -0.685534
     22          6           0       -1.711872    0.915621   -1.265106
     23          6           0       -1.445388    2.344353   -1.739978
     24          1           0       -3.857535    1.016971   -1.445964
     25          1           0       -3.249623    1.434558    0.153158
     26          1           0       -1.580003    0.217374   -2.101573
     27          1           0       -0.973149    0.635418   -0.503272
     28          1           0       -1.549667    3.051652   -0.910848
     29          1           0       -2.159968    2.631231   -2.518232
     30          1           0       -0.436299    2.449307   -2.150567
     31          6           0       -3.397001   -0.685622   -0.206471
     32          6           0       -4.800683   -0.863834    0.373101
     33          6           0       -5.067165   -2.292567    0.847974
     34          1           0       -3.262930   -1.382771   -1.045162
     35          1           0       -2.655020   -0.965185    0.553959
     36          1           0       -5.539405   -0.583632   -0.388734
     37          1           0       -4.932551   -0.165587    1.209567
     38          1           0       -4.352586   -2.579446    1.626226
     39          1           0       -4.962887   -2.999865    0.018844
     40          1           0       -6.076255   -2.397521    1.258563
 ---------------------------------------------------------------------

 SCF Done:  E(RHF) =  -470.733369907     A.U. after   11 cycles
 E2 =    -0.1583013726D+01 EUMP2 =    -0.47231638363273D+03

 The electronic state is 1-A.
 Alpha  occ. eigenvalues --  -11.21619 -11.21615 -11.21609 -11.21604 -11.21419
 Alpha  occ. eigenvalues --  -11.21414 -11.21359 -11.21354 -11.21106 -11.21103
 Alpha  occ. eigenvalues --  -11.21075 -11.21071  -1.08460  -1.08428  -1.03577
 Alpha  occ. eigenvalues --   -1.03517  -0.96009  -0.95979  -0.87023  -0.86998
 Alpha  occ. eigenvalues --   -0.79678  -0.79552  -0.78307  -0.78208  -0.65203
 Alpha  occ. eigenvalues --   -0.64966  -0.61158  -0.60746  -0.59383  -0.59338
 Alpha  occ. eigenvalues --   -0.57622  -0.57589  -0.55366  -0.55186  -0.52695
 Alpha  occ. eigenvalues --   -0.52687  -0.52426  -0.52411  -0.50028  -0.49855
 Alpha  occ. eigenvalues --   -0.48055  -0.47850  -0.46906  -0.46450  -0.45952
 Alpha  occ. eigenvalues --   -0.45760  -0.45756  -0.45419  -0.43803  -0.43794
 Alpha virt. eigenvalues --    0.20381   0.23194   0.23710   0.25069   0.25704
 Alpha virt. eigenvalues --    0.26723   0.26859   0.27878   0.28429   0.28730
 Alpha virt. eigenvalues --    0.30757   0.31496   0.31626   0.31886   0.32081

 Mulliken charges:
               1
     1  C   -0.297816
     2  C   -0.307183
     3  C   -0.476499
     4  H    0.149748
     5  H    0.149588
     6  H    0.152122
     7  H    0.157988
     8  H    0.156788
     9  H    0.155507
    10  H    0.159414
    11  C   -0.298540
    12  C   -0.299667
    13  C   -0.475732
    14  H    0.149503
    15  H    0.150048
    16  H    0.151927
    17  H    0.151940
    18  H    0.155267
    19  H    0.155179
    20  H    0.160256
    21  C   -0.297564
    22  C   -0.309169
    23  C   -0.475539
    24  H    0.149705
    25  H    0.149707
    26  H    0.151582
    27  H    0.160848
    28  H    0.156067
    29  H    0.155384
    30  H    0.159306
    31  C   -0.298560
    32  C   -0.299660
    33  C   -0.475744
    34  H    0.149470
    35  H    0.149618
    36  H    0.151988
    37  H    0.151981
    38  H    0.155291
    39  H    0.155175
    40  H    0.160280
 Sum of Mulliken charges =  -0.00000

 Dipole moment (field-independent basis, Debye):
    X=              0.0003    Y=              0.0026    Z=              0.0025  Tot=              0.0036
 Quadrupole moment (field-independent basis, Debye-Ang):
   XX=            -84.6809   YY=            -86.5434   ZZ=            -83.5101
   XY=              0.0759   XZ=              1.1081   YZ=              0.0930

 Normal termination of Gaussian 16 at Wed May  5 21:31:34 2021.
