 Gaussian 16, Revision A.03,
 Gaussian 16:  EM64L-G16RevA.03 25-Dec-2016

 -------------
 #p 6-31g* mp2
 -------------

 ------------------------------------------------------
 Input file generated by CHIRIPA (05-May-2021 14:55:22)
 ------------------------------------------------------
 Symbolic Z-matrix:
 Charge =  0 Multiplicity = 1

                         Standard orientation:
 ---------------------------------------------------------------------
 Center     Atomic      Atomic             Coordinates (Angstroms)
 Number     Number       Type             X           Y           Z
 ---------------------------------------------------------------------
      1          6           0       -2.624470   -1.984458    1.074389
      2          6           0       -1.619277   -1.153334    1.579702
      3          6           0       -1.491447    0.162850    1.125977
      4          6           0       -2.390012    0.617216    0.161911
      5          6           0       -3.401951   -0.186474   -0.360920
      6          6           0       -3.511036   -1.499230    0.107395
      7          1           0       -2.716491   -3.005570    1.432521
      8          1           0       -0.929347   -1.527479    2.330740
      9          1           0       -0.722472    0.827789    1.500078
     10          1           0       -4.074837    0.214831   -1.108982
     11          1           0       -4.292648   -2.142437   -0.286830
     12          7           0       -2.264606    2.008786   -0.326151
     13          8           0       -3.068797    2.385158   -1.176008
     14          8           0       -1.364496    2.696778    0.150406
     15          6           0        3.479815   -0.162086    0.252171
     16          6           0        4.645568    0.691243   -0.248663
     17          6           0        5.424469    1.353643    0.888146
     18          1           0        2.801822    0.466663    0.845418
     19          1           0        3.865376   -0.934203    0.932299
     20          1           0        4.258092    1.460653   -0.928726
     21          1           0        5.320765    0.060432   -0.840948
     22          1           0        5.838277    0.597623    1.563274
     23          1           0        4.769565    2.005801    1.474996
     24          1           0        6.253256    1.958783    0.507648
     25          6           0        2.691526   -0.830856   -0.872586
     26          6           0        1.525774   -1.684185   -0.371752
     27          6           0        0.746872   -2.346584   -1.508561
     28          1           0        2.305966   -0.058739   -1.552714
     29          1           0        3.369520   -1.459605   -1.465834
     30          1           0        0.850577   -1.053374    0.220533
     31          1           0        1.913250   -2.453595    0.308311
     32          1           0        1.401777   -2.998742   -2.095412
     33          1           0        0.333065   -1.590565   -2.183689
     34          1           0       -0.081914   -2.951725   -1.128063
 ---------------------------------------------------------------------

 SCF Done:  E(RHF) =  -669.534352258     A.U. after   15 cycles
 E2 =    -0.2093912756D+01 EUMP2 =    -0.67162826501405D+03

 The electronic state is 1-A.
 Alpha  occ. eigenvalues --  -20.60852 -20.60845 -15.85905 -11.31282 -11.27830
 Alpha  occ. eigenvalues --  -11.27819 -11.27573 -11.26858 -11.26844 -11.21715
 Alpha  occ. eigenvalues --  -11.21569 -11.21480 -11.21409 -11.21235 -11.21020
 Alpha  occ. eigenvalues --   -1.59927  -1.39480  -1.19455  -1.08845  -1.08500
 Alpha  occ. eigenvalues --   -1.04871  -1.03587  -0.96040  -0.95679  -0.87059
 Alpha  occ. eigenvalues --   -0.86250  -0.82520  -0.79682  -0.78342  -0.77543
 Alpha  occ. eigenvalues --   -0.72122  -0.71251  -0.70556  -0.65190  -0.65061
 Alpha  occ. eigenvalues --   -0.64850  -0.62211  -0.61008  -0.59443  -0.57683
 Alpha  occ. eigenvalues --   -0.55352  -0.55345  -0.53188  -0.52941  -0.52679
 Alpha  occ. eigenvalues --   -0.52466  -0.49983  -0.48881  -0.48877  -0.47996
 Alpha  occ. eigenvalues --   -0.46717  -0.45880  -0.45784  -0.44879  -0.43853
 Alpha  occ. eigenvalues --   -0.37420  -0.36307
 Alpha virt. eigenvalues --    0.04943   0.11130   0.16372   0.20817   0.22898
 Alpha virt. eigenvalues --    0.24262   0.25581   0.26792   0.27543   0.28145
 Alpha virt. eigenvalues --    0.29278   0.30708   0.31397   0.31625   0.32232

 Mulliken charges:
               1
     1  C   -0.171854
     2  C   -0.213759
     3  C   -0.173893
     4  C    0.159404
     5  C   -0.171314
     6  C   -0.217705
     7  H    0.226169
     8  H    0.225789
     9  H    0.276187
    10  H    0.275877
    11  H    0.224006
    12  N    0.487979
    13  O   -0.459905
    14  O   -0.460721
    15  C   -0.297862
    16  C   -0.300072
    17  C   -0.476134
    18  H    0.147349
    19  H    0.146942
    20  H    0.156122
    21  H    0.151574
    22  H    0.153362
    23  H    0.156585
    24  H    0.161284
    25  C   -0.298328
    26  C   -0.305064
    27  C   -0.474464
    28  H    0.154219
    29  H    0.149409
    30  H    0.154487
    31  H    0.146006
    32  H    0.154946
    33  H    0.157873
    34  H    0.155509
 Sum of Mulliken charges =  -0.00000

 Dipole moment (field-independent basis, Debye):
    X=             -0.5252    Y=             -4.8298    Z=              1.6950  Tot=              5.1455
 Quadrupole moment (field-independent basis, Debye-Ang):
   XX=            -89.8351   YY=           -101.2094   ZZ=            -93.3022
   XY=             11.7355   XZ=             -2.0879   YZ=              0.2008

 Normal termination of Gaussian 16 at Thu May  6 15:54:25 2021.
