 Gaussian 16, Revision A.03,
 Gaussian 16:  EM64L-G16RevA.03 25-Dec-2016

 -------------
 #p 6-31g* mp2
 -------------

 ------------------------------------------------------
 Input file generated by CHIRIPA (05-May-2021 14:53:18)
 ------------------------------------------------------
 Symbolic Z-matrix:
 Charge =  0 Multiplicity = 1

                         Standard orientation:
 ---------------------------------------------------------------------
 Center     Atomic      Atomic             Coordinates (Angstroms)
 Number     Number       Type             X           Y           Z
 ---------------------------------------------------------------------
      1          6           0       -3.418678    0.740848   -0.179152
      2          6           0       -3.124210    1.908275    0.763391
      3          6           0       -2.071780    2.867147    0.205940
      4          1           0       -2.487363    0.191901   -0.374737
      5          1           0       -3.757477    1.136342   -1.146724
      6          1           0       -2.787390    1.510665    1.729349
      7          1           0       -4.056370    2.454393    0.956907
      8          1           0       -2.403508    3.291372   -0.747260
      9          1           0       -1.127317    2.342282    0.029570
     10          1           0       -1.876637    3.694155    0.895750
     11          6           0       -4.468816   -0.226451    0.364237
     12          6           0       -4.763285   -1.393878   -0.578306
     13          6           0       -5.815714   -2.352750   -0.020855
     14          1           0       -4.130018   -0.621945    1.331809
     15          1           0       -5.400131    0.322496    0.559822
     16          1           0       -3.831124   -1.939996   -0.771822
     17          1           0       -5.100104   -0.996267   -1.544263
     18          1           0       -6.760177   -1.827884    0.155515
     19          1           0       -5.483987   -2.776974    0.932345
     20          1           0       -6.010857   -3.179757   -0.710665
     21          6           0        3.594914   -2.647297    0.270032
     22          6           0        4.590812   -1.687178    0.477107
     23          6           0        4.317370   -0.328898    0.290419
     24          6           0        3.031374    0.035569   -0.105394
     25          6           0        2.017882   -0.897281   -0.319668
     26          6           0        2.313885   -2.249985   -0.126994
     27          1           0        3.816093   -3.700276    0.417381
     28          1           0        5.586570   -1.992834    0.785466
     29          1           0        5.069607    0.435341    0.443705
     30          1           0        1.034689   -0.562001   -0.626815
     31          1           0        1.538492   -2.993430   -0.288548
     32          7           0        2.729951    1.470567   -0.306201
     33          8           0        1.589026    1.765838   -0.655115
     34          8           0        3.640328    2.272876   -0.110875
 ---------------------------------------------------------------------

 SCF Done:  E(RHF) =  -669.535982608     A.U. after   15 cycles
 E2 =    -0.2090991446D+01 EUMP2 =    -0.67162697405416D+03

 The electronic state is 1-A.
 Alpha  occ. eigenvalues --  -20.60918 -20.60907 -15.85956 -11.31287 -11.27858
 Alpha  occ. eigenvalues --  -11.27847 -11.27590 -11.26863 -11.26853 -11.21590
 Alpha  occ. eigenvalues --  -11.21227 -11.21097 -11.21078 -11.20986 -11.19945
 Alpha  occ. eigenvalues --   -1.59978  -1.39534  -1.19457  -1.08858  -1.08156
 Alpha  occ. eigenvalues --   -1.04856  -1.03149  -0.95703  -0.95563  -0.86576
 Alpha  occ. eigenvalues --   -0.86255  -0.82534  -0.79242  -0.77941  -0.77580
 Alpha  occ. eigenvalues --   -0.72180  -0.71293  -0.70567  -0.65115  -0.64861
 Alpha  occ. eigenvalues --   -0.64796  -0.62205  -0.60547  -0.59005  -0.57174
 Alpha  occ. eigenvalues --   -0.55358  -0.54843  -0.53186  -0.52949  -0.52244
 Alpha  occ. eigenvalues --   -0.51976  -0.49518  -0.48935  -0.48916  -0.47526
 Alpha  occ. eigenvalues --   -0.46302  -0.45474  -0.45409  -0.44890  -0.43423
 Alpha  occ. eigenvalues --   -0.37435  -0.36458
 Alpha virt. eigenvalues --    0.04926   0.11196   0.16402   0.20802   0.22914
 Alpha virt. eigenvalues --    0.24332   0.25910   0.27325   0.27582   0.28416
 Alpha virt. eigenvalues --    0.28933   0.30552   0.31609   0.31989   0.32348

 Mulliken charges:
               1
     1  C   -0.295703
     2  C   -0.299990
     3  C   -0.484127
     4  H    0.143378
     5  H    0.150508
     6  H    0.148602
     7  H    0.149265
     8  H    0.152551
     9  H    0.178200
    10  H    0.158929
    11  C   -0.297973
    12  C   -0.298301
    13  C   -0.475426
    14  H    0.147647
    15  H    0.150422
    16  H    0.146854
    17  H    0.152895
    18  H    0.156229
    19  H    0.153968
    20  H    0.159038
    21  C   -0.170623
    22  C   -0.218548
    23  C   -0.170744
    24  C    0.157928
    25  C   -0.171169
    26  C   -0.218590
    27  H    0.226003
    28  H    0.223826
    29  H    0.275895
    30  H    0.275619
    31  H    0.223845
    32  N    0.493148
    33  O   -0.464754
    34  O   -0.458801
 Sum of Mulliken charges =  -0.00000

 Dipole moment (field-independent basis, Debye):
    X=              1.2670    Y=             -4.9897    Z=              0.6831  Tot=              5.1932
 Quadrupole moment (field-independent basis, Debye-Ang):
   XX=            -84.2376   YY=            -95.7064   ZZ=            -95.4311
   XY=            -15.2739   XZ=              4.1159   YZ=              0.7373

 Normal termination of Gaussian 16 at Thu May  6 15:38:42 2021.
