 Gaussian 16, Revision A.03,
 Gaussian 16:  EM64L-G16RevA.03 25-Dec-2016

 -------------
 #p 6-31g* mp2
 -------------

 ------------------------------------------------------
 Input file generated by CHIRIPA (05-May-2021 14:57:22)
 ------------------------------------------------------
 Symbolic Z-matrix:
 Charge =  0 Multiplicity = 1

                         Standard orientation:
 ---------------------------------------------------------------------
 Center     Atomic      Atomic             Coordinates (Angstroms)
 Number     Number       Type             X           Y           Z
 ---------------------------------------------------------------------
      1          6           0       -2.464569    2.229993    0.706048
      2          6           0       -1.906987    0.949646    0.785632
      3          6           0       -2.633906   -0.168641    0.366619
      4          6           0       -3.921491    0.030817   -0.128992
      5          6           0       -4.504573    1.293701   -0.220814
      6          6           0       -3.759299    2.397639    0.203964
      7          1           0       -1.892752    3.093132    1.033786
      8          1           0       -0.901703    0.816451    1.175129
      9          1           0       -2.226553   -1.171101    0.417174
     10          1           0       -5.509016    1.394872   -0.613594
     11          1           0       -4.194873    3.390794    0.140999
     12          7           0       -4.700763   -1.145467   -0.575634
     13          8           0       -5.833164   -0.943062   -1.008459
     14          8           0       -4.164400   -2.247572   -0.484429
     15          6           0        5.388240    1.365431   -1.081657
     16          6           0        5.558165   -0.015885   -1.221701
     17          6           0        4.680367   -0.906260   -0.596200
     18          6           0        3.638842   -0.378409    0.165305
     19          6           0        3.443249    0.992685    0.323833
     20          6           0        4.333185    1.864428   -0.310696
     21          1           0        6.074850    2.049858   -1.571068
     22          1           0        6.376642   -0.406251   -1.819827
     23          1           0        4.788716   -1.980168   -0.687854
     24          1           0        2.617942    1.351915    0.926528
     25          1           0        4.198787    2.936700   -0.200178
     26          7           0        2.703131   -1.311147    0.832273
     27          8           0        1.793487   -0.820861    1.497709
     28          8           0        2.897083   -2.514851    0.676977
 ---------------------------------------------------------------------

 SCF Done:  E(RHF) =  -868.339079255     A.U. after   16 cycles
 E2 =    -0.2598730146D+01 EUMP2 =    -0.87093780940071D+03

 The electronic state is 1-A.
 Alpha  occ. eigenvalues --  -20.61605 -20.61525 -20.60225 -20.60205 -15.86605
 Alpha  occ. eigenvalues --  -15.85266 -11.31823 -11.30587 -11.28432 -11.28329
 Alpha  occ. eigenvalues --  -11.28065 -11.27376 -11.27312 -11.27197 -11.27034
 Alpha  occ. eigenvalues --  -11.26935 -11.26248 -11.26020  -1.60622  -1.59295
 Alpha  occ. eigenvalues --   -1.40186  -1.38848  -1.19976  -1.18756  -1.09391
 Alpha  occ. eigenvalues --   -1.08179  -1.05362  -1.04124  -0.96255  -0.95017
 Alpha  occ. eigenvalues --   -0.86766  -0.85541  -0.83099  -0.81824  -0.78172
 Alpha  occ. eigenvalues --   -0.76863  -0.72832  -0.71928  -0.71486  -0.71084
 Alpha  occ. eigenvalues --   -0.70618  -0.69899  -0.65635  -0.65363  -0.64403
 Alpha  occ. eigenvalues --   -0.64108  -0.62721  -0.61443  -0.55854  -0.54697
 Alpha  occ. eigenvalues --   -0.53689  -0.53455  -0.52498  -0.52193  -0.49596
 Alpha  occ. eigenvalues --   -0.49552  -0.48248  -0.48236  -0.45618  -0.44262
 Alpha  occ. eigenvalues --   -0.37933  -0.36956  -0.36784  -0.35730
 Alpha virt. eigenvalues --    0.04342   0.05629   0.10699   0.11904   0.15850
 Alpha virt. eigenvalues --    0.17123   0.20474   0.22034   0.25943   0.27125
 Alpha virt. eigenvalues --    0.28634   0.28851   0.30216   0.31247   0.32453

 Mulliken charges:
               1
     1  C   -0.172306
     2  C   -0.226636
     3  C   -0.172840
     4  C    0.158183
     5  C   -0.172479
     6  C   -0.218619
     7  H    0.220199
     8  H    0.239261
     9  H    0.283115
    10  H    0.273414
    11  H    0.220046
    12  N    0.487824
    13  O   -0.463250
    14  O   -0.458381
    15  C   -0.170015
    16  C   -0.218131
    17  C   -0.170000
    18  C    0.159060
    19  C   -0.170256
    20  C   -0.217924
    21  H    0.227699
    22  H    0.226076
    23  H    0.277851
    24  H    0.268922
    25  H    0.223427
    26  N    0.491185
    27  O   -0.472330
    28  O   -0.453095
 Sum of Mulliken charges =  -0.00000

 Dipole moment (field-independent basis, Debye):
    X=              6.4751    Y=              7.2199    Z=             -0.8265  Tot=              9.7333
 Quadrupole moment (field-independent basis, Debye-Ang):
   XX=            -98.6063   YY=           -102.9067   ZZ=           -106.5555
   XY=            -10.0678   XZ=            -15.2542   YZ=              1.7069

 Normal termination of Gaussian 16 at Thu May  6 19:33:25 2021.
