 Gaussian 16, Revision A.03,
 Gaussian 16:  EM64L-G16RevA.03 25-Dec-2016

 -------------
 #p 6-31g* mp2
 -------------

 ------------------------------------------------------
 Input file generated by CHIRIPA (05-May-2021 14:53:15)
 ------------------------------------------------------
 Symbolic Z-matrix:
 Charge =  0 Multiplicity = 1

                         Standard orientation:
 ---------------------------------------------------------------------
 Center     Atomic      Atomic             Coordinates (Angstroms)
 Number     Number       Type             X           Y           Z
 ---------------------------------------------------------------------
      1          6           0        3.367593   -0.715389   -0.201857
      2          6           0        1.970922   -0.099495   -0.291122
      3          6           0        0.888139   -1.132669   -0.604049
      4          1           0        3.601237   -1.217629   -1.150600
      5          1           0        3.368248   -1.494694    0.572791
      6          1           0        1.973262    0.679369   -1.064415
      7          1           0        1.740654    0.401501    0.657875
      8          1           0        0.856716   -1.904749    0.171520
      9          1           0        1.090646   -1.625302   -1.560556
     10          1           0       -0.102335   -0.670814   -0.663306
     11          6           0        4.460810    0.304951    0.110408
     12          6           0        5.857481   -0.310944    0.199673
     13          6           0        6.940265    0.722231    0.512600
     14          1           0        4.460155    1.084255   -0.664240
     15          1           0        4.227167    0.807191    1.059150
     16          1           0        6.087750   -0.811939   -0.749325
     17          1           0        5.855142   -1.089808    0.972965
     18          1           0        6.737758    1.214863    1.469106
     19          1           0        6.971688    1.494310   -0.262969
     20          1           0        7.930739    0.260375    0.571856
     21          6           0       -2.792374    2.657314   -0.210116
     22          6           0       -2.477033    1.811278   -1.278434
     23          6           0       -2.620341    0.426216   -1.153481
     24          6           0       -3.083647   -0.081072    0.059490
     25          6           0       -3.406106    0.735804    1.142090
     26          6           0       -3.255089    2.117828    0.994612
     27          1           0       -2.678054    3.732084   -0.315932
     28          1           0       -2.117470    2.227456   -2.215214
     29          1           0       -2.383518   -0.251744   -1.964470
     30          1           0       -3.762302    0.291490    2.063572
     31          1           0       -3.500752    2.772461    1.825966
     32          7           0       -3.239442   -1.545767    0.203694
     33          8           0       -3.649501   -1.967827    1.282747
     34          8           0       -2.948544   -2.244001   -0.765060
 ---------------------------------------------------------------------

 SCF Done:  E(RHF) =  -669.534964581     A.U. after   15 cycles
 E2 =    -0.2092495256D+01 EUMP2 =    -0.67162745983681D+03

 The electronic state is 1-A.
 Alpha  occ. eigenvalues --  -20.60798 -20.60775 -15.85832 -11.31226 -11.27803
 Alpha  occ. eigenvalues --  -11.27789 -11.27549 -11.26825 -11.26814 -11.21592
 Alpha  occ. eigenvalues --  -11.21537 -11.21387 -11.21293 -11.21094 -11.20773
 Alpha  occ. eigenvalues --   -1.59855  -1.39408  -1.19418  -1.08797  -1.08387
 Alpha  occ. eigenvalues --   -1.04826  -1.03465  -0.95908  -0.95623  -0.86925
 Alpha  occ. eigenvalues --   -0.86210  -0.82457  -0.79532  -0.78204  -0.77500
 Alpha  occ. eigenvalues --   -0.72053  -0.71182  -0.70520  -0.65063  -0.65021
 Alpha  occ. eigenvalues --   -0.64818  -0.62176  -0.60864  -0.59311  -0.57551
 Alpha  occ. eigenvalues --   -0.55315  -0.55181  -0.53361  -0.52915  -0.52459
 Alpha  occ. eigenvalues --   -0.52220  -0.49834  -0.48816  -0.48807  -0.47842
 Alpha  occ. eigenvalues --   -0.46572  -0.45739  -0.45676  -0.44820  -0.43710
 Alpha  occ. eigenvalues --   -0.37366  -0.36379
 Alpha virt. eigenvalues --    0.05022   0.11150   0.16514   0.21340   0.22909
 Alpha virt. eigenvalues --    0.24392   0.26676   0.27152   0.27525   0.27887
 Alpha virt. eigenvalues --    0.28580   0.30757   0.31494   0.31809   0.31972

 Mulliken charges:
               1
     1  C   -0.298437
     2  C   -0.298389
     3  C   -0.480331
     4  H    0.149915
     5  H    0.151499
     6  H    0.146365
     7  H    0.150551
     8  H    0.160848
     9  H    0.155460
    10  H    0.160211
    11  C   -0.297806
    12  C   -0.299661
    13  C   -0.475596
    14  H    0.147611
    15  H    0.148815
    16  H    0.152196
    17  H    0.152872
    18  H    0.154762
    19  H    0.154303
    20  H    0.160536
    21  C   -0.170669
    22  C   -0.217394
    23  C   -0.176683
    24  C    0.162466
    25  C   -0.171087
    26  C   -0.218293
    27  H    0.225925
    28  H    0.224004
    29  H    0.277310
    30  H    0.275824
    31  H    0.223670
    32  N    0.489128
    33  O   -0.460451
    34  O   -0.459477
 Sum of Mulliken charges =  -0.00000

 Dipole moment (field-independent basis, Debye):
    X=              0.4611    Y=              5.1185    Z=             -0.4897  Tot=              5.1625
 Quadrupole moment (field-independent basis, Debye-Ang):
   XX=            -99.2988   YY=            -96.3642   ZZ=            -89.5238
   XY=            -17.0682   XZ=             -0.4283   YZ=              0.7348

 Normal termination of Gaussian 16 at Thu May  6 15:30:59 2021.
