 Gaussian 16, Revision A.03,
 Gaussian 16:  EM64L-G16RevA.03 25-Dec-2016

 -------------
 #p 6-31g* mp2
 -------------

 ------------------------------------------------------
 Input file generated by CHIRIPA (05-May-2021 14:57:25)
 ------------------------------------------------------
 Symbolic Z-matrix:
 Charge =  0 Multiplicity = 1

                         Standard orientation:
 ---------------------------------------------------------------------
 Center     Atomic      Atomic             Coordinates (Angstroms)
 Number     Number       Type             X           Y           Z
 ---------------------------------------------------------------------
      1          6           0        1.303088    0.837905   -0.021156
      2          6           0        1.587685   -0.435886    0.481819
      3          6           0        2.891740   -0.938547    0.445467
      4          6           0        3.891406   -0.136845   -0.103377
      5          6           0        3.639475    1.136204   -0.612463
      6          6           0        2.328084    1.618508   -0.565732
      7          1           0        0.287217    1.220477    0.011115
      8          1           0        0.793654   -1.044329    0.905323
      9          1           0        3.139967   -1.921197    0.827830
     10          1           0        4.452019    1.719372   -1.028523
     11          1           0        2.109986    2.608115   -0.957084
     12          7           0        5.275834   -0.658214   -0.147356
     13          8           0        6.138799    0.067808   -0.636048
     14          8           0        5.471768   -1.783013    0.307699
     15          6           0       -2.222357    1.904548    1.020165
     16          6           0       -2.241979    0.654389    1.647253
     17          6           0       -3.036581   -0.379973    1.144012
     18          6           0       -3.802534   -0.128286    0.006797
     19          6           0       -3.804383    1.106390   -0.640398
     20          6           0       -3.002247    2.126168   -0.119649
     21          1           0       -1.602165    2.702401    1.417895
     22          1           0       -1.637329    0.479420    2.532595
     23          1           0       -3.070653   -1.357411    1.609707
     24          1           0       -4.417916    1.250713   -1.521401
     25          1           0       -2.988988    3.096051   -0.608726
     26          7           0       -4.647732   -1.215598   -0.535229
     27          8           0       -5.313429   -0.968452   -1.538426
     28          8           0       -4.628497   -2.294391    0.053391
 ---------------------------------------------------------------------

 SCF Done:  E(RHF) =  -868.336926853     A.U. after   16 cycles
 E2 =    -0.2601612388D+01 EUMP2 =    -0.87093853924106D+03

 The electronic state is 1-A.
 Alpha  occ. eigenvalues --  -20.61670 -20.61664 -20.61000 -20.60994 -15.86732
 Alpha  occ. eigenvalues --  -15.86057 -11.32373 -11.31477 -11.28975 -11.28932
 Alpha  occ. eigenvalues --  -11.28770 -11.28076 -11.28072 -11.28061 -11.28034
 Alpha  occ. eigenvalues --  -11.27709 -11.27098 -11.27073  -1.60739  -1.60075
 Alpha  occ. eigenvalues --   -1.40284  -1.39627  -1.20592  -1.19660  -1.09956
 Alpha  occ. eigenvalues --   -1.09037  -1.06011  -1.05079  -0.96730  -0.95861
 Alpha  occ. eigenvalues --   -0.87393  -0.86472  -0.83535  -0.82701  -0.78518
 Alpha  occ. eigenvalues --   -0.77744  -0.72942  -0.72272  -0.72067  -0.71726
 Alpha  occ. eigenvalues --   -0.71400  -0.70745  -0.66225  -0.65989  -0.65309
 Alpha  occ. eigenvalues --   -0.65101  -0.63317  -0.62430  -0.56542  -0.55780
 Alpha  occ. eigenvalues --   -0.54114  -0.54072  -0.53404  -0.53170  -0.49723
 Alpha  occ. eigenvalues --   -0.49682  -0.49038  -0.49024  -0.45628  -0.45020
 Alpha  occ. eigenvalues --   -0.38596  -0.37693  -0.37572  -0.36696
 Alpha virt. eigenvalues --    0.03938   0.04801   0.09956   0.10957   0.15253
 Alpha virt. eigenvalues --    0.16268   0.19751   0.21700   0.25489   0.26749
 Alpha virt. eigenvalues --    0.27505   0.28867   0.29665   0.31455   0.31619

 Mulliken charges:
               1
     1  C   -0.178693
     2  C   -0.223932
     3  C   -0.169878
     4  C    0.158241
     5  C   -0.169953
     6  C   -0.221755
     7  H    0.234149
     8  H    0.220796
     9  H    0.276609
    10  H    0.275999
    11  H    0.220848
    12  N    0.487999
    13  O   -0.460023
    14  O   -0.459506
    15  C   -0.187073
    16  C   -0.222742
    17  C   -0.172421
    18  C    0.160892
    19  C   -0.168954
    20  C   -0.218374
    21  H    0.229697
    22  H    0.227965
    23  H    0.278860
    24  H    0.280086
    25  H    0.227381
    26  N    0.487899
    27  O   -0.456603
    28  O   -0.457513
 Sum of Mulliken charges =  -0.00000

 Dipole moment (field-independent basis, Debye):
    X=             -2.2544    Y=              5.6014    Z=              2.0118  Tot=              6.3644
 Quadrupole moment (field-independent basis, Debye-Ang):
   XX=           -164.3220   YY=           -101.3113   ZZ=           -102.1432
   XY=             -6.8908   XZ=             -5.4781   YZ=             -5.1605

 Normal termination of Gaussian 16 at Fri May  7 08:04:20 2021.
