 Gaussian 16, Revision A.03,
 Gaussian 16:  EM64L-G16RevA.03 25-Dec-2016

 -------------
 #p 6-31g* mp2
 -------------

 ------------------------------------------------------
 Input file generated by CHIRIPA (05-May-2021 14:51:09)
 ------------------------------------------------------
 Symbolic Z-matrix:
 Charge =  0 Multiplicity = 1

                         Standard orientation:
 ---------------------------------------------------------------------
 Center     Atomic      Atomic             Coordinates (Angstroms)
 Number     Number       Type             X           Y           Z
 ---------------------------------------------------------------------
      1          6           0        4.462056    0.025728   -0.138612
      2          6           0        4.943433    1.476330   -0.183486
      3          6           0        6.311973    1.624719   -0.848974
      4          1           0        5.201272   -0.582725    0.400174
      5          1           0        4.417769   -0.370427   -1.162572
      6          1           0        4.985475    1.870066    0.840145
      7          1           0        4.202893    2.081437   -0.722061
      8          1           0        6.280771    1.257898   -1.880027
      9          1           0        7.067799    1.045326   -0.308944
     10          1           0        6.636823    2.669648   -0.870325
     11          6           0        3.095345   -0.138817    0.523774
     12          6           0        2.613968   -1.589419    0.568648
     13          6           0        1.245429   -1.737807    1.234136
     14          1           0        3.139632    0.257339    1.547734
     15          1           0        2.356130    0.469637   -0.015012
     16          1           0        3.354508   -2.194525    1.107223
     17          1           0        2.571926   -1.983155   -0.454983
     18          1           0        0.489602   -1.158415    0.694107
     19          1           0        1.276631   -1.370986    2.265189
     20          1           0        0.920579   -2.782736    1.255487
     21          6           0       -3.715366   -0.559635   -0.639508
     22          6           0       -2.803833   -1.640202   -0.056869
     23          6           0       -2.687188   -2.866607   -0.962473
     24          1           0       -4.713208   -0.985170   -0.813223
     25          1           0       -3.329845   -0.255410   -1.622471
     26          1           0       -3.190180   -1.941311    0.925314
     27          1           0       -1.808098   -1.211993    0.115657
     28          1           0       -2.280302   -2.586692   -1.939557
     29          1           0       -3.670237   -3.320153   -1.125300
     30          1           0       -2.030962   -3.626456   -0.526749
     31          6           0       -3.842036    0.672724    0.254346
     32          6           0       -4.753569    1.753290   -0.328292
     33          6           0       -4.870213    2.979696    0.577311
     34          1           0       -4.227555    0.368498    1.237309
     35          1           0       -2.844194    1.098258    0.428060
     36          1           0       -5.749303    1.325081   -0.500820
     37          1           0       -4.367222    2.054400   -1.310476
     38          1           0       -3.887165    3.433242    0.740137
     39          1           0       -5.277099    2.699779    1.554394
     40          1           0       -5.526440    3.739544    0.141586
 ---------------------------------------------------------------------

 SCF Done:  E(RHF) =  -470.733224801     A.U. after   11 cycles
 E2 =    -0.1582511028D+01 EUMP2 =    -0.47231573582969D+03

 The electronic state is 1-A.
 Alpha  occ. eigenvalues --  -11.21620 -11.21617 -11.21589 -11.21530 -11.21428
 Alpha  occ. eigenvalues --  -11.21381 -11.21368 -11.21321 -11.21085 -11.21077
 Alpha  occ. eigenvalues --  -11.21060 -11.21036  -1.08452  -1.08403  -1.03556
 Alpha  occ. eigenvalues --   -1.03493  -0.96007  -0.95945  -0.87021  -0.86965
 Alpha  occ. eigenvalues --   -0.79659  -0.79520  -0.78277  -0.78202  -0.65116
 Alpha  occ. eigenvalues --   -0.65012  -0.61053  -0.60813  -0.59385  -0.59301
 Alpha  occ. eigenvalues --   -0.57613  -0.57562  -0.55346  -0.55187  -0.52707
 Alpha  occ. eigenvalues --   -0.52627  -0.52455  -0.52355  -0.50037  -0.49834
 Alpha  occ. eigenvalues --   -0.48033  -0.47795  -0.46791  -0.46457  -0.45871
 Alpha  occ. eigenvalues --   -0.45750  -0.45720  -0.45537  -0.43801  -0.43755
 Alpha virt. eigenvalues --    0.21735   0.23062   0.23600   0.24931   0.25688
 Alpha virt. eigenvalues --    0.26817   0.27064   0.27367   0.27894   0.28944
 Alpha virt. eigenvalues --    0.30193   0.30974   0.31669   0.31776   0.32495

 Mulliken charges:
               1
     1  C   -0.298301
     2  C   -0.299660
     3  C   -0.475720
     4  H    0.149781
     5  H    0.149554
     6  H    0.151985
     7  H    0.151819
     8  H    0.155199
     9  H    0.155242
    10  H    0.160298
    11  C   -0.298359
    12  C   -0.299519
    13  C   -0.480446
    14  H    0.149661
    15  H    0.149166
    16  H    0.152018
    17  H    0.152026
    18  H    0.159674
    19  H    0.155484
    20  H    0.160550
    21  C   -0.297774
    22  C   -0.306564
    23  C   -0.475405
    24  H    0.149521
    25  H    0.148908
    26  H    0.152033
    27  H    0.159122
    28  H    0.154473
    29  H    0.154996
    30  H    0.160528
    31  C   -0.298167
    32  C   -0.299604
    33  C   -0.475695
    34  H    0.149726
    35  H    0.149180
    36  H    0.151967
    37  H    0.151742
    38  H    0.155159
    39  H    0.155225
    40  H    0.160178
 Sum of Mulliken charges =  -0.00000

 Dipole moment (field-independent basis, Debye):
    X=              0.0181    Y=             -0.0066    Z=              0.0169  Tot=              0.0256
 Quadrupole moment (field-independent basis, Debye-Ang):
   XX=            -84.9689   YY=            -85.6031   ZZ=            -84.2396
   XY=              0.2019   XZ=              0.5504   YZ=             -0.7406

 Normal termination of Gaussian 16 at Wed May  5 19:44:20 2021.
