 Gaussian 16, Revision A.03,
 Gaussian 16:  EM64L-G16RevA.03 25-Dec-2016

 -------------
 #p 6-31g* mp2
 -------------

 ------------------------------------------------------
 Input file generated by CHIRIPA (05-May-2021 14:51:08)
 ------------------------------------------------------
 Symbolic Z-matrix:
 Charge =  0 Multiplicity = 1

                         Standard orientation:
 ---------------------------------------------------------------------
 Center     Atomic      Atomic             Coordinates (Angstroms)
 Number     Number       Type             X           Y           Z
 ---------------------------------------------------------------------
      1          6           0        2.723487   -0.832296    0.442512
      2          6           0        1.265183   -0.423212    0.652234
      3          6           0        0.387057   -1.584020    1.120435
      4          1           0        2.766965   -1.646846   -0.293398
      5          1           0        3.121839   -1.238689    1.382488
      6          1           0        0.870115   -0.016431   -0.287482
      7          1           0        1.225188    0.390589    1.387587
      8          1           0        0.754286   -1.986172    2.070181
      9          1           0        0.397196   -2.395504    0.385594
     10          1           0       -0.651317   -1.269371    1.264089
     11          6           0        3.613883    0.317401   -0.025591
     12          6           0        5.072187   -0.091683   -0.235313
     13          6           0        5.950313    1.069125   -0.703515
     14          1           0        3.215531    0.723794   -0.965568
     15          1           0        3.570405    1.131951    0.710319
     16          1           0        5.112182   -0.905484   -0.970666
     17          1           0        5.467255   -0.498464    0.704403
     18          1           0        5.940174    1.880609    0.031327
     19          1           0        5.583084    1.471277   -1.653261
     20          1           0        6.988687    0.754476   -0.847168
     21          6           0       -3.381375    0.883618    0.173777
     22          6           0       -2.804257    2.174497   -0.408074
     23          6           0       -3.238755    3.418521    0.367433
     24          1           0       -4.477991    0.949567    0.179302
     25          1           0       -3.068546    0.790598    1.223005
     26          1           0       -3.116938    2.264361   -1.456297
     27          1           0       -1.708893    2.105391   -0.412392
     28          1           0       -2.913224    3.355274    1.410807
     29          1           0       -4.329269    3.515147    0.360971
     30          1           0       -2.814838    4.329932   -0.065564
     31          6           0       -2.955995   -0.368723   -0.590698
     32          6           0       -3.533113   -1.659602   -0.008847
     33          6           0       -3.098616   -2.903627   -0.784353
     34          1           0       -3.268825   -0.275703   -1.639926
     35          1           0       -1.859380   -0.434671   -0.596223
     36          1           0       -4.628477   -1.590495   -0.004529
     37          1           0       -3.220432   -1.749465    1.039376
     38          1           0       -2.008100   -3.000252   -0.777892
     39          1           0       -3.424146   -2.840379   -1.827727
     40          1           0       -3.522533   -3.815037   -0.351357
 ---------------------------------------------------------------------

 SCF Done:  E(RHF) =  -470.732540605     A.U. after   11 cycles
 E2 =    -0.1584285809D+01 EUMP2 =    -0.47231682641384D+03

 The electronic state is 1-A.
 Alpha  occ. eigenvalues --  -11.21709 -11.21637 -11.21579 -11.21563 -11.21468
 Alpha  occ. eigenvalues --  -11.21403 -11.21371 -11.21284 -11.21141 -11.21097
 Alpha  occ. eigenvalues --  -11.21055 -11.20998  -1.08509  -1.08392  -1.03619
 Alpha  occ. eigenvalues --   -1.03480  -0.96052  -0.95941  -0.87076  -0.86954
 Alpha  occ. eigenvalues --   -0.79667  -0.79558  -0.78320  -0.78205  -0.65243
 Alpha  occ. eigenvalues --   -0.65017  -0.61120  -0.60854  -0.59365  -0.59286
 Alpha  occ. eigenvalues --   -0.57696  -0.57518  -0.55351  -0.55213  -0.52732
 Alpha  occ. eigenvalues --   -0.52636  -0.52519  -0.52321  -0.50034  -0.49833
 Alpha  occ. eigenvalues --   -0.47972  -0.47860  -0.46727  -0.46552  -0.45910
 Alpha  occ. eigenvalues --   -0.45795  -0.45730  -0.45569  -0.43831  -0.43748
 Alpha virt. eigenvalues --    0.20138   0.23044   0.23681   0.24350   0.25917
 Alpha virt. eigenvalues --    0.26189   0.26636   0.27194   0.28168   0.29424
 Alpha virt. eigenvalues --    0.30639   0.31047   0.31732   0.32277   0.32407

 Mulliken charges:
               1
     1  C   -0.298417
     2  C   -0.303051
     3  C   -0.483855
     4  H    0.150019
     5  H    0.149960
     6  H    0.153665
     7  H    0.152270
     8  H    0.156126
     9  H    0.156686
    10  H    0.167218
    11  C   -0.298422
    12  C   -0.299720
    13  C   -0.475759
    14  H    0.149729
    15  H    0.149738
    16  H    0.152082
    17  H    0.152008
    18  H    0.155231
    19  H    0.155296
    20  H    0.160396
    21  C   -0.298399
    22  C   -0.300599
    23  C   -0.475635
    24  H    0.149867
    25  H    0.148839
    26  H    0.151786
    27  H    0.153075
    28  H    0.155111
    29  H    0.155127
    30  H    0.160190
    31  C   -0.307101
    32  C   -0.300646
    33  C   -0.478448
    34  H    0.149789
    35  H    0.158269
    36  H    0.152336
    37  H    0.151958
    38  H    0.158713
    39  H    0.154573
    40  H    0.159996
 Sum of Mulliken charges =  -0.00000

 Dipole moment (field-independent basis, Debye):
    X=              0.0477    Y=             -0.0060    Z=              0.0042  Tot=              0.0482
 Quadrupole moment (field-independent basis, Debye-Ang):
   XX=            -84.7791   YY=            -86.2797   ZZ=            -83.7907
   XY=             -0.3844   XZ=              1.0480   YZ=             -0.0341

 Normal termination of Gaussian 16 at Thu May  6 14:51:40 2021.
