 Gaussian 16, Revision A.03,
 Gaussian 16:  EM64L-G16RevA.03 25-Dec-2016

 -------------
 #p 6-31g* mp2
 -------------

 ------------------------------------------------------
 Input file generated by CHIRIPA (05-May-2021 14:57:25)
 ------------------------------------------------------
 Symbolic Z-matrix:
 Charge =  0 Multiplicity = 1

                         Standard orientation:
 ---------------------------------------------------------------------
 Center     Atomic      Atomic             Coordinates (Angstroms)
 Number     Number       Type             X           Y           Z
 ---------------------------------------------------------------------
      1          6           0       -2.135790    1.972265    0.049091
      2          6           0       -3.383821    2.126977    0.661466
      3          6           0       -4.353297    1.124729    0.560640
      4          6           0       -4.039599   -0.024380   -0.163536
      5          6           0       -2.805302   -0.208000   -0.784894
      6          6           0       -1.851016    0.807324   -0.670865
      7          1           0       -1.388578    2.755914    0.132544
      8          1           0       -3.607753    3.030617    1.221229
      9          1           0       -5.327553    1.218493    1.024807
     10          1           0       -2.611284   -1.120050   -1.336203
     11          1           0       -0.882624    0.684446   -1.147483
     12          7           0       -5.057899   -1.092337   -0.277265
     13          8           0       -4.756871   -2.095201   -0.920912
     14          8           0       -6.137789   -0.906315    0.279396
     15          6           0        1.482531   -0.255781    0.948912
     16          6           0        1.922053    0.841158    0.200536
     17          6           0        3.243682    0.909449   -0.250220
     18          6           0        4.102753   -0.141563    0.067053
     19          6           0        3.694799   -1.247805    0.810753
     20          6           0        2.368744   -1.294930    1.251100
     21          1           0        0.454139   -0.300610    1.295027
     22          1           0        1.236018    1.649624   -0.035644
     23          1           0        3.610376    1.746896   -0.831285
     24          1           0        4.401951   -2.038442    1.030406
     25          1           0        2.030175   -2.148060    1.832120
     26          7           0        5.504245   -0.080470   -0.404632
     27          8           0        6.241436   -1.019317   -0.111790
     28          8           0        5.839009    0.905103   -1.058251
 ---------------------------------------------------------------------

 SCF Done:  E(RHF) =  -868.336812963     A.U. after   16 cycles
 E2 =    -0.2601100819D+01 EUMP2 =    -0.87093791378173D+03

 The electronic state is 1-A.
 Alpha  occ. eigenvalues --  -20.61496 -20.61489 -20.61275 -20.61265 -15.86554
 Alpha  occ. eigenvalues --  -15.86334 -11.32104 -11.31825 -11.28705 -11.28660
 Alpha  occ. eigenvalues --  -11.28550 -11.28496 -11.28394 -11.28165 -11.27777
 Alpha  occ. eigenvalues --  -11.27720 -11.27594 -11.27375  -1.60568  -1.60346
 Alpha  occ. eigenvalues --   -1.40115  -1.39896  -1.20311  -1.20032  -1.09696
 Alpha  occ. eigenvalues --   -1.09394  -1.05730  -1.05465  -0.96485  -0.96200
 Alpha  occ. eigenvalues --   -0.87179  -0.86819  -0.83297  -0.83038  -0.78315
 Alpha  occ. eigenvalues --   -0.78060  -0.72769  -0.72549  -0.71896  -0.71673
 Alpha  occ. eigenvalues --   -0.71453  -0.71104  -0.66056  -0.65910  -0.65661
 Alpha  occ. eigenvalues --   -0.65278  -0.63096  -0.62731  -0.56286  -0.55938
 Alpha  occ. eigenvalues --   -0.54053  -0.53941  -0.53666  -0.53512  -0.49542
 Alpha  occ. eigenvalues --   -0.49512  -0.49318  -0.49294  -0.45479  -0.45273
 Alpha  occ. eigenvalues --   -0.38348  -0.38026  -0.37303  -0.37071
 Alpha virt. eigenvalues --    0.04199   0.04505   0.10114   0.10497   0.15576
 Alpha virt. eigenvalues --    0.16004   0.18523   0.21860   0.24727   0.26700
 Alpha virt. eigenvalues --    0.27720   0.28645   0.29808   0.31010   0.31511

 Mulliken charges:
               1
     1  C   -0.176538
     2  C   -0.217598
     3  C   -0.169951
     4  C    0.159162
     5  C   -0.172671
     6  C   -0.228300
     7  H    0.223310
     8  H    0.226952
     9  H    0.278809
    10  H    0.279022
    11  H    0.227209
    12  N    0.487844
    13  O   -0.458351
    14  O   -0.457741
    15  C   -0.174261
    16  C   -0.225521
    17  C   -0.170176
    18  C    0.158544
    19  C   -0.168995
    20  C   -0.218743
    21  H    0.231511
    22  H    0.213679
    23  H    0.276550
    24  H    0.278450
    25  H    0.227532
    26  N    0.488095
    27  O   -0.458072
    28  O   -0.459750
 Sum of Mulliken charges =  -0.00000

 Dipole moment (field-independent basis, Debye):
    X=             -1.4461    Y=              3.3861    Z=              2.1232  Tot=              4.2503
 Quadrupole moment (field-independent basis, Debye-Ang):
   XX=           -171.3072   YY=           -100.0488   ZZ=           -103.3978
   XY=            -18.8189   XZ=              2.8324   YZ=             -1.3906

 Normal termination of Gaussian 16 at Wed May  5 17:57:55 2021.
