 Gaussian 16, Revision A.03,
 Gaussian 16:  EM64L-G16RevA.03 25-Dec-2016

 -------------
 #p 6-31g* mp2
 -------------

 ------------------------------------------------------
 Input file generated by CHIRIPA (05-May-2021 14:57:22)
 ------------------------------------------------------
 Symbolic Z-matrix:
 Charge =  0 Multiplicity = 1

                         Standard orientation:
 ---------------------------------------------------------------------
 Center     Atomic      Atomic             Coordinates (Angstroms)
 Number     Number       Type             X           Y           Z
 ---------------------------------------------------------------------
      1          6           0       -2.499243    2.500513    0.555586
      2          6           0       -3.641030    2.428720   -0.249205
      3          6           0       -4.224311    1.193184   -0.545488
      4          6           0       -3.636955    0.044293   -0.017896
      5          6           0       -2.499452    0.083123    0.787007
      6          6           0       -1.933096    1.329550    1.070216
      7          1           0       -2.052711    3.464538    0.780668
      8          1           0       -4.082861    3.336462   -0.650247
      9          1           0       -5.108321    1.108750   -1.165822
     10          1           0       -2.081710   -0.839076    1.172310
     11          1           0       -1.046378    1.382282    1.695512
     12          7           0       -4.245490   -1.269478   -0.324638
     13          8           0       -3.708867   -2.267033    0.152393
     14          8           0       -5.247559   -1.276782   -1.036285
     15          6           0        1.861047   -2.091595    0.421764
     16          6           0        1.456164   -0.752794    0.435982
     17          6           0        2.375978    0.269846    0.185583
     18          6           0        3.698654   -0.083826   -0.076590
     19          6           0        4.132744   -1.408367   -0.097781
     20          6           0        3.195693   -2.414539    0.155398
     21          1           0        1.139819   -2.879610    0.617360
     22          1           0        0.420314   -0.499040    0.642549
     23          1           0        2.089614    1.314541    0.190391
     24          1           0        5.172214   -1.630218   -0.306830
     25          1           0        3.512970   -3.453405    0.143707
     26          7           0        4.681544    0.990080   -0.343148
     27          8           0        5.841011    0.652237   -0.571479
     28          8           0        4.273855    2.149316   -0.318699
 ---------------------------------------------------------------------

 SCF Done:  E(RHF) =  -868.337032275     A.U. after   16 cycles
 E2 =    -0.2600803190D+01 EUMP2 =    -0.87093783546451D+03

 The electronic state is 1-A.
 Alpha  occ. eigenvalues --  -20.61534 -20.61507 -20.61080 -20.61064 -15.86583
 Alpha  occ. eigenvalues --  -15.86131 -11.32033 -11.31498 -11.28723 -11.28548
 Alpha  occ. eigenvalues --  -11.28299 -11.28138 -11.28038 -11.27763 -11.27706
 Alpha  occ. eigenvalues --  -11.27535 -11.27116 -11.27015  -1.60595  -1.60150
 Alpha  occ. eigenvalues --   -1.40149  -1.39704  -1.20211  -1.19669  -1.09564
 Alpha  occ. eigenvalues --   -1.09051  -1.05660  -1.05083  -0.96395  -0.95887
 Alpha  occ. eigenvalues --   -0.87018  -0.86490  -0.83262  -0.82725  -0.78326
 Alpha  occ. eigenvalues --   -0.77770  -0.72799  -0.72349  -0.71918  -0.71473
 Alpha  occ. eigenvalues --   -0.71292  -0.70749  -0.65894  -0.65651  -0.65315
 Alpha  occ. eigenvalues --   -0.65135  -0.63094  -0.62322  -0.56070  -0.55537
 Alpha  occ. eigenvalues --   -0.53973  -0.53735  -0.53392  -0.53130  -0.49564
 Alpha  occ. eigenvalues --   -0.49545  -0.49109  -0.49100  -0.45537  -0.45111
 Alpha  occ. eigenvalues --   -0.38140  -0.37622  -0.37239  -0.36688
 Alpha virt. eigenvalues --    0.04217   0.04763   0.10369   0.10966   0.15519
 Alpha virt. eigenvalues --    0.16227   0.19011   0.22181   0.25323   0.26054
 Alpha virt. eigenvalues --    0.28091   0.29516   0.30094   0.31146   0.32169

 Mulliken charges:
               1
     1  C   -0.169955
     2  C   -0.217585
     3  C   -0.169356
     4  C    0.159126
     5  C   -0.173781
     6  C   -0.222667
     7  H    0.230966
     8  H    0.228014
     9  H    0.278795
    10  H    0.269413
    11  H    0.222266
    12  N    0.488556
    13  O   -0.463092
    14  O   -0.456392
    15  C   -0.172443
    16  C   -0.222403
    17  C   -0.173884
    18  C    0.159145
    19  C   -0.170391
    20  C   -0.218293
    21  H    0.231587
    22  H    0.221503
    23  H    0.270900
    24  H    0.276814
    25  H    0.226092
    26  N    0.488282
    27  O   -0.458821
    28  O   -0.462396
 Sum of Mulliken charges =  -0.00000

 Dipole moment (field-independent basis, Debye):
    X=             -1.5227    Y=              0.8936    Z=              1.8932  Tot=              2.5887
 Quadrupole moment (field-independent basis, Debye-Ang):
   XX=           -140.1390   YY=           -100.3829   ZZ=           -104.9624
   XY=            -36.2294   XZ=              1.7224   YZ=             -0.7781

 Normal termination of Gaussian 16 at Thu May  6 14:31:48 2021.
