 Gaussian 16, Revision A.03,
 Gaussian 16:  EM64L-G16RevA.03 25-Dec-2016

 -------------
 #p 6-31g* mp2
 -------------

 ------------------------------------------------------
 Input file generated by CHIRIPA (05-May-2021 14:57:25)
 ------------------------------------------------------
 Symbolic Z-matrix:
 Charge =  0 Multiplicity = 1

                         Standard orientation:
 ---------------------------------------------------------------------
 Center     Atomic      Atomic             Coordinates (Angstroms)
 Number     Number       Type             X           Y           Z
 ---------------------------------------------------------------------
      1          6           0        3.320329    2.355476    0.398422
      2          6           0        4.605199    1.966598    0.005480
      3          6           0        4.909653    0.616168   -0.189957
      4          6           0        3.900601   -0.323033    0.017418
      5          6           0        2.610954    0.032975    0.409031
      6          6           0        2.329055    1.389127    0.598591
      7          1           0        3.092582    3.406745    0.547960
      8          1           0        5.377016    2.714895   -0.150708
      9          1           0        5.895975    0.287370   -0.494059
     10          1           0        1.862445   -0.735960    0.556986
     11          1           0        1.330329    1.688227    0.903765
     12          7           0        4.210974   -1.755701   -0.186371
     13          8           0        3.304372   -2.563724    0.002862
     14          8           0        5.354969   -2.043476   -0.531476
     15          6           0       -2.025293    1.816655   -0.266347
     16          6           0       -3.361421    2.179991   -0.464508
     17          6           0       -4.380383    1.229922   -0.347746
     18          6           0       -4.025800   -0.080313   -0.030187
     19          6           0       -2.703859   -0.473258    0.173175
     20          6           0       -1.701347    0.493522    0.051302
     21          1           0       -1.240128    2.561181   -0.359036
     22          1           0       -3.615945    3.206810   -0.711298
     23          1           0       -5.422955    1.483901   -0.495924
     24          1           0       -2.481156   -1.504672    0.418139
     25          1           0       -0.664549    0.208489    0.205745
     26          7           0       -5.095822   -1.094955    0.096130
     27          8           0       -4.757246   -2.242663    0.376785
     28          8           0       -6.252820   -0.723309   -0.087912
 ---------------------------------------------------------------------

 SCF Done:  E(RHF) =  -868.335952181     A.U. after   16 cycles
 E2 =    -0.2600607564D+01 EUMP2 =    -0.87093655974525D+03

 The electronic state is 1-A.
 Alpha  occ. eigenvalues --  -20.61410 -20.61402 -20.61058 -20.61049 -15.86471
 Alpha  occ. eigenvalues --  -15.86117 -11.32023 -11.31643 -11.28724 -11.28563
 Alpha  occ. eigenvalues --  -11.28397 -11.28250 -11.28230 -11.28126 -11.27790
 Alpha  occ. eigenvalues --  -11.27593 -11.27414 -11.27295  -1.60480  -1.60129
 Alpha  occ. eigenvalues --   -1.40029  -1.39677  -1.20220  -1.19856  -1.09574
 Alpha  occ. eigenvalues --   -1.09244  -1.05680  -1.05285  -0.96379  -0.96040
 Alpha  occ. eigenvalues --   -0.87060  -0.86701  -0.83232  -0.82866  -0.78270
 Alpha  occ. eigenvalues --   -0.77851  -0.72685  -0.72334  -0.71805  -0.71454
 Alpha  occ. eigenvalues --   -0.71332  -0.71010  -0.65906  -0.65771  -0.65505
 Alpha  occ. eigenvalues --   -0.65309  -0.63112  -0.62507  -0.56144  -0.55856
 Alpha  occ. eigenvalues --   -0.53963  -0.53793  -0.53591  -0.53386  -0.49458
 Alpha  occ. eigenvalues --   -0.49430  -0.49108  -0.49075  -0.45395  -0.45046
 Alpha  occ. eigenvalues --   -0.38185  -0.37875  -0.37271  -0.36876
 Alpha virt. eigenvalues --    0.04309   0.04677   0.10358   0.10716   0.15650
 Alpha virt. eigenvalues --    0.16113   0.17761   0.22205   0.24246   0.25125
 Alpha virt. eigenvalues --    0.28077   0.28895   0.30472   0.30666   0.32914

 Mulliken charges:
               1
     1  C   -0.170424
     2  C   -0.217905
     3  C   -0.169166
     4  C    0.160373
     5  C   -0.173432
     6  C   -0.222232
     7  H    0.226396
     8  H    0.226682
     9  H    0.278836
    10  H    0.272450
    11  H    0.217490
    12  N    0.488454
    13  O   -0.459580
    14  O   -0.457222
    15  C   -0.172848
    16  C   -0.217924
    17  C   -0.169817
    18  C    0.159257
    19  C   -0.170348
    20  C   -0.221292
    21  H    0.219939
    22  H    0.224397
    23  H    0.277543
    24  H    0.280134
    25  H    0.219225
    26  N    0.487902
    27  O   -0.457541
    28  O   -0.459350
 Sum of Mulliken charges =  -0.00000

 Dipole moment (field-independent basis, Debye):
    X=              2.7618    Y=              8.5342    Z=              0.2124  Tot=              8.9724
 Quadrupole moment (field-independent basis, Debye-Ang):
   XX=           -134.8566   YY=           -106.6281   ZZ=           -105.9483
   XY=              4.1599   XZ=              3.9484   YZ=             -1.4816

 Normal termination of Gaussian 16 at Fri May  7 12:38:13 2021.
