 Gaussian 16, Revision A.03,
 Gaussian 16:  EM64L-G16RevA.03 25-Dec-2016

 -------------
 #p 6-31g* mp2
 -------------

 ------------------------------------------------------
 Input file generated by CHIRIPA (05-May-2021 14:57:25)
 ------------------------------------------------------
 Symbolic Z-matrix:
 Charge =  0 Multiplicity = 1

                         Standard orientation:
 ---------------------------------------------------------------------
 Center     Atomic      Atomic             Coordinates (Angstroms)
 Number     Number       Type             X           Y           Z
 ---------------------------------------------------------------------
      1          6           0       -6.064866    1.400441    0.441401
      2          6           0       -4.774995    1.924176    0.577250
      3          6           0       -3.656674    1.150167    0.253494
      4          6           0       -3.865810   -0.149483   -0.205267
      5          6           0       -5.138313   -0.699658   -0.351328
      6          6           0       -6.242096    0.092501   -0.021637
      7          1           0       -6.927957    2.008759    0.695208
      8          1           0       -4.634344    2.939617    0.936613
      9          1           0       -2.646957    1.530598    0.349211
     10          1           0       -5.246791   -1.715293   -0.712069
     11          1           0       -7.242659   -0.316862   -0.128129
     12          7           0       -2.689590   -0.978499   -0.551154
     13          8           0       -2.900627   -2.120627   -0.953204
     14          8           0       -1.578903   -0.470456   -0.413662
     15          6           0        6.083651    0.873352   -1.088245
     16          6           0        4.855560    0.760982   -1.748312
     17          6           0        3.727495    0.285443   -1.073122
     18          6           0        3.863994   -0.070339    0.267802
     19          6           0        5.073822    0.030207    0.953001
     20          6           0        6.188676    0.508250    0.257930
     21          1           0        6.954827    1.243736   -1.620470
     22          1           0        4.771049    1.043788   -2.793742
     23          1           0        2.764617    0.188380   -1.559807
     24          1           0        5.127018   -0.259484    1.995434
     25          1           0        7.141156    0.594464    0.773096
     26          7           0        2.676755   -0.575097    0.993118
     27          8           0        2.823224   -0.881976    2.174223
     28          8           0        1.622208   -0.654288    0.366782
 ---------------------------------------------------------------------

 SCF Done:  E(RHF) =  -868.335416027     A.U. after   16 cycles
 E2 =    -0.2600076929D+01 EUMP2 =    -0.87093549295583D+03

 The electronic state is 1-A.
 Alpha  occ. eigenvalues --  -20.59835 -20.59799 -20.59738 -20.59685 -15.84841
 Alpha  occ. eigenvalues --  -15.84789 -11.30510 -11.30471 -11.27130 -11.27108
 Alpha  occ. eigenvalues --  -11.27100 -11.27040 -11.26932 -11.26904 -11.26213
 Alpha  occ. eigenvalues --  -11.26198 -11.26188 -11.26156  -1.58865  -1.58832
 Alpha  occ. eigenvalues --   -1.38411  -1.38364  -1.18716  -1.18682  -1.08060
 Alpha  occ. eigenvalues --   -1.08024  -1.04164  -1.04128  -0.94856  -0.94782
 Alpha  occ. eigenvalues --   -0.85549  -0.85511  -0.81706  -0.81577  -0.76684
 Alpha  occ. eigenvalues --   -0.76595  -0.71215  -0.70792  -0.70207  -0.70179
 Alpha  occ. eigenvalues --   -0.69827  -0.69784  -0.64373  -0.64307  -0.64174
 Alpha  occ. eigenvalues --   -0.64136  -0.61507  -0.61464  -0.54666  -0.54633
 Alpha  occ. eigenvalues --   -0.52479  -0.52449  -0.52263  -0.52222  -0.47931
 Alpha  occ. eigenvalues --   -0.47813  -0.47750  -0.47672  -0.43753  -0.43693
 Alpha  occ. eigenvalues --   -0.36720  -0.36692  -0.35782  -0.35748
 Alpha virt. eigenvalues --    0.05870   0.05920   0.11868   0.11901   0.17302
 Alpha virt. eigenvalues --    0.17350   0.21949   0.22005   0.27844   0.27892
 Alpha virt. eigenvalues --    0.28863   0.28956   0.31477   0.31532   0.33140

 Mulliken charges:
               1
     1  C   -0.171827
     2  C   -0.218668
     3  C   -0.171072
     4  C    0.158905
     5  C   -0.171483
     6  C   -0.218631
     7  H    0.223124
     8  H    0.221387
     9  H    0.277547
    10  H    0.274640
    11  H    0.221223
    12  N    0.487835
    13  O   -0.465117
    14  O   -0.447725
    15  C   -0.171916
    16  C   -0.218978
    17  C   -0.172124
    18  C    0.157963
    19  C   -0.171833
    20  C   -0.218806
    21  H    0.222929
    22  H    0.221760
    23  H    0.281054
    24  H    0.274110
    25  H    0.220844
    26  N    0.487080
    27  O   -0.467490
    28  O   -0.444732
 Sum of Mulliken charges =  -0.00000

 Dipole moment (field-independent basis, Debye):
    X=              0.0017    Y=              4.6435    Z=             -1.3883  Tot=              4.8466
 Quadrupole moment (field-independent basis, Debye-Ang):
   XX=            -40.9147   YY=           -104.4283   ZZ=           -104.3186
   XY=             -1.8826   XZ=             -9.5597   YZ=              0.4785

 Normal termination of Gaussian 16 at Thu May  6 14:44:41 2021.
