 Gaussian 16, Revision A.03,
 Gaussian 16:  EM64L-G16RevA.03 25-Dec-2016

 -------------
 #p 6-31g* mp2
 -------------

 ------------------------------------------------------
 Input file generated by CHIRIPA (05-May-2021 14:55:20)
 ------------------------------------------------------
 Symbolic Z-matrix:
 Charge =  0 Multiplicity = 1

                         Standard orientation:
 ---------------------------------------------------------------------
 Center     Atomic      Atomic             Coordinates (Angstroms)
 Number     Number       Type             X           Y           Z
 ---------------------------------------------------------------------
      1          6           0       -3.758624    0.732731    0.708529
      2          6           0       -3.557272    0.410898   -0.637726
      3          6           0       -2.506203   -0.429128   -1.017409
      4          6           0       -1.671884   -0.931841   -0.020173
      5          6           0       -1.846620   -0.629641    1.329432
      6          6           0       -2.904161    0.212352    1.686088
      7          1           0       -4.577633    1.386047    0.994532
      8          1           0       -4.219287    0.813574   -1.399063
      9          1           0       -2.327493   -0.694560   -2.052313
     10          1           0       -1.170122   -1.046400    2.065692
     11          1           0       -3.058140    0.460586    2.732374
     12          7           0       -0.555739   -1.822180   -0.409937
     13          8           0        0.165308   -2.252110    0.487776
     14          8           0       -0.423085   -2.073239   -1.605767
     15          6           0        2.896619    0.715287    0.421032
     16          6           0        3.913898   -0.193070   -0.270355
     17          6           0        4.949938   -0.764853    0.697880
     18          1           0        3.427996    1.537642    0.919345
     19          1           0        2.386810    0.147878    1.211943
     20          1           0        4.420657    0.375487   -1.060642
     21          1           0        3.380023   -1.013253   -0.767240
     22          1           0        4.461735   -1.355405    1.479870
     23          1           0        5.508282    0.041224    1.184801
     24          1           0        5.667251   -1.411228    0.182595
     25          6           0        1.854327    1.294577   -0.533840
     26          6           0        0.837049    2.202933    0.157548
     27          6           0       -0.198992    2.774716   -0.810688
     28          1           0        2.364135    1.861985   -1.324750
     29          1           0        1.322950    0.472221   -1.032152
     30          1           0        1.370924    3.023115    0.654433
     31          1           0        0.330289    1.634376    0.947835
     32          1           0       -0.757337    1.968638   -1.297608
     33          1           0        0.289210    3.365268   -1.592677
     34          1           0       -0.916305    3.421092   -0.295401
 ---------------------------------------------------------------------

 SCF Done:  E(RHF) =  -669.535602028     A.U. after   15 cycles
 E2 =    -0.2095547892D+01 EUMP2 =    -0.67163114991986D+03

 The electronic state is 1-A.
 Alpha  occ. eigenvalues --  -20.61030 -20.61024 -15.86046 -11.31354 -11.27922
 Alpha  occ. eigenvalues --  -11.27904 -11.27641 -11.26927 -11.26905 -11.21303
 Alpha  occ. eigenvalues --  -11.20884 -11.20848 -11.20668 -11.20608 -11.20228
 Alpha  occ. eigenvalues --   -1.60089  -1.39642  -1.19534  -1.08931  -1.07827
 Alpha  occ. eigenvalues --   -1.04928  -1.02947  -0.95781  -0.95419  -0.86454
 Alpha  occ. eigenvalues --   -0.86316  -0.82610  -0.79047  -0.77671  -0.77596
 Alpha  occ. eigenvalues --   -0.72270  -0.71447  -0.70632  -0.65184  -0.64917
 Alpha  occ. eigenvalues --   -0.64430  -0.62271  -0.60384  -0.58826  -0.57024
 Alpha  occ. eigenvalues --   -0.55418  -0.54871  -0.53079  -0.53008  -0.52129
 Alpha  occ. eigenvalues --   -0.51826  -0.49381  -0.49037  -0.49031  -0.47348
 Alpha  occ. eigenvalues --   -0.46129  -0.45252  -0.45139  -0.44788  -0.43199
 Alpha  occ. eigenvalues --   -0.37476  -0.36436
 Alpha virt. eigenvalues --    0.04811   0.11059   0.16291   0.21173   0.23022
 Alpha virt. eigenvalues --    0.24819   0.26652   0.27051   0.28133   0.28350
 Alpha virt. eigenvalues --    0.28600   0.31044   0.31679   0.32111   0.32299

 Mulliken charges:
               1
     1  C   -0.169902
     2  C   -0.214899
     3  C   -0.175185
     4  C    0.161959
     5  C   -0.172056
     6  C   -0.217620
     7  H    0.226529
     8  H    0.224682
     9  H    0.276508
    10  H    0.276031
    11  H    0.224466
    12  N    0.488500
    13  O   -0.459568
    14  O   -0.459053
    15  C   -0.297990
    16  C   -0.301862
    17  C   -0.475964
    18  H    0.144380
    19  H    0.154187
    20  H    0.147283
    21  H    0.166975
    22  H    0.158559
    23  H    0.150022
    24  H    0.159204
    25  C   -0.303209
    26  C   -0.301574
    27  C   -0.476081
    28  H    0.148854
    29  H    0.154118
    30  H    0.150117
    31  H    0.148948
    32  H    0.155320
    33  H    0.154158
    34  H    0.154163
 Sum of Mulliken charges =  -0.00000

 Dipole moment (field-independent basis, Debye):
    X=             -4.1032    Y=              2.8947    Z=              1.3606  Tot=              5.2026
 Quadrupole moment (field-independent basis, Debye-Ang):
   XX=            -82.1737   YY=           -101.3813   ZZ=            -90.5282
   XY=             -1.3368   XZ=             -1.5142   YZ=             -1.5951

 Normal termination of Gaussian 16 at Thu May  6 17:26:33 2021.
