 Gaussian 16, Revision A.03,
 Gaussian 16:  EM64L-G16RevA.03 25-Dec-2016

 -------------
 #p 6-31g* mp2
 -------------

 ------------------------------------------------------
 Input file generated by CHIRIPA (05-May-2021 14:55:22)
 ------------------------------------------------------
 Symbolic Z-matrix:
 Charge =  0 Multiplicity = 1

                         Standard orientation:
 ---------------------------------------------------------------------
 Center     Atomic      Atomic             Coordinates (Angstroms)
 Number     Number       Type             X           Y           Z
 ---------------------------------------------------------------------
      1          6           0       -4.861785    0.740480    0.174340
      2          6           0       -4.084793    0.568045    1.324588
      3          6           0       -2.809452    0.001337    1.241547
      4          6           0       -2.340286   -0.383373   -0.013511
      5          6           0       -3.090407   -0.224638   -1.177733
      6          6           0       -4.362991    0.344287   -1.070954
      7          1           0       -5.851429    1.181574    0.248068
      8          1           0       -4.469592    0.874806    2.293026
      9          1           0       -2.186741   -0.143686    2.115971
     10          1           0       -2.679732   -0.540204   -2.129143
     11          1           0       -4.964192    0.476995   -1.965935
     12          7           0       -0.991599   -0.984495   -0.113988
     13          8           0       -0.601133   -1.315176   -1.231495
     14          8           0       -0.350502   -1.113591    0.926669
     15          6           0        3.383051    1.063414    0.285092
     16          6           0        2.785259    2.171812   -0.582137
     17          6           0        2.999349    3.565462    0.009216
     18          1           0        2.936821    1.110286    1.287901
     19          1           0        4.458826    1.247266    0.412767
     20          1           0        1.711195    1.985168   -0.709285
     21          1           0        3.232823    2.122176   -1.583055
     22          1           0        4.067795    3.776804    0.120383
     23          1           0        2.537520    3.639018    0.999118
     24          1           0        2.564165    4.342629   -0.626776
     25          6           0        3.177119   -0.335603   -0.292896
     26          6           0        3.774910   -1.444001    0.574332
     27          6           0        3.560821   -2.837651   -0.017021
     28          1           0        2.101343   -0.519455   -0.420572
     29          1           0        3.623349   -0.382475   -1.295706
     30          1           0        3.327347   -1.394365    1.575251
     31          1           0        4.848974   -1.257357    0.701480
     32          1           0        4.022649   -2.911207   -1.006923
     33          1           0        2.492375   -3.048993   -0.128188
     34          1           0        3.996005   -3.614818    0.618971
 ---------------------------------------------------------------------

 SCF Done:  E(RHF) =  -669.537127191     A.U. after   15 cycles
 E2 =    -0.2092422978D+01 EUMP2 =    -0.67162955016858D+03

 The electronic state is 1-A.
 Alpha  occ. eigenvalues --  -20.61231 -20.61220 -15.86206 -11.31447 -11.27991
 Alpha  occ. eigenvalues --  -11.27986 -11.27712 -11.26973 -11.26964 -11.20663
 Alpha  occ. eigenvalues --  -11.20389 -11.20110 -11.19977 -11.19515 -11.19399
 Alpha  occ. eigenvalues --   -1.60257  -1.39812  -1.19599  -1.09022  -1.07029
 Alpha  occ. eigenvalues --   -1.04979  -1.02227  -0.95875  -0.94679  -0.86383
 Alpha  occ. eigenvalues --   -0.85703  -0.82712  -0.78356  -0.77782  -0.76755
 Alpha  occ. eigenvalues --   -0.72407  -0.71563  -0.70706  -0.65253  -0.64984
 Alpha  occ. eigenvalues --   -0.63648  -0.62325  -0.59621  -0.58113  -0.56284
 Alpha  occ. eigenvalues --   -0.55488  -0.53956  -0.53313  -0.53067  -0.51463
 Alpha  occ. eigenvalues --   -0.51104  -0.49295  -0.49183  -0.48553  -0.46658
 Alpha  occ. eigenvalues --   -0.45393  -0.45237  -0.44334  -0.44021  -0.42440
 Alpha  occ. eigenvalues --   -0.37569  -0.36573
 Alpha virt. eigenvalues --    0.04706   0.11084   0.16230   0.21222   0.24155
 Alpha virt. eigenvalues --    0.25658   0.27158   0.27873   0.28263   0.28850
 Alpha virt. eigenvalues --    0.29243   0.30868   0.32345   0.32636   0.32754

 Mulliken charges:
               1
     1  C   -0.170140
     2  C   -0.218621
     3  C   -0.170600
     4  C    0.160577
     5  C   -0.170510
     6  C   -0.218640
     7  H    0.226632
     8  H    0.224409
     9  H    0.276043
    10  H    0.276374
    11  H    0.224449
    12  N    0.487095
    13  O   -0.458217
    14  O   -0.459820
    15  C   -0.297441
    16  C   -0.297110
    17  C   -0.474693
    18  H    0.149035
    19  H    0.143626
    20  H    0.149264
    21  H    0.150365
    22  H    0.153880
    23  H    0.152603
    24  H    0.155682
    25  C   -0.308835
    26  C   -0.295687
    27  C   -0.478617
    28  H    0.178843
    29  H    0.141761
    30  H    0.153666
    31  H    0.142447
    32  H    0.149079
    33  H    0.171319
    34  H    0.151780
 Sum of Mulliken charges =  -0.00000

 Dipole moment (field-independent basis, Debye):
    X=             -5.2669    Y=              1.9761    Z=              0.3448  Tot=              5.6359
 Quadrupole moment (field-independent basis, Debye-Ang):
   XX=            -73.7213   YY=            -99.1106   ZZ=            -89.7261
   XY=             -3.3227   XZ=             -0.6127   YZ=              0.0994

 Normal termination of Gaussian 16 at Wed May  5 16:00:45 2021.
