 Gaussian 16, Revision A.03,
 Gaussian 16:  EM64L-G16RevA.03 25-Dec-2016

 -------------
 #p 6-31g* mp2
 -------------

 ------------------------------------------------------
 Input file generated by CHIRIPA (05-May-2021 14:55:23)
 ------------------------------------------------------
 Symbolic Z-matrix:
 Charge =  0 Multiplicity = 1

                         Standard orientation:
 ---------------------------------------------------------------------
 Center     Atomic      Atomic             Coordinates (Angstroms)
 Number     Number       Type             X           Y           Z
 ---------------------------------------------------------------------
      1          6           0       -3.627065    0.154679   -1.641885
      2          6           0       -3.305467   -1.180994   -1.379066
      3          6           0       -2.452761   -1.511130   -0.321498
      4          6           0       -1.937265   -0.475677    0.456570
      5          6           0       -2.238882    0.864589    0.219917
      6          6           0       -3.093686    1.171415   -0.842963
      7          1           0       -4.290283    0.402083   -2.465493
      8          1           0       -3.718223   -1.972681   -1.997862
      9          1           0       -2.187203   -2.536779   -0.095797
     10          1           0       -1.811909    1.631898    0.854226
     11          1           0       -3.341705    2.209595   -1.044741
     12          7           0       -1.033432   -0.812839    1.578982
     13          8           0       -0.592380    0.117871    2.249719
     14          8           0       -0.783175   -2.001433    1.766739
     15          6           0        2.739439   -0.133455   -0.705620
     16          6           0        3.981976   -0.919522   -0.285877
     17          6           0        4.106259   -2.260024   -1.010725
     18          1           0        1.845479   -0.741565   -0.510731
     19          1           0        2.771108    0.036931   -1.790683
     20          1           0        3.948659   -1.087175    0.798282
     21          1           0        4.873070   -0.309395   -0.481610
     22          1           0        4.164733   -2.108557   -2.093424
     23          1           0        3.235069   -2.890757   -0.806261
     24          1           0        5.001356   -2.805337   -0.695617
     25          6           0        2.601302    1.208934    0.010368
     26          6           0        1.358766    1.995001   -0.409376
     27          6           0        1.234483    3.335502    0.315472
     28          1           0        2.569633    1.038549    1.095431
     29          1           0        3.495263    1.817044   -0.184521
     30          1           0        0.467671    1.384874   -0.213643
     31          1           0        1.392082    2.162654   -1.493535
     32          1           0        2.105673    3.966235    0.111008
     33          1           0        1.176009    3.184036    1.398172
     34          1           0        0.339385    3.880816    0.000364
 ---------------------------------------------------------------------

 SCF Done:  E(RHF) =  -669.535352748     A.U. after   15 cycles
 E2 =    -0.2094146211D+01 EUMP2 =    -0.67162949895935D+03

 The electronic state is 1-A.
 Alpha  occ. eigenvalues --  -20.60988 -20.60974 -15.86004 -11.31284 -11.27859
 Alpha  occ. eigenvalues --  -11.27836 -11.27587 -11.26845 -11.26833 -11.21182
 Alpha  occ. eigenvalues --  -11.21025 -11.20869 -11.20830 -11.20750 -11.20568
 Alpha  occ. eigenvalues --   -1.60041  -1.39597  -1.19467  -1.08873  -1.07909
 Alpha  occ. eigenvalues --   -1.04857  -1.03077  -0.95724  -0.95534  -0.86558
 Alpha  occ. eigenvalues --   -0.86262  -0.82550  -0.79159  -0.77762  -0.77580
 Alpha  occ. eigenvalues --   -0.72229  -0.71376  -0.70578  -0.65126  -0.64884
 Alpha  occ. eigenvalues --   -0.64477  -0.62225  -0.60438  -0.58933  -0.57166
 Alpha  occ. eigenvalues --   -0.55359  -0.54798  -0.53207  -0.52932  -0.52269
 Alpha  occ. eigenvalues --   -0.51973  -0.49464  -0.48996  -0.48980  -0.47485
 Alpha  occ. eigenvalues --   -0.46192  -0.45343  -0.45147  -0.44875  -0.43323
 Alpha  occ. eigenvalues --   -0.37412  -0.36398
 Alpha virt. eigenvalues --    0.04894   0.11110   0.16378   0.20939   0.23247
 Alpha virt. eigenvalues --    0.24375   0.26940   0.27022   0.27772   0.28072
 Alpha virt. eigenvalues --    0.29294   0.30914   0.31857   0.32150   0.32344

 Mulliken charges:
               1
     1  C   -0.170268
     2  C   -0.218462
     3  C   -0.170707
     4  C    0.160027
     5  C   -0.174526
     6  C   -0.218696
     7  H    0.226145
     8  H    0.223876
     9  H    0.275757
    10  H    0.279286
    11  H    0.224184
    12  N    0.489202
    13  O   -0.460442
    14  O   -0.459289
    15  C   -0.297355
    16  C   -0.299872
    17  C   -0.476141
    18  H    0.148895
    19  H    0.145048
    20  H    0.158456
    21  H    0.149480
    22  H    0.151547
    23  H    0.157760
    24  H    0.159395
    25  C   -0.300408
    26  C   -0.301619
    27  C   -0.479013
    28  H    0.163139
    29  H    0.146181
    30  H    0.152474
    31  H    0.146412
    32  H    0.155459
    33  H    0.165596
    34  H    0.148478
 Sum of Mulliken charges =  -0.00000

 Dipole moment (field-independent basis, Debye):
    X=             -3.2662    Y=              1.0829    Z=             -3.7785  Tot=              5.1105
 Quadrupole moment (field-independent basis, Debye-Ang):
   XX=            -82.7573   YY=            -92.3813   ZZ=            -98.4869
   XY=              0.1354   XZ=              6.7903   YZ=              3.0628

 Normal termination of Gaussian 16 at Wed May  5 19:06:49 2021.
