 Gaussian 16, Revision A.03,
 Gaussian 16:  EM64L-G16RevA.03 25-Dec-2016

 -------------
 #p 6-31g* mp2
 -------------

 ------------------------------------------------------
 Input file generated by CHIRIPA (05-May-2021 14:53:14)
 ------------------------------------------------------
 Symbolic Z-matrix:
 Charge =  0 Multiplicity = 1

                         Standard orientation:
 ---------------------------------------------------------------------
 Center     Atomic      Atomic             Coordinates (Angstroms)
 Number     Number       Type             X           Y           Z
 ---------------------------------------------------------------------
      1          6           0        4.349232    0.697607    0.173134
      2          6           0        4.151616    1.935345   -0.702615
      3          6           0        4.863066    3.170548   -0.149529
      4          1           0        3.982294    0.910855    1.186459
      5          1           0        5.424416    0.491306    0.267012
      6          1           0        3.077065    2.138436   -0.795948
      7          1           0        4.518891    1.719061   -1.714023
      8          1           0        5.940530    2.992358   -0.072581
      9          1           0        4.490512    3.414116    0.850711
     10          1           0        4.708567    4.043735   -0.791038
     11          6           0        3.643970   -0.545340   -0.366696
     12          6           0        3.841586   -1.783078    0.509054
     13          6           0        3.130135   -3.018282   -0.044033
     14          1           0        2.568785   -0.339040   -0.460573
     15          1           0        4.010908   -0.758589   -1.380020
     16          1           0        3.474310   -1.566795    1.520462
     17          1           0        4.916136   -1.986169    0.602386
     18          1           0        3.502690   -3.261849   -1.044272
     19          1           0        2.052671   -2.840091   -0.120981
     20          1           0        3.284635   -3.891468    0.597477
     21          6           0       -1.019384   -1.422907    0.366374
     22          6           0       -1.896297   -1.704588   -0.686336
     23          6           0       -3.064425   -0.955672   -0.857077
     24          6           0       -3.325650    0.072332    0.047500
     25          6           0       -2.471667    0.377303    1.106270
     26          6           0       -1.309356   -0.384690    1.257746
     27          1           0       -0.114213   -2.009762    0.491527
     28          1           0       -1.673662   -2.510288   -1.380112
     29          1           0       -3.760691   -1.152275   -1.663289
     30          1           0       -2.720579    1.186701    1.781799
     31          1           0       -0.630155   -0.163684    2.076212
     32          7           0       -4.559216    0.872098   -0.123057
     33          8           0       -4.766581    1.772508    0.687435
     34          8           0       -5.295362    0.583402   -1.064005
 ---------------------------------------------------------------------

 SCF Done:  E(RHF) =  -669.535531309     A.U. after   15 cycles
 E2 =    -0.2091149339D+01 EUMP2 =    -0.67162668064812D+03

 The electronic state is 1-A.
 Alpha  occ. eigenvalues --  -20.60771 -20.60766 -15.85825 -11.31200 -11.27768
 Alpha  occ. eigenvalues --  -11.27761 -11.27499 -11.26792 -11.26775 -11.22563
 Alpha  occ. eigenvalues --  -11.22251 -11.22197 -11.22109 -11.22018 -11.21479
 Alpha  occ. eigenvalues --   -1.59847  -1.39400  -1.19372  -1.09185  -1.08765
 Alpha  occ. eigenvalues --   -1.04775  -1.04288  -0.96746  -0.95600  -0.87763
 Alpha  occ. eigenvalues --   -0.86172  -0.82433  -0.80356  -0.78957  -0.77476
 Alpha  occ. eigenvalues --   -0.72043  -0.71170  -0.70506  -0.65825  -0.65023
 Alpha  occ. eigenvalues --   -0.64778  -0.62122  -0.61702  -0.60123  -0.58337
 Alpha  occ. eigenvalues --   -0.56144  -0.55214  -0.53430  -0.53152  -0.53103
 Alpha  occ. eigenvalues --   -0.52867  -0.50698  -0.48806  -0.48797  -0.48658
 Alpha  occ. eigenvalues --   -0.47393  -0.46502  -0.46411  -0.44803  -0.44522
 Alpha  occ. eigenvalues --   -0.37348  -0.36379
 Alpha virt. eigenvalues --    0.05038   0.11266   0.16443   0.19117   0.22645
 Alpha virt. eigenvalues --    0.23726   0.25502   0.26141   0.26981   0.27564
 Alpha virt. eigenvalues --    0.28781   0.30438   0.30899   0.31381   0.32234

 Mulliken charges:
               1
     1  C   -0.298298
     2  C   -0.300473
     3  C   -0.476055
     4  H    0.148156
     5  H    0.151470
     6  H    0.153013
     7  H    0.153231
     8  H    0.155891
     9  H    0.155134
    10  H    0.162610
    11  C   -0.299665
    12  C   -0.300383
    13  C   -0.478899
    14  H    0.146854
    15  H    0.152385
    16  H    0.149162
    17  H    0.156822
    18  H    0.160672
    19  H    0.144155
    20  H    0.164053
    21  C   -0.177773
    22  C   -0.221065
    23  C   -0.170828
    24  C    0.158518
    25  C   -0.170721
    26  C   -0.221081
    27  H    0.236917
    28  H    0.223902
    29  H    0.275748
    30  H    0.275563
    31  H    0.223730
    32  N    0.487978
    33  O   -0.460408
    34  O   -0.460315
 Sum of Mulliken charges =  -0.00000

 Dipole moment (field-independent basis, Debye):
    X=              4.5312    Y=             -2.7840    Z=              0.5536  Tot=              5.3469
 Quadrupole moment (field-independent basis, Debye-Ang):
   XX=           -122.7179   YY=            -94.9159   ZZ=            -91.5477
   XY=              9.7905   XZ=             -1.3706   YZ=              2.3689

 Normal termination of Gaussian 16 at Wed May  5 21:51:25 2021.
