 Gaussian 16, Revision A.03,
 Gaussian 16:  EM64L-G16RevA.03 25-Dec-2016

 -------------
 #p 6-31g* mp2
 -------------

 ------------------------------------------------------
 Input file generated by CHIRIPA (05-May-2021 14:51:14)
 ------------------------------------------------------
 Symbolic Z-matrix:
 Charge =  0 Multiplicity = 1

                         Standard orientation:
 ---------------------------------------------------------------------
 Center     Atomic      Atomic             Coordinates (Angstroms)
 Number     Number       Type             X           Y           Z
 ---------------------------------------------------------------------
      1          6           0        2.807922   -0.803537    0.704196
      2          6           0        1.461819   -1.514092    0.558930
      3          6           0        1.277837   -2.644698    1.571685
      4          1           0        3.617157   -1.537370    0.587693
      5          1           0        2.894535   -0.401874    1.723294
      6          1           0        1.377187   -1.913098   -0.460015
      7          1           0        0.655698   -0.778448    0.675601
      8          1           0        1.335849   -2.258832    2.594594
      9          1           0        2.061437   -3.399929    1.452526
     10          1           0        0.308951   -3.138975    1.449981
     11          6           0        3.006645    0.329218   -0.301341
     12          6           0        4.352748    1.039773   -0.156075
     13          6           0        4.536731    2.170380   -1.168831
     14          1           0        2.920033   -0.072444   -1.320439
     15          1           0        2.197411    1.063051   -0.184839
     16          1           0        5.158870    0.304129   -0.272747
     17          1           0        4.437381    1.438779    0.862869
     18          1           0        3.753131    2.925610   -1.049671
     19          1           0        4.478719    1.784513   -2.191739
     20          1           0        5.505616    2.664656   -1.047127
     21          6           0       -3.112688    0.964252   -0.313579
     22          6           0       -3.000011    1.827024    0.943765
     23          6           0       -3.414394    3.279032    0.703446
     24          1           0       -2.488152    1.398935   -1.106014
     25          1           0       -4.148331    0.995213   -0.679472
     26          1           0       -1.965198    1.793334    1.307966
     27          1           0       -3.624737    1.390130    1.733358
     28          1           0       -4.453276    3.331706    0.362051
     29          1           0       -2.784308    3.737200   -0.065758
     30          1           0       -3.326157    3.877879    1.615289
     31          6           0       -2.701880   -0.489933   -0.089276
     32          6           0       -2.814556   -1.352706   -1.346619
     33          6           0       -2.400173   -2.804714   -1.106301
     34          1           0       -1.666236   -0.520895    0.276618
     35          1           0       -3.326415   -0.924616    0.703159
     36          1           0       -2.189831   -0.915812   -2.136213
     37          1           0       -3.849369   -1.319015   -1.710821
     38          1           0       -3.030259   -3.262881   -0.337097
     39          1           0       -1.361292   -2.857387   -0.764904
     40          1           0       -2.488410   -3.403560   -2.018143
 ---------------------------------------------------------------------

 SCF Done:  E(RHF) =  -470.733141842     A.U. after   11 cycles
 E2 =    -0.1583646120D+01 EUMP2 =    -0.47231678796274D+03

 The electronic state is 1-A.
 Alpha  occ. eigenvalues --  -11.21674 -11.21644 -11.21618 -11.21571 -11.21464
 Alpha  occ. eigenvalues --  -11.21404 -11.21381 -11.21308 -11.21107 -11.21104
 Alpha  occ. eigenvalues --  -11.21083 -11.21038  -1.08497  -1.08410  -1.03598
 Alpha  occ. eigenvalues --   -1.03507  -0.96030  -0.95965  -0.87049  -0.86978
 Alpha  occ. eigenvalues --   -0.79684  -0.79564  -0.78372  -0.78165  -0.65182
 Alpha  occ. eigenvalues --   -0.65002  -0.60994  -0.60936  -0.59454  -0.59275
 Alpha  occ. eigenvalues --   -0.57684  -0.57536  -0.55358  -0.55213  -0.52731
 Alpha  occ. eigenvalues --   -0.52664  -0.52509  -0.52330  -0.50022  -0.49868
 Alpha  occ. eigenvalues --   -0.48014  -0.47881  -0.46771  -0.46603  -0.46069
 Alpha  occ. eigenvalues --   -0.45785  -0.45747  -0.45308  -0.43834  -0.43770
 Alpha virt. eigenvalues --    0.20487   0.22989   0.23315   0.24777   0.25431
 Alpha virt. eigenvalues --    0.26423   0.26977   0.27325   0.28548   0.29276
 Alpha virt. eigenvalues --    0.30545   0.31264   0.31721   0.31769   0.32116

 Mulliken charges:
               1
     1  C   -0.297643
     2  C   -0.307070
     3  C   -0.478721
     4  H    0.150050
     5  H    0.149779
     6  H    0.152190
     7  H    0.157186
     8  H    0.155506
     9  H    0.155610
    10  H    0.163387
    11  C   -0.298334
    12  C   -0.299693
    13  C   -0.475759
    14  H    0.149606
    15  H    0.149014
    16  H    0.152157
    17  H    0.152078
    18  H    0.155140
    19  H    0.155230
    20  H    0.160467
    21  C   -0.297851
    22  C   -0.299450
    23  C   -0.475692
    24  H    0.149592
    25  H    0.149569
    26  H    0.150633
    27  H    0.152127
    28  H    0.155379
    29  H    0.155152
    30  H    0.160163
    31  C   -0.307454
    32  C   -0.298515
    33  C   -0.481983
    34  H    0.158675
    35  H    0.149297
    36  H    0.151901
    37  H    0.151761
    38  H    0.154791
    39  H    0.161679
    40  H    0.160047
 Sum of Mulliken charges =  -0.00000

 Dipole moment (field-independent basis, Debye):
    X=              0.0307    Y=             -0.0093    Z=              0.0078  Tot=              0.0330
 Quadrupole moment (field-independent basis, Debye-Ang):
   XX=            -83.8334   YY=            -86.1852   ZZ=            -84.7286
   XY=             -0.0372   XZ=             -0.3511   YZ=              0.9312

 Normal termination of Gaussian 16 at Wed May  5 21:39:08 2021.
