 Gaussian 16, Revision A.03,
 Gaussian 16:  EM64L-G16RevA.03 25-Dec-2016

 -------------
 #p 6-31g* mp2
 -------------

 ------------------------------------------------------
 Input file generated by CHIRIPA (05-May-2021 14:51:13)
 ------------------------------------------------------
 Symbolic Z-matrix:
 Charge =  0 Multiplicity = 1

                         Standard orientation:
 ---------------------------------------------------------------------
 Center     Atomic      Atomic             Coordinates (Angstroms)
 Number     Number       Type             X           Y           Z
 ---------------------------------------------------------------------
      1          6           0       -3.648101   -0.558265   -0.282291
      2          6           0       -3.981510   -1.729628    0.642227
      3          6           0       -3.925646   -3.080597   -0.071605
      4          1           0       -4.348488   -0.556592   -1.128695
      5          1           0       -2.645659   -0.708754   -0.706389
      6          1           0       -4.982466   -1.576282    1.065532
      7          1           0       -3.280368   -1.728399    1.486628
      8          1           0       -2.925607   -3.259666   -0.479597
      9          1           0       -4.637376   -3.106684   -0.903086
     10          1           0       -4.167309   -3.903936    0.607786
     11          6           0       -3.699761    0.799040    0.416837
     12          6           0       -3.366351    1.970403   -0.507680
     13          6           0       -3.422215    3.321372    0.206151
     14          1           0       -4.702202    0.949529    0.840935
     15          1           0       -2.999373    0.797367    1.263241
     16          1           0       -4.067493    1.969174   -1.352082
     17          1           0       -2.365395    1.817057   -0.930986
     18          1           0       -2.710485    3.347459    1.037632
     19          1           0       -4.422254    3.500441    0.614143
     20          1           0       -3.180553    4.144711   -0.473240
     21          6           0        3.052801   -0.545378   -0.197707
     22          6           0        1.753737    0.261073   -0.190070
     23          6           0        0.519946   -0.603048   -0.452457
     24          1           0        3.157164   -1.051274   -1.167306
     25          1           0        2.989624   -1.336385    0.562366
     26          1           0        1.819893    1.051194   -0.948983
     27          1           0        1.652549    0.765261    0.779554
     28          1           0        0.426136   -1.382460    0.310641
     29          1           0        0.594430   -1.094903   -1.427717
     30          1           0       -0.397543   -0.006411   -0.442586
     31          6           0        4.295061    0.304602    0.063161
     32          6           0        5.594124   -0.501848    0.055524
     33          6           0        6.827916    0.362273    0.317911
     34          1           0        4.358237    1.095610   -0.696911
     35          1           0        4.190697    0.810498    1.032760
     36          1           0        5.695312   -1.006037   -0.914100
     37          1           0        5.527969   -1.291969    0.814437
     38          1           0        6.753431    0.854128    1.293172
     39          1           0        6.921725    1.141685   -0.445186
     40          1           0        7.745405   -0.234364    0.308041
 ---------------------------------------------------------------------

 SCF Done:  E(RHF) =  -470.733088558     A.U. after   11 cycles
 E2 =    -0.1583078089D+01 EUMP2 =    -0.47231616664647D+03

 The electronic state is 1-A.
 Alpha  occ. eigenvalues --  -11.21676 -11.21630 -11.21607 -11.21538 -11.21450
 Alpha  occ. eigenvalues --  -11.21389 -11.21358 -11.21261 -11.21162 -11.21093
 Alpha  occ. eigenvalues --  -11.21068 -11.21009  -1.08482  -1.08390  -1.03586
 Alpha  occ. eigenvalues --   -1.03495  -0.96050  -0.95932  -0.87066  -0.86954
 Alpha  occ. eigenvalues --   -0.79660  -0.79556  -0.78294  -0.78196  -0.65111
 Alpha  occ. eigenvalues --   -0.65064  -0.60983  -0.60893  -0.59419  -0.59306
 Alpha  occ. eigenvalues --   -0.57668  -0.57535  -0.55322  -0.55238  -0.52781
 Alpha  occ. eigenvalues --   -0.52626  -0.52459  -0.52347  -0.49976  -0.49882
 Alpha  occ. eigenvalues --   -0.47982  -0.47870  -0.46678  -0.46598  -0.45834
 Alpha  occ. eigenvalues --   -0.45755  -0.45743  -0.45677  -0.43783  -0.43707
 Alpha virt. eigenvalues --    0.20657   0.23020   0.23852   0.24730   0.25991
 Alpha virt. eigenvalues --    0.26586   0.27204   0.27467   0.27856   0.29075
 Alpha virt. eigenvalues --    0.30265   0.31284   0.31753   0.31911   0.32167

 Mulliken charges:
               1
     1  C   -0.305015
     2  C   -0.298978
     3  C   -0.476072
     4  H    0.149202
     5  H    0.157333
     6  H    0.151470
     7  H    0.151740
     8  H    0.156031
     9  H    0.154916
    10  H    0.159826
    11  C   -0.298548
    12  C   -0.302821
    13  C   -0.475486
    14  H    0.149710
    15  H    0.149581
    16  H    0.152326
    17  H    0.153376
    18  H    0.155168
    19  H    0.155299
    20  H    0.160227
    21  C   -0.298707
    22  C   -0.299443
    23  C   -0.483631
    24  H    0.149832
    25  H    0.149619
    26  H    0.152239
    27  H    0.151957
    28  H    0.155379
    29  H    0.155692
    30  H    0.167292
    31  C   -0.298296
    32  C   -0.299664
    33  C   -0.475732
    34  H    0.149649
    35  H    0.149704
    36  H    0.152020
    37  H    0.151978
    38  H    0.155220
    39  H    0.155244
    40  H    0.160361
 Sum of Mulliken charges =  -0.00000

 Dipole moment (field-independent basis, Debye):
    X=              0.0339    Y=             -0.0006    Z=             -0.0102  Tot=              0.0354
 Quadrupole moment (field-independent basis, Debye-Ang):
   XX=            -84.8388   YY=            -86.1333   ZZ=            -83.8694
   XY=             -0.5825   XZ=             -0.0073   YZ=             -0.6630

 Normal termination of Gaussian 16 at Thu May  6 03:57:53 2021.
