 Gaussian 16, Revision A.03,
 Gaussian 16:  EM64L-G16RevA.03 25-Dec-2016

 -------------
 #p 6-31g* mp2
 -------------

 ------------------------------------------------------
 Input file generated by CHIRIPA (05-May-2021 14:57:24)
 ------------------------------------------------------
 Symbolic Z-matrix:
 Charge =  0 Multiplicity = 1

                         Standard orientation:
 ---------------------------------------------------------------------
 Center     Atomic      Atomic             Coordinates (Angstroms)
 Number     Number       Type             X           Y           Z
 ---------------------------------------------------------------------
      1          6           0        4.458311    0.207676   -1.808965
      2          6           0        3.831225   -1.024596   -1.597330
      3          6           0        2.974229   -1.207327   -0.507965
      4          6           0        2.765999   -0.131509    0.353747
      5          6           0        3.376097    1.108323    0.169666
      6          6           0        4.229150    1.268333   -0.926348
      7          1           0        5.122515    0.340801   -2.657792
      8          1           0        4.007337   -1.850079   -2.281149
      9          1           0        2.475804   -2.150643   -0.320497
     10          1           0        3.180962    1.912631    0.868542
     11          1           0        4.714795    2.226450   -1.088230
     12          7           0        1.860823   -0.312931    1.510528
     13          8           0        1.693901    0.650546    2.255165
     14          8           0        1.335408   -1.415172    1.650672
     15          6           0       -2.747140    2.617722   -0.080276
     16          6           0       -2.036143    1.838076    0.837959
     17          6           0       -2.121746    0.443126    0.801397
     18          6           0       -2.931429   -0.141639   -0.171102
     19          6           0       -3.651998    0.607901   -1.099681
     20          6           0       -3.551381    2.001233   -1.044465
     21          1           0       -2.674810    3.700724   -0.044629
     22          1           0       -1.410783    2.314124    1.587857
     23          1           0       -1.582067   -0.184487    1.500158
     24          1           0       -4.267204    0.104645   -1.835665
     25          1           0       -4.104678    2.604198   -1.758846
     26          7           0       -3.030000   -1.617554   -0.219682
     27          8           0       -3.750242   -2.108497   -1.086206
     28          8           0       -2.385152   -2.255487    0.609684
 ---------------------------------------------------------------------

 SCF Done:  E(RHF) =  -868.339328359     A.U. after   16 cycles
 E2 =    -0.2599706791D+01 EUMP2 =    -0.87093903514951D+03

 The electronic state is 1-A.
 Alpha  occ. eigenvalues --  -20.61254 -20.61145 -20.60035 -20.59975 -15.86207
 Alpha  occ. eigenvalues --  -15.85055 -11.31409 -11.30420 -11.28006 -11.27904
 Alpha  occ. eigenvalues --  -11.27686 -11.27078 -11.26972 -11.26903 -11.26811
 Alpha  occ. eigenvalues --  -11.26800 -11.26117 -11.25907  -1.60269  -1.59094
 Alpha  occ. eigenvalues --   -1.39816  -1.38637  -1.19571  -1.18609  -1.09002
 Alpha  occ. eigenvalues --   -1.08023  -1.04946  -1.03985  -0.95858  -0.94844
 Alpha  occ. eigenvalues --   -0.86352  -0.85391  -0.82688  -0.81650  -0.77758
 Alpha  occ. eigenvalues --   -0.76681  -0.72414  -0.71598  -0.71259  -0.70678
 Alpha  occ. eigenvalues --   -0.70426  -0.69710  -0.65224  -0.64948  -0.64249
 Alpha  occ. eigenvalues --   -0.63972  -0.62290  -0.61284  -0.55462  -0.54537
 Alpha  occ. eigenvalues --   -0.53288  -0.53034  -0.52367  -0.52050  -0.49211
 Alpha  occ. eigenvalues --   -0.49170  -0.48054  -0.48010  -0.45247  -0.44039
 Alpha  occ. eigenvalues --   -0.37548  -0.36645  -0.36541  -0.35608
 Alpha virt. eigenvalues --    0.04720   0.05802   0.11115   0.12029   0.16232
 Alpha virt. eigenvalues --    0.17277   0.21254   0.22256   0.27192   0.27957
 Alpha virt. eigenvalues --    0.28387   0.29139   0.30878   0.31698   0.32423

 Mulliken charges:
               1
     1  C   -0.170183
     2  C   -0.218754
     3  C   -0.170118
     4  C    0.158120
     5  C   -0.171361
     6  C   -0.218803
     7  H    0.226444
     8  H    0.225996
     9  H    0.281468
    10  H    0.272616
    11  H    0.222927
    12  N    0.486627
    13  O   -0.470582
    14  O   -0.450840
    15  C   -0.172200
    16  C   -0.223058
    17  C   -0.180554
    18  C    0.156379
    19  C   -0.172665
    20  C   -0.219533
    21  H    0.222007
    22  H    0.232208
    23  H    0.294725
    24  H    0.272463
    25  H    0.219540
    26  N    0.486366
    27  O   -0.466710
    28  O   -0.452523
 Sum of Mulliken charges =  -0.00000

 Dipole moment (field-independent basis, Debye):
    X=              3.8431    Y=              5.5902    Z=             -3.7790  Tot=              7.7653
 Quadrupole moment (field-independent basis, Debye-Ang):
   XX=            -89.0276   YY=           -102.7022   ZZ=           -105.3659
   XY=            -13.5235   XZ=             -8.6879   YZ=              0.9733

 Normal termination of Gaussian 16 at Thu May  6 18:00:20 2021.
