 Gaussian 16, Revision A.03,
 Gaussian 16:  EM64L-G16RevA.03 25-Dec-2016

 -------------
 #p 6-31g* mp2
 -------------

 ------------------------------------------------------
 Input file generated by CHIRIPA (05-May-2021 14:51:10)
 ------------------------------------------------------
 Symbolic Z-matrix:
 Charge =  0 Multiplicity = 1

                         Standard orientation:
 ---------------------------------------------------------------------
 Center     Atomic      Atomic             Coordinates (Angstroms)
 Number     Number       Type             X           Y           Z
 ---------------------------------------------------------------------
      1          6           0       -2.612632   -1.288343    0.420622
      2          6           0       -1.349380   -1.117454    1.265000
      3          6           0       -0.777257   -2.450105    1.749263
      4          1           0       -3.370704   -1.821859    1.010226
      5          1           0       -2.383592   -1.926085   -0.444376
      6          1           0       -1.580392   -0.479091    2.127405
      7          1           0       -0.594294   -0.584114    0.673383
      8          1           0       -0.519073   -3.090098    0.899350
      9          1           0       -1.510775   -2.984478    2.361634
     10          1           0        0.125362   -2.304588    2.350896
     11          6           0       -3.196410    0.035046   -0.070877
     12          6           0       -4.459663   -0.135844   -0.915255
     13          6           0       -5.031785    1.196808   -1.399518
     14          1           0       -3.425451    0.672788    0.794121
     15          1           0       -2.438338    0.568561   -0.660481
     16          1           0       -5.214749   -0.669183   -0.323638
     17          1           0       -4.228650   -0.774206   -1.777660
     18          1           0       -4.298268    1.731181   -2.011889
     19          1           0       -5.289969    1.836801   -0.549605
     20          1           0       -5.934404    1.051291   -2.001152
     21          6           0        2.307353    1.102906   -0.175784
     22          6           0        2.415051    2.212445    0.870787
     23          6           0        1.212902    3.157131    0.856647
     24          1           0        2.206601    1.555545   -1.171732
     25          1           0        1.387017    0.529346    0.001434
     26          1           0        3.335612    2.782875    0.692490
     27          1           0        2.515750    1.757111    1.864339
     28          1           0        0.287982    2.606642    1.056860
     29          1           0        1.112503    3.638235   -0.121649
     30          1           0        1.310625    3.942577    1.612547
     31          6           0        3.501690    0.150392   -0.173961
     32          6           0        3.393992   -0.959148   -1.220531
     33          6           0        4.596140   -1.903835   -1.206392
     34          1           0        4.422025    0.723951   -0.351180
     35          1           0        3.602441   -0.302247    0.821987
     36          1           0        3.293292   -0.503813   -2.214085
     37          1           0        2.473430   -1.529579   -1.042235
     38          1           0        4.696539   -2.384938   -0.228097
     39          1           0        5.521060   -1.353344   -1.406605
     40          1           0        4.498417   -2.689279   -1.962292
 ---------------------------------------------------------------------

 SCF Done:  E(RHF) =  -470.733436526     A.U. after   11 cycles
 E2 =    -0.1583196586D+01 EUMP2 =    -0.47231663311192D+03

 The electronic state is 1-A.
 Alpha  occ. eigenvalues --  -11.21667 -11.21615 -11.21614 -11.21591 -11.21439
 Alpha  occ. eigenvalues --  -11.21405 -11.21377 -11.21344 -11.21148 -11.21076
 Alpha  occ. eigenvalues --  -11.21071 -11.21044  -1.08475  -1.08427  -1.03573
 Alpha  occ. eigenvalues --   -1.03523  -0.96017  -0.95973  -0.87034  -0.86988
 Alpha  occ. eigenvalues --   -0.79660  -0.79573  -0.78346  -0.78187  -0.65208
 Alpha  occ. eigenvalues --   -0.64970  -0.60995  -0.60899  -0.59395  -0.59334
 Alpha  occ. eigenvalues --   -0.57642  -0.57573  -0.55326  -0.55237  -0.52713
 Alpha  occ. eigenvalues --   -0.52667  -0.52447  -0.52396  -0.50013  -0.49871
 Alpha  occ. eigenvalues --   -0.48031  -0.47874  -0.46833  -0.46570  -0.46064
 Alpha  occ. eigenvalues --   -0.45774  -0.45763  -0.45277  -0.43820  -0.43782
 Alpha virt. eigenvalues --    0.20334   0.23262   0.23842   0.24362   0.25610
 Alpha virt. eigenvalues --    0.26726   0.27037   0.27560   0.28376   0.29214
 Alpha virt. eigenvalues --    0.31162   0.31525   0.31681   0.31883   0.32064

 Mulliken charges:
               1
     1  C   -0.297370
     2  C   -0.310215
     3  C   -0.475435
     4  H    0.149904
     5  H    0.149650
     6  H    0.152123
     7  H    0.160326
     8  H    0.155201
     9  H    0.155839
    10  H    0.159870
    11  C   -0.298977
    12  C   -0.299683
    13  C   -0.475775
    14  H    0.149566
    15  H    0.150259
    16  H    0.151963
    17  H    0.152025
    18  H    0.155456
    19  H    0.155277
    20  H    0.160260
    21  C   -0.308496
    22  C   -0.298758
    23  C   -0.477011
    24  H    0.149380
    25  H    0.158662
    26  H    0.151877
    27  H    0.151882
    28  H    0.156746
    29  H    0.154845
    30  H    0.160155
    31  C   -0.297457
    32  C   -0.299918
    33  C   -0.475691
    34  H    0.149626
    35  H    0.149623
    36  H    0.151790
    37  H    0.151653
    38  H    0.155406
    39  H    0.155229
    40  H    0.160193
 Sum of Mulliken charges =  -0.00000

 Dipole moment (field-independent basis, Debye):
    X=             -0.0190    Y=             -0.0067    Z=              0.0022  Tot=              0.0202
 Quadrupole moment (field-independent basis, Debye-Ang):
   XX=            -85.1261   YY=            -85.8046   ZZ=            -83.7842
   XY=              1.3261   XZ=             -0.9477   YZ=             -0.0822

 Normal termination of Gaussian 16 at Wed May  5 16:40:57 2021.
