 Gaussian 16, Revision A.03,
 Gaussian 16:  EM64L-G16RevA.03 25-Dec-2016

 -------------
 #p 6-31g* mp2
 -------------

 ------------------------------------------------------
 Input file generated by CHIRIPA (05-May-2021 14:57:23)
 ------------------------------------------------------
 Symbolic Z-matrix:
 Charge =  0 Multiplicity = 1

                         Standard orientation:
 ---------------------------------------------------------------------
 Center     Atomic      Atomic             Coordinates (Angstroms)
 Number     Number       Type             X           Y           Z
 ---------------------------------------------------------------------
      1          6           0        3.412628   -2.130863    0.910758
      2          6           0        4.468744   -1.215445    0.966856
      3          6           0        4.321697    0.071355    0.440480
      4          6           0        3.099315    0.410699   -0.137376
      5          6           0        2.028437   -0.478945   -0.208400
      6          6           0        2.197986   -1.760345    0.324343
      7          1           0        3.535598   -3.128383    1.322132
      8          1           0        5.413180   -1.500437    1.421682
      9          1           0        5.122857    0.799816    0.470557
     10          1           0        1.098871   -0.165796   -0.668034
     11          1           0        1.376068   -2.469198    0.279376
     12          7           0        2.931731    1.770118   -0.697996
     13          8           0        1.844769    2.044552   -1.201819
     14          8           0        3.890514    2.535457   -0.622973
     15          6           0       -4.015595    1.730150    1.424138
     16          6           0       -4.432997    1.568749    0.098904
     17          6           0       -3.947182    0.510349   -0.674609
     18          6           0       -3.041021   -0.371960   -0.088353
     19          6           0       -2.606123   -0.237781    1.229276
     20          6           0       -3.105096    0.827960    1.984108
     21          1           0       -4.398099    2.555191    2.017766
     22          1           0       -5.140011    2.267870   -0.338597
     23          1           0       -4.253526    0.361902   -1.702973
     24          1           0       -1.900369   -0.950842    1.637777
     25          1           0       -2.779177    0.950842    3.013050
     26          7           0       -2.519746   -1.496326   -0.897348
     27          8           0       -1.722236   -2.260012   -0.357536
     28          8           0       -2.918552   -1.592628   -2.055932
 ---------------------------------------------------------------------

 SCF Done:  E(RHF) =  -868.340159819     A.U. after   16 cycles
 E2 =    -0.2598839492D+01 EUMP2 =    -0.87093899931103D+03

 The electronic state is 1-A.
 Alpha  occ. eigenvalues --  -20.61432 -20.61345 -20.60467 -20.60461 -15.86416
 Alpha  occ. eigenvalues --  -15.85510 -11.31466 -11.30728 -11.28038 -11.27962
 Alpha  occ. eigenvalues --  -11.27664 -11.27302 -11.27182 -11.26955 -11.26953
 Alpha  occ. eigenvalues --  -11.26910 -11.26313 -11.26060  -1.60448  -1.59545
 Alpha  occ. eigenvalues --   -1.40014  -1.39102  -1.19602  -1.18869  -1.09054
 Alpha  occ. eigenvalues --   -1.08295  -1.04961  -1.04219  -0.95944  -0.95159
 Alpha  occ. eigenvalues --   -0.86379  -0.85631  -0.82796  -0.81970  -0.77883
 Alpha  occ. eigenvalues --   -0.77038  -0.72646  -0.71765  -0.71723  -0.70866
 Alpha  occ. eigenvalues --   -0.70713  -0.69980  -0.65265  -0.64965  -0.64505
 Alpha  occ. eigenvalues --   -0.64181  -0.62324  -0.61542  -0.55469  -0.54746
 Alpha  occ. eigenvalues --   -0.53293  -0.53057  -0.52600  -0.52271  -0.49417
 Alpha  occ. eigenvalues --   -0.49355  -0.48496  -0.48475  -0.45480  -0.44539
 Alpha  occ. eigenvalues --   -0.37550  -0.36866  -0.36540  -0.35830
 Alpha virt. eigenvalues --    0.04613   0.05444   0.11096   0.11815   0.16152
 Alpha virt. eigenvalues --    0.16973   0.21118   0.22073   0.26893   0.27483
 Alpha virt. eigenvalues --    0.28546   0.28709   0.30863   0.31564   0.32576

 Mulliken charges:
               1
     1  C   -0.172148
     2  C   -0.218653
     3  C   -0.172920
     4  C    0.158267
     5  C   -0.173622
     6  C   -0.226225
     7  H    0.225079
     8  H    0.221178
     9  H    0.273246
    10  H    0.275256
    11  H    0.243827
    12  N    0.487997
    13  O   -0.461818
    14  O   -0.462504
    15  C   -0.168634
    16  C   -0.217262
    17  C   -0.168555
    18  C    0.157770
    19  C   -0.171417
    20  C   -0.216867
    21  H    0.227835
    22  H    0.225789
    23  H    0.276930
    24  H    0.270899
    25  H    0.224437
    26  N    0.489938
    27  O   -0.474299
    28  O   -0.453526
 Sum of Mulliken charges =  -0.00000

 Dipole moment (field-independent basis, Debye):
    X=             -1.6314    Y=             -0.7953    Z=              4.7769  Tot=              5.1101
 Quadrupole moment (field-independent basis, Debye-Ang):
   XX=            -84.4941   YY=           -112.1478   ZZ=           -103.3340
   XY=            -26.7694   XZ=              1.4305   YZ=             -0.7398

 Normal termination of Gaussian 16 at Thu May  6 01:52:22 2021.
