 Gaussian 16, Revision A.03,
 Gaussian 16:  EM64L-G16RevA.03 25-Dec-2016

 -------------
 #p 6-31g* mp2
 -------------

 ------------------------------------------------------
 Input file generated by CHIRIPA (05-May-2021 14:57:25)
 ------------------------------------------------------
 Symbolic Z-matrix:
 Charge =  0 Multiplicity = 1

                         Standard orientation:
 ---------------------------------------------------------------------
 Center     Atomic      Atomic             Coordinates (Angstroms)
 Number     Number       Type             X           Y           Z
 ---------------------------------------------------------------------
      1          6           0        4.827165    1.574008   -0.622360
      2          6           0        5.264180    0.339465   -0.130994
      3          6           0        4.345111   -0.668869    0.174169
      4          6           0        2.990408   -0.407359   -0.025038
      5          6           0        2.523881    0.812253   -0.513083
      6          6           0        3.460819    1.806053   -0.811503
      7          1           0        5.548061    2.351661   -0.856799
      8          1           0        6.324689    0.156452    0.016892
      9          1           0        4.655974   -1.633783    0.555904
     10          1           0        1.460259    0.965143   -0.650018
     11          1           0        3.118550    2.763855   -1.192964
     12          7           0        2.007972   -1.467144    0.294456
     13          8           0        0.819926   -1.211809    0.110102
     14          8           0        2.444588   -2.533071    0.723178
     15          6           0       -3.736107   -2.076893   -0.753526
     16          6           0       -4.282117   -0.949909   -1.376664
     17          6           0       -3.965668    0.334617   -0.924557
     18          6           0       -3.095888    0.455977    0.158053
     19          6           0       -2.535690   -0.647449    0.799864
     20          6           0       -2.866170   -1.922340    0.330837
     21          1           0       -3.987383   -3.071001   -1.111305
     22          1           0       -4.958003   -1.066920   -2.219001
     23          1           0       -4.374080    1.224224   -1.388472
     24          1           0       -1.864896   -0.499009    1.637371
     25          1           0       -2.440634   -2.795775    0.816712
     26          7           0       -2.753450    1.810746    0.645635
     27          8           0       -1.984671    1.890818    1.601253
     28          8           0       -3.260309    2.766889    0.062951
 ---------------------------------------------------------------------

 SCF Done:  E(RHF) =  -868.340035472     A.U. after   16 cycles
 E2 =    -0.2598965700D+01 EUMP2 =    -0.87093900117243D+03

 The electronic state is 1-A.
 Alpha  occ. eigenvalues --  -20.61060 -20.61042 -20.60208 -20.60199 -15.86080
 Alpha  occ. eigenvalues --  -15.85243 -11.31172 -11.30252 -11.27744 -11.27673
 Alpha  occ. eigenvalues --  -11.27427 -11.26889 -11.26705 -11.26683 -11.26634
 Alpha  occ. eigenvalues --  -11.26526 -11.25853 -11.25618  -1.60124  -1.59292
 Alpha  occ. eigenvalues --   -1.39684  -1.38851  -1.19327  -1.18412  -1.08779
 Alpha  occ. eigenvalues --   -1.07890  -1.04685  -1.03741  -0.95659  -0.94774
 Alpha  occ. eigenvalues --   -0.86100  -0.85181  -0.82500  -0.81605  -0.77570
 Alpha  occ. eigenvalues --   -0.76681  -0.72333  -0.71477  -0.71421  -0.70612
 Alpha  occ. eigenvalues --   -0.70440  -0.69544  -0.64986  -0.64689  -0.64068
 Alpha  occ. eigenvalues --   -0.63758  -0.62032  -0.61094  -0.55214  -0.54321
 Alpha  occ. eigenvalues --   -0.53034  -0.52775  -0.52106  -0.51842  -0.49083
 Alpha  occ. eigenvalues --   -0.49058  -0.48240  -0.48201  -0.45146  -0.44333
 Alpha  occ. eigenvalues --   -0.37303  -0.36416  -0.36272  -0.35273
 Alpha virt. eigenvalues --    0.04924   0.05818   0.11383   0.12333   0.16475
 Alpha virt. eigenvalues --    0.17364   0.21527   0.22408   0.27467   0.28260
 Alpha virt. eigenvalues --    0.28472   0.29252   0.31076   0.31906   0.32564

 Mulliken charges:
               1
     1  C   -0.170049
     2  C   -0.218855
     3  C   -0.170979
     4  C    0.157002
     5  C   -0.168062
     6  C   -0.218554
     7  H    0.226380
     8  H    0.223168
     9  H    0.274309
    10  H    0.278371
    11  H    0.227110
    12  N    0.491606
    13  O   -0.468441
    14  O   -0.461902
    15  C   -0.171569
    16  C   -0.219763
    17  C   -0.173547
    18  C    0.151887
    19  C   -0.155360
    20  C   -0.212314
    21  H    0.223199
    22  H    0.218917
    23  H    0.270628
    24  H    0.278711
    25  H    0.229419
    26  N    0.487203
    27  O   -0.462736
    28  O   -0.465778
 Sum of Mulliken charges =  -0.00000

 Dipole moment (field-independent basis, Debye):
    X=              2.5497    Y=             -1.1639    Z=             -2.7559  Tot=              3.9307
 Quadrupole moment (field-independent basis, Debye-Ang):
   XX=            -73.8734   YY=           -110.5474   ZZ=           -103.7497
   XY=             21.2442   XZ=              4.8102   YZ=             -4.0404

 Normal termination of Gaussian 16 at Fri May  7 01:55:51 2021.
