 Gaussian 16, Revision A.03,
 Gaussian 16:  EM64L-G16RevA.03 25-Dec-2016

 -------------
 #p 6-31g* mp2
 -------------

 ------------------------------------------------------
 Input file generated by CHIRIPA (05-May-2021 14:51:09)
 ------------------------------------------------------
 Symbolic Z-matrix:
 Charge =  0 Multiplicity = 1

                         Standard orientation:
 ---------------------------------------------------------------------
 Center     Atomic      Atomic             Coordinates (Angstroms)
 Number     Number       Type             X           Y           Z
 ---------------------------------------------------------------------
      1          6           0        4.081418   -0.347281   -0.015233
      2          6           0        5.149979    0.685199   -0.375991
      3          6           0        6.451314    0.044768   -0.859901
      4          1           0        4.474391   -1.015662    0.763089
      5          1           0        3.877534   -0.975772   -0.893200
      6          1           0        5.350789    1.312446    0.501991
      7          1           0        4.754348    1.351318   -1.153408
      8          1           0        6.272107   -0.566088   -1.750598
      9          1           0        6.871937   -0.605181   -0.085793
     10          1           0        7.201250    0.800894   -1.112348
     11          6           0        2.774678    0.277584    0.470259
     12          6           0        1.706117   -0.754896    0.831018
     13          6           0        0.404781   -0.114466    1.314928
     14          1           0        2.978562    0.906074    1.348226
     15          1           0        2.381705    0.945964   -0.308062
     16          1           0        2.101748   -1.421015    1.608435
     17          1           0        1.505307   -1.382143   -0.046965
     18          1           0       -0.015842    0.535483    0.540820
     19          1           0        0.583988    0.496390    2.205625
     20          1           0       -0.345155   -0.870592    1.567375
     21          6           0       -3.039721   -0.620049   -0.166331
     22          6           0       -3.900829   -1.860381   -0.407281
     23          6           0       -3.109793   -3.162769   -0.281413
     24          1           0       -2.206451   -0.615267   -0.882280
     25          1           0       -2.591243   -0.682443    0.834852
     26          1           0       -4.348656   -1.795000   -1.407177
     27          1           0       -4.732255   -1.862111    0.309200
     28          1           0       -2.675791   -3.254699    0.719482
     29          1           0       -2.290013   -3.187207   -1.006647
     30          1           0       -3.744682   -4.036713   -0.457478
     31          6           0       -3.816375    0.689747   -0.288695
     32          6           0       -2.955267    1.930078   -0.047746
     33          6           0       -3.746302    3.232466   -0.173614
     34          1           0       -4.264853    0.752141   -1.289879
     35          1           0       -4.649645    0.684964    0.427254
     36          1           0       -2.123841    1.931809   -0.764227
     37          1           0       -2.507439    1.864697    0.952150
     38          1           0       -4.566083    3.256904    0.551620
     39          1           0       -4.180305    3.324397   -1.174509
     40          1           0       -3.111414    4.106410    0.002451
 ---------------------------------------------------------------------

 SCF Done:  E(RHF) =  -470.732241620     A.U. after   11 cycles
 E2 =    -0.1583710564D+01 EUMP2 =    -0.47231595218383D+03

 The electronic state is 1-A.
 Alpha  occ. eigenvalues --  -11.21586 -11.21575 -11.21564 -11.21537 -11.21376
 Alpha  occ. eigenvalues --  -11.21351 -11.21315 -11.21260 -11.21074 -11.21060
 Alpha  occ. eigenvalues --  -11.21053 -11.20916  -1.08423  -1.08370  -1.03509
 Alpha  occ. eigenvalues --   -1.03485  -0.95995  -0.95898  -0.87004  -0.86932
 Alpha  occ. eigenvalues --   -0.79590  -0.79574  -0.78278  -0.78112  -0.65042
 Alpha  occ. eigenvalues --   -0.65021  -0.60911  -0.60887  -0.59422  -0.59243
 Alpha  occ. eigenvalues --   -0.57623  -0.57490  -0.55248  -0.55228  -0.52785
 Alpha  occ. eigenvalues --   -0.52635  -0.52391  -0.52253  -0.49902  -0.49892
 Alpha  occ. eigenvalues --   -0.48036  -0.47718  -0.46664  -0.46594  -0.45845
 Alpha  occ. eigenvalues --   -0.45702  -0.45685  -0.45484  -0.43764  -0.43626
 Alpha virt. eigenvalues --    0.21789   0.23094   0.23616   0.24215   0.25537
 Alpha virt. eigenvalues --    0.26091   0.26996   0.27518   0.27946   0.29715
 Alpha virt. eigenvalues --    0.30419   0.30805   0.31628   0.31872   0.32492

 Mulliken charges:
               1
     1  C   -0.298181
     2  C   -0.299584
     3  C   -0.475671
     4  H    0.149637
     5  H    0.149344
     6  H    0.151894
     7  H    0.151802
     8  H    0.155118
     9  H    0.155174
    10  H    0.160176
    11  C   -0.298438
    12  C   -0.300059
    13  C   -0.479979
    14  H    0.149428
    15  H    0.149254
    16  H    0.151400
    17  H    0.151536
    18  H    0.161003
    19  H    0.153072
    20  H    0.162205
    21  C   -0.301302
    22  C   -0.299547
    23  C   -0.475827
    24  H    0.149364
    25  H    0.155566
    26  H    0.151480
    27  H    0.151586
    28  H    0.154503
    29  H    0.155037
    30  H    0.160395
    31  C   -0.297885
    32  C   -0.301797
    33  C   -0.475612
    34  H    0.148923
    35  H    0.149298
    36  H    0.151022
    37  H    0.155311
    38  H    0.155190
    39  H    0.154955
    40  H    0.160209
 Sum of Mulliken charges =  -0.00000

 Dipole moment (field-independent basis, Debye):
    X=             -0.0232    Y=              0.0085    Z=              0.0129  Tot=              0.0279
 Quadrupole moment (field-independent basis, Debye-Ang):
   XX=            -85.9828   YY=            -86.0135   ZZ=            -83.0066
   XY=              0.7393   XZ=              0.3657   YZ=             -0.1088

 Normal termination of Gaussian 16 at Wed May  5 22:59:41 2021.
