 Gaussian 16, Revision A.03,
 Gaussian 16:  EM64L-G16RevA.03 25-Dec-2016

 -------------
 #p 6-31g* mp2
 -------------

 ------------------------------------------------------
 Input file generated by CHIRIPA (05-May-2021 14:55:25)
 ------------------------------------------------------
 Symbolic Z-matrix:
 Charge =  0 Multiplicity = 1

                         Standard orientation:
 ---------------------------------------------------------------------
 Center     Atomic      Atomic             Coordinates (Angstroms)
 Number     Number       Type             X           Y           Z
 ---------------------------------------------------------------------
      1          6           0       -2.608490    2.689559    0.038296
      2          6           0       -1.732548    2.017842   -0.820798
      3          6           0       -1.823538    0.632632   -0.986513
      4          6           0       -2.806746   -0.052558   -0.274398
      5          6           0       -3.694086    0.588219    0.588922
      6          6           0       -3.584742    1.973865    0.739179
      7          1           0       -2.530678    3.765793    0.161024
      8          1           0       -0.973403    2.571081   -1.366390
      9          1           0       -1.158311    0.087489   -1.645080
     10          1           0       -4.440564    0.009559    1.119338
     11          1           0       -4.266362    2.492896    1.407046
     12          7           0       -2.912788   -1.519249   -0.441651
     13          8           0       -3.787670   -2.099969    0.197085
     14          8           0       -2.119013   -2.060350   -1.208311
     15          6           0        4.124553    0.280625    0.261960
     16          6           0        5.392862   -0.247503   -0.409203
     17          6           0        6.492601    0.809962   -0.509874
     18          1           0        3.752068    1.146496   -0.302369
     19          1           0        4.375332    0.647007    1.267082
     20          1           0        5.139513   -0.614050   -1.412235
     21          1           0        5.762264   -1.112336    0.156680
     22          1           0        6.773911    1.169162    0.485335
     23          1           0        6.147622    1.670278   -1.092494
     24          1           0        7.390110    0.411074   -0.992809
     25          6           0        3.015975   -0.764900    0.369932
     26          6           0        1.747666   -0.236772    1.041095
     27          6           0        0.647926   -1.294237    1.141766
     28          1           0        2.765196   -1.131282   -0.635190
     29          1           0        3.388459   -1.630771    0.934260
     30          1           0        1.378264    0.628060    0.475212
     31          1           0        2.001014    0.129775    2.044128
     32          1           0        0.992905   -2.154553    1.724385
     33          1           0        0.366616   -1.653436    0.146557
     34          1           0       -0.249583   -0.895349    1.624701
 ---------------------------------------------------------------------

 SCF Done:  E(RHF) =  -669.535753256     A.U. after   15 cycles
 E2 =    -0.2093079926D+01 EUMP2 =    -0.67162883318235D+03

 The electronic state is 1-A.
 Alpha  occ. eigenvalues --  -20.60861 -20.60856 -15.85884 -11.31228 -11.27814
 Alpha  occ. eigenvalues --  -11.27809 -11.27548 -11.26826 -11.26811 -11.21638
 Alpha  occ. eigenvalues --  -11.21526 -11.21444 -11.21312 -11.21146 -11.20646
 Alpha  occ. eigenvalues --   -1.59913  -1.39472  -1.19414  -1.08808  -1.08414
 Alpha  occ. eigenvalues --   -1.04818  -1.03468  -0.95906  -0.95641  -0.86918
 Alpha  occ. eigenvalues --   -0.86209  -0.82485  -0.79537  -0.78227  -0.77535
 Alpha  occ. eigenvalues --   -0.72118  -0.71227  -0.70523  -0.65076  -0.65057
 Alpha  occ. eigenvalues --   -0.64814  -0.62180  -0.60861  -0.59297  -0.57525
 Alpha  occ. eigenvalues --   -0.55338  -0.55174  -0.53186  -0.52906  -0.52532
 Alpha  occ. eigenvalues --   -0.52283  -0.49855  -0.48871  -0.48866  -0.47843
 Alpha  occ. eigenvalues --   -0.46602  -0.45775  -0.45720  -0.44756  -0.43739
 Alpha  occ. eigenvalues --   -0.37363  -0.36396
 Alpha virt. eigenvalues --    0.04955   0.11208   0.16403   0.20963   0.22874
 Alpha virt. eigenvalues --    0.24170   0.26334   0.27248   0.27676   0.27819
 Alpha virt. eigenvalues --    0.28464   0.30636   0.31457   0.31544   0.31981

 Mulliken charges:
               1
     1  C   -0.170560
     2  C   -0.219191
     3  C   -0.167194
     4  C    0.159513
     5  C   -0.171907
     6  C   -0.218547
     7  H    0.225936
     8  H    0.223609
     9  H    0.275115
    10  H    0.275859
    11  H    0.223681
    12  N    0.489860
    13  O   -0.459192
    14  O   -0.459897
    15  C   -0.297246
    16  C   -0.299673
    17  C   -0.475514
    18  H    0.145106
    19  H    0.149326
    20  H    0.152279
    21  H    0.153310
    22  H    0.155049
    23  H    0.153516
    24  H    0.160817
    25  C   -0.298428
    26  C   -0.299592
    27  C   -0.485466
    28  H    0.150126
    29  H    0.151920
    30  H    0.143162
    31  H    0.150555
    32  H    0.157039
    33  H    0.170612
    34  H    0.156018
 Sum of Mulliken charges =  -0.00000

 Dipole moment (field-independent basis, Debye):
    X=              0.2652    Y=              5.0705    Z=              0.5608  Tot=              5.1083
 Quadrupole moment (field-independent basis, Debye-Ang):
   XX=            -94.8802   YY=            -96.0934   ZZ=            -92.7800
   XY=            -15.4821   XZ=             -4.1907   YZ=             -1.6886

 Normal termination of Gaussian 16 at Thu May  6 14:25:12 2021.
