 Gaussian 16, Revision A.03,
 Gaussian 16:  EM64L-G16RevA.03 25-Dec-2016

 -------------
 #p 6-31g* mp2
 -------------

 ------------------------------------------------------
 Input file generated by CHIRIPA (05-May-2021 14:57:21)
 ------------------------------------------------------
 Symbolic Z-matrix:
 Charge =  0 Multiplicity = 1

                         Standard orientation:
 ---------------------------------------------------------------------
 Center     Atomic      Atomic             Coordinates (Angstroms)
 Number     Number       Type             X           Y           Z
 ---------------------------------------------------------------------
      1          6           0       -4.025360    1.613366   -1.012950
      2          6           0       -2.895396    1.059126   -1.623293
      3          6           0       -2.199127    0.012679   -1.011161
      4          6           0       -2.662666   -0.457225    0.216687
      5          6           0       -3.785145    0.074119    0.849937
      6          6           0       -4.465852    1.119963    0.219545
      7          1           0       -4.560194    2.426038   -1.495561
      8          1           0       -2.551023    1.440304   -2.580453
      9          1           0       -1.321405   -0.434801   -1.461477
     10          1           0       -4.104394   -0.326992    1.804195
     11          1           0       -5.343089    1.548464    0.695871
     12          7           0       -1.933795   -1.564733    0.874389
     13          8           0       -2.362469   -1.960876    1.956030
     14          8           0       -0.947632   -2.015684    0.295802
     15          6           0        2.698639    2.556864    0.964344
     16          6           0        1.730027    2.188886    0.024714
     17          6           0        1.766826    0.926997   -0.575978
     18          6           0        2.790929    0.054062   -0.211988
     19          6           0        3.770404    0.391373    0.720824
     20          6           0        3.713946    1.658516    1.308793
     21          1           0        2.662417    3.539170    1.426034
     22          1           0        0.940368    2.884508   -0.244714
     23          1           0        1.029686    0.616253   -1.306376
     24          1           0        4.545368   -0.323608    0.969126
     25          1           0        4.467517    1.941582    2.038210
     26          7           0        2.840292   -1.284625   -0.841179
     27          8           0        3.752835   -2.035488   -0.503383
     28          8           0        1.965505   -1.557674   -1.660221
 ---------------------------------------------------------------------

 SCF Done:  E(RHF) =  -868.336528647     A.U. after   16 cycles
 E2 =    -0.2601558378D+01 EUMP2 =    -0.87093808702552D+03

 The electronic state is 1-A.
 Alpha  occ. eigenvalues --  -20.60645 -20.60601 -20.60286 -20.60242 -15.85680
 Alpha  occ. eigenvalues --  -15.85317 -11.31311 -11.30893 -11.27900 -11.27893
 Alpha  occ. eigenvalues --  -11.27696 -11.27570 -11.27449 -11.27275 -11.26999
 Alpha  occ. eigenvalues --  -11.26963 -11.26605 -11.26528  -1.59706  -1.59305
 Alpha  occ. eigenvalues --   -1.39246  -1.38864  -1.19510  -1.19081  -1.08854
 Alpha  occ. eigenvalues --   -1.08432  -1.04955  -1.04537  -0.95644  -0.95242
 Alpha  occ. eigenvalues --   -0.86333  -0.85922  -0.82468  -0.82086  -0.77499
 Alpha  occ. eigenvalues --   -0.77078  -0.71899  -0.71544  -0.71052  -0.70631
 Alpha  occ. eigenvalues --   -0.70572  -0.70203  -0.65149  -0.64970  -0.64746
 Alpha  occ. eigenvalues --   -0.64550  -0.62351  -0.61834  -0.55436  -0.55034
 Alpha  occ. eigenvalues --   -0.53277  -0.53064  -0.52817  -0.52612  -0.48684
 Alpha  occ. eigenvalues --   -0.48643  -0.48310  -0.48276  -0.44619  -0.44185
 Alpha  occ. eigenvalues --   -0.37506  -0.37050  -0.36605  -0.36108
 Alpha virt. eigenvalues --    0.05007   0.05485   0.10977   0.11565   0.16464
 Alpha virt. eigenvalues --    0.16926   0.20265   0.21985   0.25491   0.27644
 Alpha virt. eigenvalues --    0.27829   0.29409   0.30267   0.31314   0.31927

 Mulliken charges:
               1
     1  C   -0.171784
     2  C   -0.222125
     3  C   -0.183248
     4  C    0.159551
     5  C   -0.171028
     6  C   -0.218576
     7  H    0.225222
     8  H    0.222569
     9  H    0.286832
    10  H    0.276410
    11  H    0.223658
    12  N    0.486445
    13  O   -0.462043
    14  O   -0.451631
    15  C   -0.171159
    16  C   -0.219384
    17  C   -0.167021
    18  C    0.163579
    19  C   -0.169567
    20  C   -0.218044
    21  H    0.223772
    22  H    0.219182
    23  H    0.266889
    24  H    0.276571
    25  H    0.223006
    26  N    0.491369
    27  O   -0.459741
    28  O   -0.459705
 Sum of Mulliken charges =  -0.00000

 Dipole moment (field-independent basis, Debye):
    X=             -2.6702    Y=              8.3514    Z=             -0.0311  Tot=              8.7679
 Quadrupole moment (field-independent basis, Debye-Ang):
   XX=            -87.1135   YY=           -109.0648   ZZ=           -103.5185
   XY=              2.5727   XZ=             11.7435   YZ=              0.6406

 Normal termination of Gaussian 16 at Thu May  6 03:18:27 2021.
