 Gaussian 16, Revision A.03,
 Gaussian 16:  EM64L-G16RevA.03 25-Dec-2016

 -------------
 #p 6-31g* mp2
 -------------

 ------------------------------------------------------
 Input file generated by CHIRIPA (05-May-2021 14:57:22)
 ------------------------------------------------------
 Symbolic Z-matrix:
 Charge =  0 Multiplicity = 1

                         Standard orientation:
 ---------------------------------------------------------------------
 Center     Atomic      Atomic             Coordinates (Angstroms)
 Number     Number       Type             X           Y           Z
 ---------------------------------------------------------------------
      1          6           0       -1.936952    2.589943    0.902941
      2          6           0       -2.026068    2.443331   -0.485253
      3          6           0       -2.096820    1.171674   -1.061820
      4          6           0       -2.075930    0.063346   -0.216561
      5          6           0       -1.987836    0.176770    1.170041
      6          6           0       -1.918154    1.458189    1.724709
      7          1           0       -1.882405    3.581588    1.342327
      8          1           0       -2.040867    3.320484   -1.125901
      9          1           0       -2.166424    1.029364   -2.133418
     10          1           0       -1.975190   -0.716395    1.782833
     11          1           0       -1.849009    1.569030    2.803124
     12          7           0       -2.150266   -1.288068   -0.815355
     13          8           0       -2.130084   -2.248654   -0.048866
     14          8           0       -2.227305   -1.361131   -2.039840
     15          6           0        1.044253   -2.256246    1.320005
     16          6           0        1.365120   -1.093594    2.028387
     17          6           0        1.930346    0.004153    1.372627
     18          6           0        2.162232   -0.095607    0.001655
     19          6           0        1.853514   -1.240157   -0.731822
     20          6           0        1.289042   -2.325694   -0.055413
     21          1           0        0.605465   -3.104260    1.837435
     22          1           0        1.176124   -1.036832    3.096611
     23          1           0        2.188429    0.916442    1.896593
     24          1           0        2.053612   -1.266951   -1.796087
     25          1           0        1.040867   -3.227347   -0.608113
     26          7           0        2.760213    1.060066   -0.703499
     27          8           0        2.954629    0.947027   -1.911829
     28          8           0        3.023169    2.057038   -0.034516
 ---------------------------------------------------------------------

 SCF Done:  E(RHF) =  -868.339163953     A.U. after   16 cycles
 E2 =    -0.2604233344D+01 EUMP2 =    -0.87094339729727D+03

 The electronic state is 1-A.
 Alpha  occ. eigenvalues --  -20.61214 -20.61184 -20.60718 -20.60693 -15.86213
 Alpha  occ. eigenvalues --  -15.85757 -11.31329 -11.30967 -11.27960 -11.27855
 Alpha  occ. eigenvalues --  -11.27606 -11.27586 -11.27438 -11.27154 -11.26890
 Alpha  occ. eigenvalues --  -11.26777 -11.26580 -11.26305  -1.60258  -1.59788
 Alpha  occ. eigenvalues --   -1.39826  -1.39345  -1.19503  -1.19127  -1.08929
 Alpha  occ. eigenvalues --   -1.08529  -1.04881  -1.04502  -0.95815  -0.95386
 Alpha  occ. eigenvalues --   -0.86283  -0.85889  -0.82673  -0.82224  -0.77750
 Alpha  occ. eigenvalues --   -0.77312  -0.72481  -0.71979  -0.71587  -0.71103
 Alpha  occ. eigenvalues --   -0.70611  -0.70171  -0.65160  -0.64889  -0.64758
 Alpha  occ. eigenvalues --   -0.64476  -0.62248  -0.61841  -0.55378  -0.54938
 Alpha  occ. eigenvalues --   -0.53569  -0.52983  -0.52567  -0.52481  -0.49238
 Alpha  occ. eigenvalues --   -0.49200  -0.48741  -0.48720  -0.45316  -0.44789
 Alpha  occ. eigenvalues --   -0.37452  -0.37187  -0.36669  -0.35668
 Alpha virt. eigenvalues --    0.04734   0.05260   0.11051   0.11657   0.16040
 Alpha virt. eigenvalues --    0.17037   0.20956   0.22020   0.26834   0.27911
 Alpha virt. eigenvalues --    0.27996   0.28934   0.30785   0.31472   0.32332

 Mulliken charges:
               1
     1  C   -0.168133
     2  C   -0.217650
     3  C   -0.170872
     4  C    0.157627
     5  C   -0.162418
     6  C   -0.221700
     7  H    0.228059
     8  H    0.227549
     9  H    0.277224
    10  H    0.268036
    11  H    0.219735
    12  N    0.489606
    13  O   -0.467892
    14  O   -0.459578
    15  C   -0.163720
    16  C   -0.226216
    17  C   -0.168402
    18  C    0.157984
    19  C   -0.177485
    20  C   -0.216282
    21  H    0.230516
    22  H    0.217243
    23  H    0.270790
    24  H    0.277869
    25  H    0.234866
    26  N    0.488223
    27  O   -0.460237
    28  O   -0.464742
 Sum of Mulliken charges =  -0.00000

 Dipole moment (field-independent basis, Debye):
    X=             -1.9257    Y=              0.5904    Z=              4.4065  Tot=              4.8450
 Quadrupole moment (field-independent basis, Debye-Ang):
   XX=           -117.1531   YY=           -101.3990   ZZ=            -98.3815
   XY=            -19.2348   XZ=              1.3037   YZ=             -0.7921

 Normal termination of Gaussian 16 at Fri May  7 01:48:54 2021.
