 Gaussian 16, Revision A.03,
 Gaussian 16:  EM64L-G16RevA.03 25-Dec-2016

 -------------
 #p 6-31g* mp2
 -------------

 ------------------------------------------------------
 Input file generated by CHIRIPA (05-May-2021 14:51:12)
 ------------------------------------------------------
 Symbolic Z-matrix:
 Charge =  0 Multiplicity = 1

                         Standard orientation:
 ---------------------------------------------------------------------
 Center     Atomic      Atomic             Coordinates (Angstroms)
 Number     Number       Type             X           Y           Z
 ---------------------------------------------------------------------
      1          6           0       -1.897814   -1.013077    0.460321
      2          6           0       -1.752300   -1.162929    1.975034
      3          6           0       -0.713054   -2.213320    2.368026
      4          1           0       -2.173904   -1.984150    0.027036
      5          1           0       -0.923005   -0.744649    0.030103
      6          1           0       -2.727397   -1.429640    2.402429
      7          1           0       -1.476711   -0.191343    2.404786
      8          1           0        0.271599   -1.949208    1.968896
      9          1           0       -0.986193   -3.194541    1.966526
     10          1           0       -0.625243   -2.304079    3.455183
     11          6           0       -2.933097    0.033341    0.051756
     12          6           0       -3.078612    0.183194   -1.462957
     13          6           0       -4.117857    1.233585   -1.855949
     14          1           0       -3.907907   -0.235086    0.481974
     15          1           0       -2.657007    1.004415    0.485041
     16          1           0       -3.354200   -0.788392   -1.892709
     17          1           0       -2.103515    0.449905   -1.890352
     18          1           0       -3.844718    2.214805   -1.454449
     19          1           0       -5.102510    0.969472   -1.456819
     20          1           0       -4.205669    1.324343   -2.943107
     21          6           0        2.906696   -0.080205   -0.386924
     22          6           0        2.377157   -1.122773   -1.372128
     23          6           0        3.371249   -2.256908   -1.623748
     24          1           0        3.848219    0.334348   -0.772442
     25          1           0        3.148984   -0.574400    0.564110
     26          1           0        2.134640   -0.626524   -2.320568
     27          1           0        1.436686   -1.534756   -0.984313
     28          1           0        3.605620   -2.778022   -0.689879
     29          1           0        4.307538   -1.864631   -2.033726
     30          1           0        2.972395   -2.990852   -2.330928
     31          6           0        1.924215    1.059941   -0.125153
     32          6           0        2.453754    2.102508    0.860051
     33          6           0        1.459663    3.236643    1.111671
     34          1           0        1.681927    1.554135   -1.076186
     35          1           0        0.982692    0.645387    0.260364
     36          1           0        3.394225    2.514491    0.472236
     37          1           0        2.696272    1.606260    1.808492
     38          1           0        0.523373    2.844366    1.521649
     39          1           0        1.225291    3.757758    0.177802
     40          1           0        1.858516    3.970588    1.818850
 ---------------------------------------------------------------------

 SCF Done:  E(RHF) =  -470.733207938     A.U. after   11 cycles
 E2 =    -0.1584203268D+01 EUMP2 =    -0.47231741120628D+03

 The electronic state is 1-A.
 Alpha  occ. eigenvalues --  -11.21662 -11.21661 -11.21625 -11.21584 -11.21464
 Alpha  occ. eigenvalues --  -11.21410 -11.21404 -11.21350 -11.21149 -11.21140
 Alpha  occ. eigenvalues --  -11.21082 -11.21056  -1.08514  -1.08430  -1.03574
 Alpha  occ. eigenvalues --   -1.03555  -0.96030  -0.96001  -0.87046  -0.87017
 Alpha  occ. eigenvalues --   -0.79642  -0.79614  -0.78434  -0.78150  -0.65375
 Alpha  occ. eigenvalues --   -0.64861  -0.60973  -0.60949  -0.59402  -0.59361
 Alpha  occ. eigenvalues --   -0.57656  -0.57597  -0.55346  -0.55271  -0.52723
 Alpha  occ. eigenvalues --   -0.52695  -0.52458  -0.52425  -0.50034  -0.49897
 Alpha  occ. eigenvalues --   -0.47985  -0.47924  -0.46757  -0.46664  -0.46335
 Alpha  occ. eigenvalues --   -0.45795  -0.45772  -0.45069  -0.43831  -0.43803
 Alpha virt. eigenvalues --    0.19141   0.22547   0.23917   0.24395   0.25406
 Alpha virt. eigenvalues --    0.26376   0.26664   0.27978   0.28454   0.30402
 Alpha virt. eigenvalues --    0.30840   0.31570   0.31642   0.31832   0.32244

 Mulliken charges:
               1
     1  C   -0.309550
     2  C   -0.299707
     3  C   -0.477469
     4  H    0.149888
     5  H    0.160004
     6  H    0.152615
     7  H    0.151280
     8  H    0.155300
     9  H    0.155727
    10  H    0.160702
    11  C   -0.297927
    12  C   -0.299969
    13  C   -0.475803
    14  H    0.149629
    15  H    0.149592
    16  H    0.151810
    17  H    0.152872
    18  H    0.155414
    19  H    0.155053
    20  H    0.160187
    21  C   -0.298179
    22  C   -0.305195
    23  C   -0.475526
    24  H    0.150105
    25  H    0.149484
    26  H    0.151804
    27  H    0.157050
    28  H    0.155413
    29  H    0.155191
    30  H    0.160557
    31  C   -0.306590
    32  C   -0.299102
    33  C   -0.475865
    34  H    0.149361
    35  H    0.156803
    36  H    0.152373
    37  H    0.152185
    38  H    0.154423
    39  H    0.155312
    40  H    0.160749
 Sum of Mulliken charges =  -0.00000

 Dipole moment (field-independent basis, Debye):
    X=              0.0085    Y=             -0.0027    Z=             -0.0104  Tot=              0.0137
 Quadrupole moment (field-independent basis, Debye-Ang):
   XX=            -84.9604   YY=            -85.2561   ZZ=            -84.4509
   XY=              1.8349   XZ=             -0.4675   YZ=             -0.3459

 Normal termination of Gaussian 16 at Wed May  5 21:33:03 2021.
