 Gaussian 16, Revision A.03,
 Gaussian 16:  EM64L-G16RevA.03 25-Dec-2016

 -------------
 #p 6-31g* mp2
 -------------

 ------------------------------------------------------
 Input file generated by CHIRIPA (05-May-2021 14:51:08)
 ------------------------------------------------------
 Symbolic Z-matrix:
 Charge =  0 Multiplicity = 1

                         Standard orientation:
 ---------------------------------------------------------------------
 Center     Atomic      Atomic             Coordinates (Angstroms)
 Number     Number       Type             X           Y           Z
 ---------------------------------------------------------------------
      1          6           0       -5.127283   -0.103737    0.077574
      2          6           0       -5.597715   -1.551858   -0.062519
      3          6           0       -7.060124   -1.740115    0.342094
      4          1           0       -5.266155    0.221208    1.117800
      5          1           0       -5.765723    0.543222   -0.539868
      6          1           0       -4.957709   -2.196070    0.553922
      7          1           0       -5.457529   -1.873456   -1.102490
      8          1           0       -7.714726   -1.121388   -0.280219
      9          1           0       -7.212067   -1.445835    1.385604
     10          1           0       -7.375512   -2.782590    0.234223
     11          6           0       -3.667342    0.100430   -0.323196
     12          6           0       -3.196911    1.548551   -0.183102
     13          6           0       -1.734502    1.736808   -0.587716
     14          1           0       -3.028903   -0.546529    0.294246
     15          1           0       -3.528471   -0.224516   -1.363422
     16          1           0       -3.337097    1.870149    0.856868
     17          1           0       -3.836917    2.192762   -0.799544
     18          1           0       -1.582559    1.442528   -1.631226
     19          1           0       -1.079900    1.118081    0.034597
     20          1           0       -1.419114    2.779283   -0.479845
     21          6           0        4.064593    0.686583    0.062803
     22          6           0        2.623368    0.707399    0.573118
     23          6           0        1.971231    2.084521    0.446444
     24          1           0        4.655092    1.426211    0.620663
     25          1           0        4.078429    1.004519   -0.988920
     26          1           0        2.612094    0.388190    1.623163
     27          1           0        2.036277   -0.032498    0.014110
     28          1           0        1.953067    2.407426   -0.599502
     29          1           0        2.532157    2.830505    1.018695
     30          1           0        0.941437    2.076685    0.817016
     31          6           0        4.730033   -0.683276    0.182819
     32          6           0        6.171257   -0.704092   -0.327497
     33          6           0        6.823395   -2.081214   -0.200822
     34          1           0        4.716197   -1.001211    1.234542
     35          1           0        4.139534   -1.422903   -0.375042
     36          1           0        6.758349    0.035806    0.231513
     37          1           0        6.182531   -0.384882   -1.377542
     38          1           0        6.262469   -2.827198   -0.773072
     39          1           0        6.841559   -2.404119    0.845124
     40          1           0        7.853189   -2.073377   -0.571394
 ---------------------------------------------------------------------

 SCF Done:  E(RHF) =  -470.732794092     A.U. after   11 cycles
 E2 =    -0.1582469443D+01 EUMP2 =    -0.47231526353458D+03

 The electronic state is 1-A.
 Alpha  occ. eigenvalues --  -11.21603 -11.21590 -11.21577 -11.21544 -11.21406
 Alpha  occ. eigenvalues --  -11.21367 -11.21347 -11.21306 -11.21073 -11.21053
 Alpha  occ. eigenvalues --  -11.21039 -11.20908  -1.08432  -1.08385  -1.03545
 Alpha  occ. eigenvalues --   -1.03463  -0.96031  -0.95875  -0.87083  -0.86858
 Alpha  occ. eigenvalues --   -0.79639  -0.79498  -0.78243  -0.78202  -0.65068
 Alpha  occ. eigenvalues --   -0.65014  -0.60981  -0.60858  -0.59434  -0.59226
 Alpha  occ. eigenvalues --   -0.57638  -0.57514  -0.55307  -0.55174  -0.52905
 Alpha  occ. eigenvalues --   -0.52480  -0.52421  -0.52225  -0.49915  -0.49829
 Alpha  occ. eigenvalues --   -0.47934  -0.47824  -0.46609  -0.46578  -0.45783
 Alpha  occ. eigenvalues --   -0.45743  -0.45709  -0.45669  -0.43878  -0.43598
 Alpha virt. eigenvalues --    0.22179   0.22985   0.23541   0.24826   0.26503
 Alpha virt. eigenvalues --    0.26680   0.27123   0.27431   0.27642   0.29104
 Alpha virt. eigenvalues --    0.30617   0.31301   0.31490   0.31892   0.32252

 Mulliken charges:
               1
     1  C   -0.298253
     2  C   -0.299649
     3  C   -0.475704
     4  H    0.149648
     5  H    0.149558
     6  H    0.151927
     7  H    0.151904
     8  H    0.155187
     9  H    0.155188
    10  H    0.160252
    11  C   -0.298541
    12  C   -0.300099
    13  C   -0.478120
    14  H    0.149587
    15  H    0.149557
    16  H    0.151748
    17  H    0.151866
    18  H    0.154848
    19  H    0.158353
    20  H    0.161670
    21  C   -0.298102
    22  C   -0.300887
    23  C   -0.479099
    24  H    0.149602
    25  H    0.149562
    26  H    0.151150
    27  H    0.152119
    28  H    0.155268
    29  H    0.153693
    30  H    0.166216
    31  C   -0.298249
    32  C   -0.299616
    33  C   -0.475676
    34  H    0.149329
    35  H    0.149563
    36  H    0.151887
    37  H    0.151907
    38  H    0.155134
    39  H    0.155106
    40  H    0.160169
 Sum of Mulliken charges =  -0.00000

 Dipole moment (field-independent basis, Debye):
    X=             -0.0280    Y=              0.0107    Z=             -0.0095  Tot=              0.0315
 Quadrupole moment (field-independent basis, Debye-Ang):
   XX=            -86.2481   YY=            -85.6743   ZZ=            -83.0244
   XY=              0.2596   XZ=              0.8294   YZ=              0.1348

 Normal termination of Gaussian 16 at Thu May  6 03:40:38 2021.
