 Gaussian 16, Revision A.03,
 Gaussian 16:  EM64L-G16RevA.03 25-Dec-2016

 -------------
 #p 6-31g* mp2
 -------------

 ------------------------------------------------------
 Input file generated by CHIRIPA (05-May-2021 14:55:21)
 ------------------------------------------------------
 Symbolic Z-matrix:
 Charge =  0 Multiplicity = 1

                         Standard orientation:
 ---------------------------------------------------------------------
 Center     Atomic      Atomic             Coordinates (Angstroms)
 Number     Number       Type             X           Y           Z
 ---------------------------------------------------------------------
      1          6           0       -4.876070    0.967471    1.303894
      2          6           0       -3.622415    1.541215    1.067908
      3          6           0       -2.646885    0.844665    0.348389
      4          6           0       -2.960329   -0.429364   -0.122667
      5          6           0       -4.200140   -1.027944    0.096099
      6          6           0       -5.160430   -0.313020    0.818093
      7          1           0       -5.627965    1.515705    1.863794
      8          1           0       -3.398791    2.535499    1.443989
      9          1           0       -1.668199    1.265062    0.151268
     10          1           0       -4.393698   -2.020807   -0.291427
     11          1           0       -6.133180   -0.761089    0.999850
     12          7           0       -1.935646   -1.176497   -0.885699
     13          8           0       -2.236579   -2.297473   -1.290037
     14          8           0       -0.850969   -0.626977   -1.064977
     15          6           0        4.610483    0.268974    0.445670
     16          6           0        5.038018   -1.198113    0.499073
     17          6           0        6.249813   -1.428203    1.402624
     18          1           0        5.454079    0.877491    0.092120
     19          1           0        4.381008    0.614060    1.463341
     20          1           0        5.265288   -1.540721   -0.518564
     21          1           0        4.193246   -1.803232    0.852353
     22          1           0        6.031089   -1.113217    2.428072
     23          1           0        7.109222   -0.849214    1.049365
     24          1           0        6.538391   -2.483678    1.426179
     25          6           0        3.400292    0.514968   -0.453581
     26          6           0        2.972756    1.982056   -0.506983
     27          6           0        1.760961    2.212145   -1.410534
     28          1           0        3.629767    0.169883   -1.471251
     29          1           0        2.556695   -0.093548   -0.100031
     30          1           0        3.817528    2.587175   -0.860264
     31          1           0        2.745487    2.324664    0.510654
     32          1           0        0.901553    1.633157   -1.057275
     33          1           0        1.979685    1.897159   -2.435982
     34          1           0        1.472384    3.267621   -1.434090
 ---------------------------------------------------------------------

 SCF Done:  E(RHF) =  -669.536015881     A.U. after   15 cycles
 E2 =    -0.2091263252D+01 EUMP2 =    -0.67162727913237D+03

 The electronic state is 1-A.
 Alpha  occ. eigenvalues --  -20.60917 -20.60909 -15.85956 -11.31278 -11.27844
 Alpha  occ. eigenvalues --  -11.27839 -11.27580 -11.26851 -11.26841 -11.20994
 Alpha  occ. eigenvalues --  -11.20966 -11.20757 -11.20596 -11.20525 -11.20289
 Alpha  occ. eigenvalues --   -1.59981  -1.39538  -1.19448  -1.08851  -1.07749
 Alpha  occ. eigenvalues --   -1.04845  -1.02892  -0.95696  -0.95331  -0.86350
 Alpha  occ. eigenvalues --   -0.86245  -0.82529  -0.78960  -0.77618  -0.77493
 Alpha  occ. eigenvalues --   -0.72182  -0.71295  -0.70558  -0.65106  -0.64851
 Alpha  occ. eigenvalues --   -0.64382  -0.62198  -0.60294  -0.58709  -0.56934
 Alpha  occ. eigenvalues --   -0.55350  -0.54616  -0.53176  -0.52938  -0.52068
 Alpha  occ. eigenvalues --   -0.51734  -0.49322  -0.48927  -0.48875  -0.47251
 Alpha  occ. eigenvalues --   -0.45983  -0.45079  -0.45014  -0.44921  -0.43141
 Alpha  occ. eigenvalues --   -0.37427  -0.36446
 Alpha virt. eigenvalues --    0.04948   0.11208   0.16445   0.20798   0.23360
 Alpha virt. eigenvalues --    0.24343   0.26298   0.27430   0.27674   0.28357
 Alpha virt. eigenvalues --    0.29213   0.30428   0.31561   0.32256   0.32429

 Mulliken charges:
               1
     1  C   -0.170340
     2  C   -0.220173
     3  C   -0.171344
     4  C    0.156764
     5  C   -0.170517
     6  C   -0.218763
     7  H    0.225965
     8  H    0.224275
     9  H    0.279947
    10  H    0.275782
    11  H    0.223759
    12  N    0.493398
    13  O   -0.459150
    14  O   -0.467273
    15  C   -0.297945
    16  C   -0.299406
    17  C   -0.475323
    18  H    0.147054
    19  H    0.146128
    20  H    0.152814
    21  H    0.154208
    22  H    0.153344
    23  H    0.153775
    24  H    0.159430
    25  C   -0.300078
    26  C   -0.298549
    27  C   -0.486462
    28  H    0.151197
    29  H    0.160897
    30  H    0.148814
    31  H    0.145431
    32  H    0.173197
    33  H    0.158415
    34  H    0.150728
 Sum of Mulliken charges =  -0.00000

 Dipole moment (field-independent basis, Debye):
    X=             -3.8214    Y=              2.4742    Z=              2.6285  Tot=              5.2568
 Quadrupole moment (field-independent basis, Debye-Ang):
   XX=            -72.7065   YY=            -94.9983   ZZ=            -95.9603
   XY=             -3.5381   XZ=             -8.6748   YZ=             -0.7291

 Normal termination of Gaussian 16 at Thu May  6 09:20:05 2021.
