 Gaussian 16, Revision A.03,
 Gaussian 16:  EM64L-G16RevA.03 25-Dec-2016

 -------------
 #p 6-31g* mp2
 -------------

 ------------------------------------------------------
 Input file generated by CHIRIPA (05-May-2021 14:57:21)
 ------------------------------------------------------
 Symbolic Z-matrix:
 Charge =  0 Multiplicity = 1

                         Standard orientation:
 ---------------------------------------------------------------------
 Center     Atomic      Atomic             Coordinates (Angstroms)
 Number     Number       Type             X           Y           Z
 ---------------------------------------------------------------------
      1          6           0       -2.147432    1.713891    1.533703
      2          6           0       -2.301033    1.935605    0.161198
      3          6           0       -2.949773    0.993018   -0.642055
      4          6           0       -3.434830   -0.165401   -0.037015
      5          6           0       -3.297358   -0.415078    1.327556
      6          6           0       -2.645207    0.541325    2.111483
      7          1           0       -1.642150    2.451481    2.150183
      8          1           0       -1.915462    2.845325   -0.290231
      9          1           0       -3.082419    1.139269   -1.707153
     10          1           0       -3.692326   -1.331519    1.748926
     11          1           0       -2.527358    0.366477    3.177121
     12          7           0       -4.123428   -1.170588   -0.877154
     13          8           0       -4.541804   -2.183064   -0.319936
     14          8           0       -4.231735   -0.926945   -2.076964
     15          6           0        1.857808    1.998871   -0.578365
     16          6           0        1.347535    0.913604    0.141592
     17          6           0        2.149377   -0.199346    0.411665
     18          6           0        3.462830   -0.193534   -0.055344
     19          6           0        4.000165    0.872429   -0.775263
     20          6           0        3.180163    1.974862   -1.033691
     21          1           0        1.227865    2.859353   -0.783641
     22          1           0        0.320951    0.929499    0.496440
     23          1           0        1.779874   -1.053039    0.966729
     24          1           0        5.027454    0.827606   -1.115976
     25          1           0        3.579125    2.816279   -1.593059
     26          7           0        4.321317   -1.366199    0.224408
     27          8           0        5.475145   -1.336615   -0.198018
     28          8           0        3.824115   -2.292712    0.860805
 ---------------------------------------------------------------------

 SCF Done:  E(RHF) =  -868.336295354     A.U. after   16 cycles
 E2 =    -0.2602039298D+01 EUMP2 =    -0.87093833465159D+03

 The electronic state is 1-A.
 Alpha  occ. eigenvalues --  -20.61490 -20.61482 -20.60934 -20.60929 -15.86552
 Alpha  occ. eigenvalues --  -15.85985 -11.32200 -11.31412 -11.28824 -11.28766
 Alpha  occ. eigenvalues --  -11.28612 -11.27970 -11.27943 -11.27937 -11.27833
 Alpha  occ. eigenvalues --  -11.27797 -11.27051 -11.26847  -1.60558  -1.60007
 Alpha  occ. eigenvalues --   -1.40103  -1.39559  -1.20436  -1.19580  -1.09792
 Alpha  occ. eigenvalues --   -1.08985  -1.05857  -1.04976  -0.96551  -0.95815
 Alpha  occ. eigenvalues --   -0.87246  -0.86385  -0.83361  -0.82631  -0.78350
 Alpha  occ. eigenvalues --   -0.77660  -0.72763  -0.72205  -0.71886  -0.71503
 Alpha  occ. eigenvalues --   -0.71329  -0.70760  -0.66067  -0.65850  -0.65233
 Alpha  occ. eigenvalues --   -0.65019  -0.63161  -0.62358  -0.56345  -0.55597
 Alpha  occ. eigenvalues --   -0.54351  -0.53919  -0.53325  -0.52843  -0.49545
 Alpha  occ. eigenvalues --   -0.49500  -0.48965  -0.48956  -0.45445  -0.44950
 Alpha  occ. eigenvalues --   -0.38426  -0.37657  -0.37430  -0.36560
 Alpha virt. eigenvalues --    0.04149   0.04856   0.10067   0.11047   0.15538
 Alpha virt. eigenvalues --    0.16342   0.19391   0.21812   0.25177   0.27159
 Alpha virt. eigenvalues --    0.27658   0.28515   0.30080   0.31225   0.32629

 Mulliken charges:
               1
     1  C   -0.184604
     2  C   -0.227149
     3  C   -0.167389
     4  C    0.159906
     5  C   -0.170102
     6  C   -0.217705
     7  H    0.229753
     8  H    0.222454
     9  H    0.279238
    10  H    0.280679
    11  H    0.229117
    12  N    0.488054
    13  O   -0.456419
    14  O   -0.457585
    15  C   -0.176231
    16  C   -0.227462
    17  C   -0.174400
    18  C    0.160010
    19  C   -0.171654
    20  C   -0.217451
    21  H    0.216493
    22  H    0.238383
    23  H    0.276124
    24  H    0.276254
    25  H    0.223194
    26  N    0.487935
    27  O   -0.459787
    28  O   -0.459656
 Sum of Mulliken charges =  -0.00000

 Dipole moment (field-independent basis, Debye):
    X=             -0.9267    Y=              7.4593    Z=              2.0060  Tot=              7.7797
 Quadrupole moment (field-independent basis, Debye-Ang):
   XX=           -139.3659   YY=           -106.1914   ZZ=           -101.0419
   XY=              4.8650   XZ=            -16.4888   YZ=             -4.5642

 Normal termination of Gaussian 16 at Thu May  6 01:44:18 2021.
