 Gaussian 16, Revision A.03,
 Gaussian 16:  EM64L-G16RevA.03 25-Dec-2016

 -------------
 #p 6-31g* mp2
 -------------

 ------------------------------------------------------
 Input file generated by CHIRIPA (05-May-2021 14:55:23)
 ------------------------------------------------------
 Symbolic Z-matrix:
 Charge =  0 Multiplicity = 1

                         Standard orientation:
 ---------------------------------------------------------------------
 Center     Atomic      Atomic             Coordinates (Angstroms)
 Number     Number       Type             X           Y           Z
 ---------------------------------------------------------------------
      1          6           0       -1.036597   -1.485045    1.929488
      2          6           0       -1.278177   -2.010599    0.655928
      3          6           0       -1.945495   -1.251965   -0.310358
      4          6           0       -2.359214    0.034331    0.032525
      5          6           0       -2.133373    0.585924    1.292696
      6          6           0       -1.464212   -0.190744    2.243254
      7          1           0       -0.517493   -2.081375    2.674013
      8          1           0       -0.947226   -3.015470    0.409454
      9          1           0       -2.145623   -1.634150   -1.303989
     10          1           0       -2.475293    1.590795    1.508894
     11          1           0       -1.277972    0.219995    3.231512
     12          7           0       -3.066649    0.847009   -0.982114
     13          8           0       -3.420995    1.977564   -0.655127
     14          8           0       -3.253395    0.338042   -2.085162
     15          6           0        3.107099   -0.516450   -0.591550
     16          6           0        2.214260   -1.720690   -0.290504
     17          6           0        2.700443   -3.001482   -0.969468
     18          1           0        3.150799   -0.363063   -1.678523
     19          1           0        4.132710   -0.738661   -0.265760
     20          1           0        1.190350   -1.495745   -0.615505
     21          1           0        2.172527   -1.871112    0.795887
     22          1           0        3.712841   -3.253141   -0.637327
     23          1           0        2.725084   -2.875641   -2.056739
     24          1           0        2.047704   -3.849726   -0.740827
     25          6           0        2.634008    0.771446    0.080192
     26          6           0        3.526848    1.975686   -0.220854
     27          6           0        3.040664    3.256478    0.458109
     28          1           0        1.608397    0.993656   -0.245599
     29          1           0        2.590308    0.618058    1.167163
     30          1           0        3.568580    2.126107   -1.307246
     31          1           0        4.550757    1.750740    0.104146
     32          1           0        3.016023    3.130635    1.545380
     33          1           0        2.028266    3.508135    0.125968
     34          1           0        3.693403    4.104721    0.229468
 ---------------------------------------------------------------------

 SCF Done:  E(RHF) =  -669.534601522     A.U. after   15 cycles
 E2 =    -0.2093547241D+01 EUMP2 =    -0.67162814876297D+03

 The electronic state is 1-A.
 Alpha  occ. eigenvalues --  -20.60816 -20.60811 -15.85869 -11.31249 -11.27786
 Alpha  occ. eigenvalues --  -11.27776 -11.27503 -11.26817 -11.26793 -11.21949
 Alpha  occ. eigenvalues --  -11.21747 -11.21666 -11.21605 -11.21577 -11.21189
 Alpha  occ. eigenvalues --   -1.59892  -1.39445  -1.19408  -1.08814  -1.08683
 Alpha  occ. eigenvalues --   -1.04817  -1.03824  -0.96280  -0.95631  -0.87292
 Alpha  occ. eigenvalues --   -0.86204  -0.82467  -0.79900  -0.78510  -0.77510
 Alpha  occ. eigenvalues --   -0.72085  -0.71217  -0.70498  -0.65338  -0.65051
 Alpha  occ. eigenvalues --   -0.64810  -0.62161  -0.61223  -0.59681  -0.57897
 Alpha  occ. eigenvalues --   -0.55558  -0.55294  -0.53270  -0.52943  -0.52882
 Alpha  occ. eigenvalues --   -0.52685  -0.50209  -0.48846  -0.48841  -0.48210
 Alpha  occ. eigenvalues --   -0.46925  -0.46043  -0.45938  -0.44848  -0.44073
 Alpha  occ. eigenvalues --   -0.37332  -0.36315
 Alpha virt. eigenvalues --    0.04980   0.11210   0.16402   0.20550   0.22771
 Alpha virt. eigenvalues --    0.23920   0.26176   0.26384   0.27042   0.28186
 Alpha virt. eigenvalues --    0.28580   0.30025   0.31165   0.31829   0.31930

 Mulliken charges:
               1
     1  C   -0.168565
     2  C   -0.215045
     3  C   -0.174052
     4  C    0.158964
     5  C   -0.171423
     6  C   -0.217799
     7  H    0.225584
     8  H    0.225265
     9  H    0.275705
    10  H    0.275757
    11  H    0.223706
    12  N    0.487935
    13  O   -0.460213
    14  O   -0.460404
    15  C   -0.298363
    16  C   -0.303347
    17  C   -0.475918
    18  H    0.151945
    19  H    0.148845
    20  H    0.158947
    21  H    0.143810
    22  H    0.156923
    23  H    0.158511
    24  H    0.152060
    25  C   -0.297840
    26  C   -0.299981
    27  C   -0.476116
    28  H    0.152585
    29  H    0.145415
    30  H    0.154148
    31  H    0.151205
    32  H    0.152325
    33  H    0.157927
    34  H    0.161505
 Sum of Mulliken charges =  -0.00000

 Dipole moment (field-independent basis, Debye):
    X=              2.4577    Y=             -2.7959    Z=              3.5559  Tot=              5.1480
 Quadrupole moment (field-independent basis, Debye-Ang):
   XX=           -107.2189   YY=            -93.5682   ZZ=            -92.1937
   XY=              6.8455   XZ=             -8.3478   YZ=              2.1596

 Normal termination of Gaussian 16 at Thu May  6 01:31:21 2021.
