 Gaussian 16, Revision A.03,
 Gaussian 16:  EM64L-G16RevA.03 25-Dec-2016

 -------------
 #p 6-31g* mp2
 -------------

 ------------------------------------------------------
 Input file generated by CHIRIPA (05-May-2021 14:55:23)
 ------------------------------------------------------
 Symbolic Z-matrix:
 Charge =  0 Multiplicity = 1

                         Standard orientation:
 ---------------------------------------------------------------------
 Center     Atomic      Atomic             Coordinates (Angstroms)
 Number     Number       Type             X           Y           Z
 ---------------------------------------------------------------------
      1          6           0       -2.471106    2.214893    0.306907
      2          6           0       -3.638181    2.116167   -0.457757
      3          6           0       -4.293481    0.889190   -0.597966
      4          6           0       -3.751576   -0.223771    0.043085
      5          6           0       -2.590492   -0.157501    0.811709
      6          6           0       -1.951902    1.079746    0.938086
      7          1           0       -1.968544    3.172027    0.410453
      8          1           0       -4.043678    2.996071   -0.949066
      9          1           0       -5.198492    0.784441   -1.183969
     10          1           0       -2.210255   -1.052190    1.289589
     11          1           0       -1.045693    1.153450    1.532560
     12          7           0       -4.436467   -1.528153   -0.098027
     13          8           0       -3.938800   -2.493851    0.476771
     14          8           0       -5.457984   -1.560130   -0.780756
     15          6           0        3.911508   -0.150321   -0.057107
     16          6           0        3.020470    1.091881   -0.088270
     17          6           0        1.530725    0.752349   -0.031978
     18          1           0        3.650406   -0.802339   -0.901881
     19          1           0        3.699169   -0.722499    0.856632
     20          1           0        3.235412    1.662268   -1.000999
     21          1           0        3.283856    1.741108    0.756567
     22          1           0        1.295166    0.203188    0.885375
     23          1           0        1.246448    0.123900   -0.882177
     24          1           0        0.912096    1.654906   -0.055413
     25          6           0        5.403557    0.172832   -0.112728
     26          6           0        6.294594   -1.069370   -0.081566
     27          6           0        7.784340   -0.729838   -0.137857
     28          1           0        5.615895    0.745010   -1.026467
     29          1           0        5.664659    0.824850    0.732046
     30          1           0        6.031210   -1.718597   -0.926402
     31          1           0        6.079653   -1.639757    0.831164
     32          1           0        8.068618   -0.101389    0.712343
     33          1           0        8.019899   -0.180677   -1.055210
     34          1           0        8.402969   -1.632395   -0.114423
 ---------------------------------------------------------------------

 SCF Done:  E(RHF) =  -669.534947595     A.U. after   15 cycles
 E2 =    -0.2091606379D+01 EUMP2 =    -0.67162655397380D+03

 The electronic state is 1-A.
 Alpha  occ. eigenvalues --  -20.60718 -20.60712 -15.85769 -11.31126 -11.27681
 Alpha  occ. eigenvalues --  -11.27660 -11.27420 -11.26716 -11.26639 -11.22229
 Alpha  occ. eigenvalues --  -11.21920 -11.21887 -11.21854 -11.21740 -11.21309
 Alpha  occ. eigenvalues --   -1.59793  -1.39346  -1.19289  -1.08886  -1.08690
 Alpha  occ. eigenvalues --   -1.04691  -1.04017  -0.96488  -0.95528  -0.87529
 Alpha  occ. eigenvalues --   -0.86077  -0.82358  -0.80094  -0.78669  -0.77400
 Alpha  occ. eigenvalues --   -0.71988  -0.71115  -0.70404  -0.65519  -0.64942
 Alpha  occ. eigenvalues --   -0.64712  -0.62079  -0.61394  -0.59861  -0.58079
 Alpha  occ. eigenvalues --   -0.55782  -0.55193  -0.53439  -0.52929  -0.52909
 Alpha  occ. eigenvalues --   -0.52608  -0.50408  -0.48744  -0.48743  -0.48403
 Alpha  occ. eigenvalues --   -0.47105  -0.46217  -0.46123  -0.44754  -0.44265
 Alpha  occ. eigenvalues --   -0.37258  -0.36255
 Alpha virt. eigenvalues --    0.05106   0.11310   0.16570   0.20640   0.22582
 Alpha virt. eigenvalues --    0.23955   0.25853   0.26493   0.26890   0.27708
 Alpha virt. eigenvalues --    0.28940   0.30086   0.31209   0.31656   0.32216

 Mulliken charges:
               1
     1  C   -0.173525
     2  C   -0.218258
     3  C   -0.171520
     4  C    0.158605
     5  C   -0.173511
     6  C   -0.213433
     7  H    0.224865
     8  H    0.223038
     9  H    0.275239
    10  H    0.275110
    11  H    0.227273
    12  N    0.488069
    13  O   -0.460518
    14  O   -0.460666
    15  C   -0.299134
    16  C   -0.300590
    17  C   -0.476061
    18  H    0.152026
    19  H    0.149858
    20  H    0.153850
    21  H    0.150826
    22  H    0.149090
    23  H    0.162678
    24  H    0.153999
    25  C   -0.298600
    26  C   -0.300081
    27  C   -0.475957
    28  H    0.150101
    29  H    0.149458
    30  H    0.153153
    31  H    0.152495
    32  H    0.155137
    33  H    0.155474
    34  H    0.161511
 Sum of Mulliken charges =  -0.00000

 Dipole moment (field-independent basis, Debye):
    X=              2.5577    Y=              4.5615    Z=              0.4456  Tot=              5.2486
 Quadrupole moment (field-independent basis, Debye-Ang):
   XX=           -111.7521   YY=            -96.5550   ZZ=            -92.5903
   XY=            -19.8440   XZ=              0.5045   YZ=             -1.3059

 Normal termination of Gaussian 16 at Thu May  6 12:36:30 2021.
