 Gaussian 16, Revision A.03,
 Gaussian 16:  EM64L-G16RevA.03 25-Dec-2016

 -------------
 #p 6-31g* mp2
 -------------

 ------------------------------------------------------
 Input file generated by CHIRIPA (05-May-2021 14:53:17)
 ------------------------------------------------------
 Symbolic Z-matrix:
 Charge =  0 Multiplicity = 1

                         Standard orientation:
 ---------------------------------------------------------------------
 Center     Atomic      Atomic             Coordinates (Angstroms)
 Number     Number       Type             X           Y           Z
 ---------------------------------------------------------------------
      1          6           0       -3.498048   -0.036573    0.878646
      2          6           0       -2.036233   -0.110529    0.436364
      3          6           0       -1.057640    0.052571    1.599785
      4          1           0       -3.675543    0.926442    1.376686
      5          1           0       -3.686555   -0.816267    1.629603
      6          1           0       -1.850894    0.668181   -0.314552
      7          1           0       -1.862246   -1.073401   -0.060852
      8          1           0       -1.213773   -0.731869    2.347366
      9          1           0       -1.202356    1.019608    2.092224
     10          1           0       -0.018401   -0.003537    1.261122
     11          6           0       -4.488404   -0.197919   -0.273261
     12          6           0       -5.950219   -0.123962    0.169021
     13          6           0       -6.928812   -0.287062   -0.994400
     14          1           0       -4.299897    0.581776   -1.024218
     15          1           0       -4.310909   -1.160933   -0.771302
     16          1           0       -6.124206    0.838909    0.666236
     17          1           0       -6.135558   -0.902672    0.919937
     18          1           0       -6.784096   -1.254099   -1.486839
     19          1           0       -6.772679    0.497378   -1.741981
     20          1           0       -7.968051   -0.230954   -0.655737
     21          6           0        2.132217    2.407309   -0.404607
     22          6           0        3.420992    2.231552    0.109871
     23          6           0        3.978203    0.953077    0.207664
     24          6           0        3.215174   -0.132276   -0.220224
     25          6           0        1.928476    0.010403   -0.737272
     26          6           0        1.391378    1.298129   -0.825794
     27          1           0        1.707174    3.404053   -0.476974
     28          1           0        3.998642    3.091129    0.437733
     29          1           0        4.973583    0.788396    0.602019
     30          1           0        1.376924   -0.865713   -1.056062
     31          1           0        0.390251    1.431625   -1.225756
     32          7           0        3.794423   -1.490638   -0.121603
     33          8           0        3.101697   -2.430584   -0.505361
     34          8           0        4.930194   -1.589655    0.337587
 ---------------------------------------------------------------------

 SCF Done:  E(RHF) =  -669.533970290     A.U. after   15 cycles
 E2 =    -0.2093418860D+01 EUMP2 =    -0.67162738914996D+03

 The electronic state is 1-A.
 Alpha  occ. eigenvalues --  -20.60788 -20.60783 -15.85842 -11.31229 -11.27772
 Alpha  occ. eigenvalues --  -11.27757 -11.27507 -11.26804 -11.26762 -11.22240
 Alpha  occ. eigenvalues --  -11.21919 -11.21844 -11.21760 -11.21340 -11.21299
 Alpha  occ. eigenvalues --   -1.59863  -1.39416  -1.19402  -1.08868  -1.08778
 Alpha  occ. eigenvalues --   -1.04825  -1.03923  -0.96345  -0.95617  -0.87356
 Alpha  occ. eigenvalues --   -0.86193  -0.82453  -0.80023  -0.78688  -0.77494
 Alpha  occ. eigenvalues --   -0.72059  -0.71188  -0.70494  -0.65525  -0.65048
 Alpha  occ. eigenvalues --   -0.64783  -0.62196  -0.61311  -0.59751  -0.58006
 Alpha  occ. eigenvalues --   -0.55621  -0.55284  -0.53588  -0.52900  -0.52876
 Alpha  occ. eigenvalues --   -0.52401  -0.50275  -0.48825  -0.48813  -0.48313
 Alpha  occ. eigenvalues --   -0.47061  -0.46212  -0.46140  -0.44818  -0.44185
 Alpha  occ. eigenvalues --   -0.37378  -0.36286
 Alpha virt. eigenvalues --    0.05019   0.11164   0.16455   0.20289   0.22691
 Alpha virt. eigenvalues --    0.24066   0.25412   0.26243   0.27512   0.28069
 Alpha virt. eigenvalues --    0.28981   0.29584   0.31278   0.31738   0.32182

 Mulliken charges:
               1
     1  C   -0.297483
     2  C   -0.303532
     3  C   -0.482590
     4  H    0.149628
     5  H    0.153380
     6  H    0.140327
     7  H    0.153836
     8  H    0.159112
     9  H    0.152569
    10  H    0.169210
    11  C   -0.298587
    12  C   -0.299999
    13  C   -0.475945
    14  H    0.146799
    15  H    0.151284
    16  H    0.151768
    17  H    0.153578
    18  H    0.156246
    19  H    0.154509
    20  H    0.161381
    21  C   -0.171552
    22  C   -0.217996
    23  C   -0.171402
    24  C    0.160614
    25  C   -0.177934
    26  C   -0.216444
    27  H    0.225751
    28  H    0.223637
    29  H    0.275727
    30  H    0.277528
    31  H    0.228954
    32  N    0.488218
    33  O   -0.460393
    34  O   -0.460200
 Sum of Mulliken charges =  -0.00000

 Dipole moment (field-independent basis, Debye):
    X=             -2.0574    Y=              4.7530    Z=             -0.3060  Tot=              5.1882
 Quadrupole moment (field-independent basis, Debye-Ang):
   XX=           -104.8885   YY=            -94.7415   ZZ=            -95.1047
   XY=             17.8104   XZ=              0.4987   YZ=             -0.4219

 Normal termination of Gaussian 16 at Thu May  6 05:59:44 2021.
