 Gaussian 16, Revision A.03,
 Gaussian 16:  EM64L-G16RevA.03 25-Dec-2016

 -------------
 #p 6-31g* mp2
 -------------

 ------------------------------------------------------
 Input file generated by CHIRIPA (05-May-2021 14:55:25)
 ------------------------------------------------------
 Symbolic Z-matrix:
 Charge =  0 Multiplicity = 1

                         Standard orientation:
 ---------------------------------------------------------------------
 Center     Atomic      Atomic             Coordinates (Angstroms)
 Number     Number       Type             X           Y           Z
 ---------------------------------------------------------------------
      1          6           0        1.289306   -0.957434    1.797034
      2          6           0        0.861755   -0.368843    0.602345
      3          6           0        1.790930    0.124391   -0.318471
      4          6           0        3.145979    0.012070   -0.011036
      5          6           0        3.603222   -0.569060    1.170703
      6          6           0        2.656265   -1.055490    2.076907
      7          1           0        0.560594   -1.337947    2.506670
      8          1           0       -0.199207   -0.291339    0.382347
      9          1           0        1.487520    0.584731   -1.250913
     10          1           0        4.667552   -0.632068    1.362143
     11          1           0        2.991198   -1.512107    3.003927
     12          7           0        4.139067    0.530634   -0.978128
     13          8           0        5.327201    0.419647   -0.683753
     14          8           0        3.710512    1.038253   -2.012198
     15          6           0       -3.528569   -0.481443   -0.600944
     16          6           0       -4.205387   -1.824199   -0.323622
     17          6           0       -3.616698   -2.965491   -1.153496
     18          1           0       -3.621265   -0.245159   -1.669833
     19          1           0       -2.453375   -0.570751   -0.392670
     20          1           0       -5.279210   -1.731995   -0.531035
     21          1           0       -4.111236   -2.057221    0.744765
     22          1           0       -2.549675   -3.086271   -0.940245
     23          1           0       -3.724286   -2.759198   -2.223294
     24          1           0       -4.115164   -3.916064   -0.939478
     25          6           0       -4.106134    0.669334    0.221162
     26          6           0       -3.429315    2.012090   -0.056160
     27          6           0       -4.018005    3.153383    0.773713
     28          1           0       -5.181328    0.758642    0.012887
     29          1           0       -4.013438    0.433050    1.290050
     30          1           0       -3.523467    2.245114   -1.124547
     31          1           0       -2.355493    1.919888    0.151253
     32          1           0       -3.910417    2.947089    1.843511
     33          1           0       -5.085027    3.274163    0.560463
     34          1           0       -3.519540    4.103956    0.559696
 ---------------------------------------------------------------------

 SCF Done:  E(RHF) =  -669.535484253     A.U. after   15 cycles
 E2 =    -0.2091351939D+01 EUMP2 =    -0.67162683619184D+03

 The electronic state is 1-A.
 Alpha  occ. eigenvalues --  -20.60750 -20.60744 -15.85803 -11.31174 -11.27750
 Alpha  occ. eigenvalues --  -11.27741 -11.27498 -11.26766 -11.26744 -11.22400
 Alpha  occ. eigenvalues --  -11.22349 -11.22336 -11.22171 -11.21740 -11.21639
 Alpha  occ. eigenvalues --   -1.59825  -1.39378  -1.19350  -1.09254  -1.08746
 Alpha  occ. eigenvalues --   -1.04755  -1.04253  -0.96699  -0.95578  -0.87707
 Alpha  occ. eigenvalues --   -0.86157  -0.82412  -0.80320  -0.79088  -0.77454
 Alpha  occ. eigenvalues --   -0.72022  -0.71148  -0.70462  -0.65952  -0.65003
 Alpha  occ. eigenvalues --   -0.64732  -0.62106  -0.61650  -0.60061  -0.58308
 Alpha  occ. eigenvalues --   -0.55999  -0.55259  -0.53355  -0.53137  -0.53082
 Alpha  occ. eigenvalues --   -0.52840  -0.50638  -0.48787  -0.48776  -0.48628
 Alpha  occ. eigenvalues --   -0.47370  -0.46590  -0.46537  -0.44782  -0.44538
 Alpha  occ. eigenvalues --   -0.37335  -0.36357
 Alpha virt. eigenvalues --    0.05079   0.11269   0.16546   0.18742   0.22809
 Alpha virt. eigenvalues --    0.23632   0.24458   0.26349   0.27275   0.28303
 Alpha virt. eigenvalues --    0.29294   0.30674   0.31216   0.31294   0.31843

 Mulliken charges:
               1
     1  C   -0.173545
     2  C   -0.229112
     3  C   -0.173911
     4  C    0.158861
     5  C   -0.171048
     6  C   -0.218479
     7  H    0.225795
     8  H    0.238104
     9  H    0.276401
    10  H    0.275603
    11  H    0.223350
    12  N    0.488092
    13  O   -0.460606
    14  O   -0.460263
    15  C   -0.304585
    16  C   -0.299582
    17  C   -0.476148
    18  H    0.154784
    19  H    0.142028
    20  H    0.155778
    21  H    0.150211
    22  H    0.153035
    23  H    0.158167
    24  H    0.162908
    25  C   -0.298445
    26  C   -0.300663
    27  C   -0.476011
    28  H    0.153751
    29  H    0.148015
    30  H    0.155330
    31  H    0.146371
    32  H    0.154988
    33  H    0.157331
    34  H    0.163493
 Sum of Mulliken charges =  -0.00000

 Dipole moment (field-independent basis, Debye):
    X=             -3.7048    Y=             -1.8021    Z=              3.3579  Tot=              5.3149
 Quadrupole moment (field-independent basis, Debye-Ang):
   XX=           -112.9708   YY=            -95.6402   ZZ=            -93.0520
   XY=             -6.9628   XZ=             14.3586   YZ=             -1.5742

 Normal termination of Gaussian 16 at Wed May  5 16:09:54 2021.
