 Gaussian 16, Revision A.03,
 Gaussian 16:  EM64L-G16RevA.03 25-Dec-2016

 -------------
 #p 6-31g* mp2
 -------------

 ------------------------------------------------------
 Input file generated by CHIRIPA (05-May-2021 14:57:23)
 ------------------------------------------------------
 Symbolic Z-matrix:
 Charge =  0 Multiplicity = 1

                         Standard orientation:
 ---------------------------------------------------------------------
 Center     Atomic      Atomic             Coordinates (Angstroms)
 Number     Number       Type             X           Y           Z
 ---------------------------------------------------------------------
      1          6           0       -2.233373    0.559433    0.203585
      2          6           0       -2.619953   -0.784638    0.180144
      3          6           0       -3.967984   -1.133643    0.055425
      4          6           0       -4.907157   -0.108289   -0.044035
      5          6           0       -4.553405    1.239947   -0.023756
      6          6           0       -3.199630    1.565662    0.101740
      7          1           0       -1.183959    0.821502    0.300772
      8          1           0       -1.871721   -1.568200    0.259053
      9          1           0       -4.294973   -2.166145    0.034563
     10          1           0       -5.322213    1.998796   -0.104377
     11          1           0       -2.902312    2.610327    0.119660
     12          7           0       -6.337298   -0.465436   -0.176481
     13          8           0       -7.145349    0.456681   -0.262450
     14          8           0       -6.623113   -1.660724   -0.191815
     15          6           0        2.331390    0.813862    0.575077
     16          6           0        3.163808    0.320959    1.585347
     17          6           0        4.462217   -0.105386    1.290542
     18          6           0        4.897681   -0.024476   -0.031243
     19          6           0        4.092199    0.461817   -1.059838
     20          6           0        2.797420    0.882597   -0.741970
     21          1           0        1.324164    1.142896    0.813047
     22          1           0        2.804550    0.266430    2.609069
     23          1           0        5.127715   -0.491209    2.053215
     24          1           0        4.478444    0.504063   -2.071000
     25          1           0        2.153162    1.264948   -1.528598
     26          7           0        6.270327   -0.472883   -0.355549
     27          8           0        6.630231   -0.391377   -1.527924
     28          8           0        6.960313   -0.897361    0.568776
 ---------------------------------------------------------------------

 SCF Done:  E(RHF) =  -868.336326561     A.U. after   16 cycles
 E2 =    -0.2599610761D+01 EUMP2 =    -0.87093593732213D+03

 The electronic state is 1-A.
 Alpha  occ. eigenvalues --  -20.61356 -20.61351 -20.61287 -20.61282 -15.86414
 Alpha  occ. eigenvalues --  -15.86344 -11.31949 -11.31860 -11.28516 -11.28505
 Alpha  occ. eigenvalues --  -11.28451 -11.28429 -11.28417 -11.28358 -11.27641
 Alpha  occ. eigenvalues --  -11.27614 -11.27542 -11.27518  -1.60427  -1.60359
 Alpha  occ. eigenvalues --   -1.39976  -1.39908  -1.20146  -1.20056  -1.09545
 Alpha  occ. eigenvalues --   -1.09453  -1.05560  -1.05468  -0.96353  -0.96254
 Alpha  occ. eigenvalues --   -0.86968  -0.86876  -0.83172  -0.83066  -0.78148
 Alpha  occ. eigenvalues --   -0.78069  -0.72630  -0.72561  -0.71752  -0.71683
 Alpha  occ. eigenvalues --   -0.71540  -0.71072  -0.65809  -0.65719  -0.65578
 Alpha  occ. eigenvalues --   -0.65477  -0.62891  -0.62801  -0.56464  -0.55810
 Alpha  occ. eigenvalues --   -0.53894  -0.53803  -0.53661  -0.53569  -0.49404
 Alpha  occ. eigenvalues --   -0.49373  -0.49333  -0.49305  -0.45342  -0.45279
 Alpha  occ. eigenvalues --   -0.38188  -0.38092  -0.37149  -0.37057
 Alpha virt. eigenvalues --    0.04356   0.04449   0.10487   0.10584   0.15708
 Alpha virt. eigenvalues --    0.15887   0.17529   0.21832   0.24630   0.26563
 Alpha virt. eigenvalues --    0.26651   0.29230   0.29813   0.31757   0.31914

 Mulliken charges:
               1
     1  C   -0.174167
     2  C   -0.220098
     3  C   -0.170034
     4  C    0.159448
     5  C   -0.170052
     6  C   -0.219647
     7  H    0.218666
     8  H    0.225367
     9  H    0.278053
    10  H    0.277667
    11  H    0.223558
    12  N    0.487810
    13  O   -0.458738
    14  O   -0.458431
    15  C   -0.176756
    16  C   -0.218713
    17  C   -0.170136
    18  C    0.159645
    19  C   -0.170123
    20  C   -0.219304
    21  H    0.220280
    22  H    0.225392
    23  H    0.278125
    24  H    0.278152
    25  H    0.222896
    26  N    0.487813
    27  O   -0.458373
    28  O   -0.458299
 Sum of Mulliken charges =  -0.00000

 Dipole moment (field-independent basis, Debye):
    X=              0.2369    Y=              2.7387    Z=              1.5787  Tot=              3.1699
 Quadrupole moment (field-independent basis, Debye-Ang):
   XX=           -200.2048   YY=           -100.9447   ZZ=           -101.0900
   XY=             -0.4179   XZ=              4.1683   YZ=             -1.7319

 Normal termination of Gaussian 16 at Fri May  7 09:30:36 2021.
