 Gaussian 16, Revision A.03,
 Gaussian 16:  EM64L-G16RevA.03 25-Dec-2016

 -------------
 #p 6-31g* mp2
 -------------

 ------------------------------------------------------
 Input file generated by CHIRIPA (05-May-2021 14:57:22)
 ------------------------------------------------------
 Symbolic Z-matrix:
 Charge =  0 Multiplicity = 1

                         Standard orientation:
 ---------------------------------------------------------------------
 Center     Atomic      Atomic             Coordinates (Angstroms)
 Number     Number       Type             X           Y           Z
 ---------------------------------------------------------------------
      1          6           0        4.716979    1.491034    0.130606
      2          6           0        4.227489    1.016351   -1.090703
      3          6           0        3.226278    0.041136   -1.123562
      4          6           0        2.735094   -0.439436    0.089318
      5          6           0        3.202262    0.013484    1.322164
      6          6           0        4.203709    0.988970    1.331025
      7          1           0        5.494835    2.248711    0.146811
      8          1           0        4.624233    1.404444   -2.024525
      9          1           0        2.829222   -0.344012   -2.054919
     10          1           0        2.787081   -0.392533    2.236600
     11          1           0        4.581955    1.355764    2.280992
     12          7           0        1.675032   -1.471996    0.067234
     13          8           0        1.258918   -1.879215    1.149666
     14          8           0        1.280342   -1.854547   -1.032089
     15          6           0       -2.985722    2.790853   -0.051530
     16          6           0       -2.044001    2.131890   -0.848681
     17          6           0       -1.992813    0.735114   -0.879421
     18          6           0       -2.902465    0.025479   -0.096963
     19          6           0       -3.852377    0.653057    0.707464
     20          6           0       -3.885320    2.050638    0.722633
     21          1           0       -3.018399    3.876215   -0.033699
     22          1           0       -1.344126    2.704174   -1.450937
     23          1           0       -1.274044    0.199412   -1.487543
     24          1           0       -4.537025    0.055426    1.296966
     25          1           0       -4.617750    2.559718    1.342655
     26          7           0       -2.857933   -1.453652   -0.121263
     27          8           0       -3.670332   -2.055920    0.577248
     28          8           0       -2.011473   -1.982719   -0.838362
 ---------------------------------------------------------------------

 SCF Done:  E(RHF) =  -868.335368844     A.U. after   16 cycles
 E2 =    -0.2601454324D+01 EUMP2 =    -0.87093682316764D+03

 The electronic state is 1-A.
 Alpha  occ. eigenvalues --  -20.60466 -20.60435 -20.59627 -20.59488 -15.85505
 Alpha  occ. eigenvalues --  -15.84614 -11.31178 -11.30434 -11.27790 -11.27755
 Alpha  occ. eigenvalues --  -11.27557 -11.27071 -11.27021 -11.26925 -11.26859
 Alpha  occ. eigenvalues --  -11.26831 -11.26207 -11.26191  -1.59509  -1.58630
 Alpha  occ. eigenvalues --   -1.39061  -1.38166  -1.19374  -1.18658  -1.08706
 Alpha  occ. eigenvalues --   -1.07978  -1.04816  -1.04132  -0.95487  -0.94730
 Alpha  occ. eigenvalues --   -0.86199  -0.85507  -0.82317  -0.81559  -0.77322
 Alpha  occ. eigenvalues --   -0.76519  -0.71703  -0.70963  -0.70735  -0.70468
 Alpha  occ. eigenvalues --   -0.69946  -0.69766  -0.65012  -0.64811  -0.64298
 Alpha  occ. eigenvalues --   -0.64148  -0.62157  -0.61464  -0.55294  -0.54637
 Alpha  occ. eigenvalues --   -0.53138  -0.52905  -0.52439  -0.52232  -0.48475
 Alpha  occ. eigenvalues --   -0.48444  -0.47643  -0.47539  -0.44392  -0.43437
 Alpha  occ. eigenvalues --   -0.37371  -0.36672  -0.36441  -0.35762
 Alpha virt. eigenvalues --    0.05187   0.06027   0.11204   0.11882   0.16613
 Alpha virt. eigenvalues --    0.17429   0.21329   0.21959   0.27216   0.27745
 Alpha virt. eigenvalues --    0.28235   0.28918   0.30795   0.31496   0.32410

 Mulliken charges:
               1
     1  C   -0.172060
     2  C   -0.218914
     3  C   -0.174799
     4  C    0.158142
     5  C   -0.171396
     6  C   -0.218553
     7  H    0.224822
     8  H    0.222421
     9  H    0.274853
    10  H    0.276753
    11  H    0.223244
    12  N    0.485646
    13  O   -0.456262
    14  O   -0.451670
    15  C   -0.172386
    16  C   -0.219047
    17  C   -0.176166
    18  C    0.160677
    19  C   -0.171268
    20  C   -0.218832
    21  H    0.221502
    22  H    0.218444
    23  H    0.281867
    24  H    0.274955
    25  H    0.220603
    26  N    0.487522
    27  O   -0.466638
    28  O   -0.443460
 Sum of Mulliken charges =  -0.00000

 Dipole moment (field-independent basis, Debye):
    X=              3.6877    Y=              8.4626    Z=              0.1263  Tot=              9.2320
 Quadrupole moment (field-independent basis, Debye-Ang):
   XX=            -82.7352   YY=           -109.2853   ZZ=            -98.1935
   XY=             -6.3263   XZ=             -2.4016   YZ=             -0.1609

 Normal termination of Gaussian 16 at Fri May  7 06:21:16 2021.
