 Gaussian 16, Revision A.03,
 Gaussian 16:  EM64L-G16RevA.03 25-Dec-2016

 -------------
 #p 6-31g* mp2
 -------------

 ------------------------------------------------------
 Input file generated by CHIRIPA (05-May-2021 14:51:07)
 ------------------------------------------------------
 Symbolic Z-matrix:
 Charge =  0 Multiplicity = 1

                         Standard orientation:
 ---------------------------------------------------------------------
 Center     Atomic      Atomic             Coordinates (Angstroms)
 Number     Number       Type             X           Y           Z
 ---------------------------------------------------------------------
      1          6           0       -2.432796   -0.420805    0.114597
      2          6           0       -2.999126   -1.388701   -0.924843
      3          6           0       -2.643409   -2.846389   -0.630897
      4          1           0       -1.340574   -0.532505    0.153575
      5          1           0       -2.811033   -0.698305    1.108239
      6          1           0       -2.621033   -1.108615   -1.916414
      7          1           0       -4.090108   -1.274547   -0.961488
      8          1           0       -3.034592   -3.148965    0.345845
      9          1           0       -1.557169   -2.982089   -0.614506
     10          1           0       -3.058228   -3.521045   -1.386294
     11          6           0       -2.779950    1.040259   -0.165590
     12          6           0       -2.213621    2.008154    0.873849
     13          6           0       -2.569337    3.465843    0.579903
     14          1           0       -2.401713    1.317759   -1.159233
     15          1           0       -3.872172    1.151959   -0.204569
     16          1           0       -1.122638    1.894001    0.910494
     17          1           0       -2.591714    1.728068    1.865420
     18          1           0       -3.655577    3.601543    0.563513
     19          1           0       -2.178155    3.768419   -0.396839
     20          1           0       -2.154518    4.140498    1.335300
     21          6           0        2.614932   -0.909557    0.498321
     22          6           0        1.734354   -2.066802    0.025721
     23          6           0        1.761919   -3.259429    0.982108
     24          1           0        3.647810   -1.266030    0.612492
     25          1           0        2.282931   -0.588856    1.495477
     26          1           0        2.067036   -2.384313   -0.970836
     27          1           0        0.703489   -1.707486   -0.087522
     28          1           0        1.409776   -2.964514    1.975900
     29          1           0        2.781071   -3.645188    1.087567
     30          1           0        1.125650   -4.075204    0.624991
     31          6           0        2.597815    0.290103   -0.447327
     32          6           0        3.478393    1.447348    0.025273
     33          6           0        3.450827    2.639975   -0.931114
     34          1           0        2.929816   -0.030598   -1.444484
     35          1           0        1.564937    0.646576   -0.561498
     36          1           0        4.509258    1.088032    0.138517
     37          1           0        3.145711    1.764859    1.021830
     38          1           0        2.431675    3.025734   -1.036573
     39          1           0        3.802970    2.345061   -1.924905
     40          1           0        4.087097    3.455750   -0.573998
 ---------------------------------------------------------------------

 SCF Done:  E(RHF) =  -470.733166850     A.U. after   11 cycles
 E2 =    -0.1583955584D+01 EUMP2 =    -0.47231712243349D+03

 The electronic state is 1-A.
 Alpha  occ. eigenvalues --  -11.21664 -11.21643 -11.21627 -11.21621 -11.21460
 Alpha  occ. eigenvalues --  -11.21446 -11.21396 -11.21386 -11.21115 -11.21106
 Alpha  occ. eigenvalues --  -11.21086 -11.21062  -1.08502  -1.08451  -1.03594
 Alpha  occ. eigenvalues --   -1.03539  -0.96028  -0.95997  -0.87045  -0.87011
 Alpha  occ. eigenvalues --   -0.79688  -0.79583  -0.78391  -0.78198  -0.65316
 Alpha  occ. eigenvalues --   -0.64920  -0.61130  -0.60820  -0.59433  -0.59324
 Alpha  occ. eigenvalues --   -0.57689  -0.57562  -0.55337  -0.55259  -0.52707
 Alpha  occ. eigenvalues --   -0.52702  -0.52492  -0.52382  -0.50002  -0.49914
 Alpha  occ. eigenvalues --   -0.48070  -0.47874  -0.46918  -0.46522  -0.46201
 Alpha  occ. eigenvalues --   -0.45790  -0.45786  -0.45190  -0.43827  -0.43814
 Alpha virt. eigenvalues --    0.19521   0.22098   0.23688   0.25154   0.25208
 Alpha virt. eigenvalues --    0.26346   0.26979   0.27286   0.28771   0.29966
 Alpha virt. eigenvalues --    0.30712   0.30910   0.31639   0.31747   0.32012

 Mulliken charges:
               1
     1  C   -0.307342
     2  C   -0.299048
     3  C   -0.480809
     4  H    0.156893
     5  H    0.149722
     6  H    0.152029
     7  H    0.152137
     8  H    0.155170
     9  H    0.160325
    10  H    0.160327
    11  C   -0.297553
    12  C   -0.300622
    13  C   -0.475736
    14  H    0.149615
    15  H    0.150041
    16  H    0.151560
    17  H    0.152214
    18  H    0.155500
    19  H    0.155265
    20  H    0.160400
    21  C   -0.297522
    22  C   -0.311241
    23  C   -0.476090
    24  H    0.150052
    25  H    0.149787
    26  H    0.152034
    27  H    0.161501
    28  H    0.155681
    29  H    0.155346
    30  H    0.161270
    31  C   -0.300198
    32  C   -0.299680
    33  C   -0.475724
    34  H    0.149834
    35  H    0.149666
    36  H    0.152274
    37  H    0.152142
    38  H    0.155020
    39  H    0.155228
    40  H    0.160535
 Sum of Mulliken charges =  -0.00000

 Dipole moment (field-independent basis, Debye):
    X=              0.0033    Y=             -0.0062    Z=              0.0057  Tot=              0.0091
 Quadrupole moment (field-independent basis, Debye-Ang):
   XX=            -83.3723   YY=            -86.6736   ZZ=            -84.5544
   XY=             -0.1426   XZ=             -0.8529   YZ=              0.7814

 Normal termination of Gaussian 16 at Wed May  5 21:16:43 2021.
