 Gaussian 16, Revision A.03,
 Gaussian 16:  EM64L-G16RevA.03 25-Dec-2016

 -------------
 #p 6-31g* mp2
 -------------

 ------------------------------------------------------
 Input file generated by CHIRIPA (05-May-2021 14:57:23)
 ------------------------------------------------------
 Symbolic Z-matrix:
 Charge =  0 Multiplicity = 1

                         Standard orientation:
 ---------------------------------------------------------------------
 Center     Atomic      Atomic             Coordinates (Angstroms)
 Number     Number       Type             X           Y           Z
 ---------------------------------------------------------------------
      1          6           0       -3.778355   -1.856398   -0.764186
      2          6           0       -2.386833   -1.714317   -0.763620
      3          6           0       -1.797026   -0.502378   -0.392297
      4          6           0       -2.632584    0.551500   -0.025589
      5          6           0       -4.022186    0.441024   -0.016035
      6          6           0       -4.590159   -0.780171   -0.391050
      7          1           0       -4.228050   -2.801456   -1.054073
      8          1           0       -1.753902   -2.548428   -1.052935
      9          1           0       -0.722575   -0.364958   -0.382930
     10          1           0       -4.627066    1.290433    0.277297
     11          1           0       -5.671129   -0.887638   -0.390554
     12          7           0       -2.019739    1.839425    0.369468
     13          8           0       -2.777865    2.752759    0.688376
     14          8           0       -0.792870    1.911179    0.352725
     15          6           0        3.831551    1.420725   -1.345595
     16          6           0        3.675946    1.635138    0.027844
     17          6           0        3.069058    0.666934    0.833335
     18          6           0        2.627441   -0.509381    0.229555
     19          6           0        2.768079   -0.752380   -1.135898
     20          6           0        3.377921    0.229751   -1.922067
     21          1           0        4.304143    2.178258   -1.963814
     22          1           0        4.027284    2.559113    0.478261
     23          1           0        2.935892    0.807004    1.899198
     24          1           0        2.407764   -1.683467   -1.556217
     25          1           0        3.497434    0.060518   -2.988425
     26          7           0        1.983392   -1.541747    1.072065
     27          8           0        1.602840   -2.569619    0.515922
     28          8           0        1.871334   -1.303495    2.272612
 ---------------------------------------------------------------------

 SCF Done:  E(RHF) =  -868.339438904     A.U. after   16 cycles
 E2 =    -0.2600038364D+01 EUMP2 =    -0.87093947726727D+03

 The electronic state is 1-A.
 Alpha  occ. eigenvalues --  -20.60969 -20.60889 -20.60553 -20.60544 -15.85959
 Alpha  occ. eigenvalues --  -15.85594 -11.31043 -11.30782 -11.27668 -11.27495
 Alpha  occ. eigenvalues --  -11.27345 -11.27295 -11.27253 -11.27025 -11.26581
 Alpha  occ. eigenvalues --  -11.26444 -11.26345 -11.26214  -1.60008  -1.59624
 Alpha  occ. eigenvalues --   -1.39567  -1.39184  -1.19178  -1.18928  -1.08633
 Alpha  occ. eigenvalues --   -1.08360  -1.04535  -1.04295  -0.95515  -0.95230
 Alpha  occ. eigenvalues --   -0.85961  -0.85710  -0.82357  -0.82057  -0.77444
 Alpha  occ. eigenvalues --   -0.77130  -0.72183  -0.71837  -0.71345  -0.70934
 Alpha  occ. eigenvalues --   -0.70298  -0.70039  -0.64842  -0.64581  -0.64548
 Alpha  occ. eigenvalues --   -0.64291  -0.61904  -0.61645  -0.55058  -0.54824
 Alpha  occ. eigenvalues --   -0.52869  -0.52642  -0.52638  -0.52366  -0.48961
 Alpha  occ. eigenvalues --   -0.48907  -0.48586  -0.48564  -0.45025  -0.44629
 Alpha  occ. eigenvalues --   -0.37125  -0.36906  -0.36090  -0.35880
 Alpha virt. eigenvalues --    0.05061   0.05385   0.11497   0.11766   0.16609
 Alpha virt. eigenvalues --    0.16927   0.21502   0.21903   0.27058   0.27687
 Alpha virt. eigenvalues --    0.28476   0.28619   0.31280   0.31375   0.32434

 Mulliken charges:
               1
     1  C   -0.170903
     2  C   -0.217904
     3  C   -0.169118
     4  C    0.158265
     5  C   -0.171460
     6  C   -0.218644
     7  H    0.225223
     8  H    0.231508
     9  H    0.271698
    10  H    0.273698
    11  H    0.221863
    12  N    0.488524
    13  O   -0.461809
    14  O   -0.464617
    15  C   -0.168192
    16  C   -0.214203
    17  C   -0.160204
    18  C    0.155445
    19  C   -0.177308
    20  C   -0.216985
    21  H    0.226278
    22  H    0.226301
    23  H    0.278357
    24  H    0.269378
    25  H    0.221762
    26  N    0.488002
    27  O   -0.471349
    28  O   -0.453605
 Sum of Mulliken charges =  -0.00000

 Dipole moment (field-independent basis, Debye):
    X=              0.2975    Y=             -0.7466    Z=             -4.2303  Tot=              4.3059
 Quadrupole moment (field-independent basis, Debye-Ang):
   XX=            -77.8015   YY=           -112.1614   ZZ=           -103.6713
   XY=             18.8869   XZ=             -3.5821   YZ=              4.7325

 Normal termination of Gaussian 16 at Fri May  7 09:26:42 2021.
