 Gaussian 16, Revision A.03,
 Gaussian 16:  EM64L-G16RevA.03 25-Dec-2016

 -------------
 #p 6-31g* mp2
 -------------

 ------------------------------------------------------
 Input file generated by CHIRIPA (05-May-2021 14:53:15)
 ------------------------------------------------------
 Symbolic Z-matrix:
 Charge =  0 Multiplicity = 1

                         Standard orientation:
 ---------------------------------------------------------------------
 Center     Atomic      Atomic             Coordinates (Angstroms)
 Number     Number       Type             X           Y           Z
 ---------------------------------------------------------------------
      1          6           0       -5.486425    0.001613    0.339241
      2          6           0       -6.401878   -0.509951   -0.773518
      3          6           0       -7.688401   -1.139235   -0.238118
      4          1           0       -5.236986   -0.830546    1.011725
      5          1           0       -6.032455    0.739080    0.943716
      6          1           0       -5.853832   -1.245212   -1.376555
      7          1           0       -6.649013    0.323482   -1.443540
      8          1           0       -8.259229   -0.410692    0.346674
      9          1           0       -7.459531   -1.988299    0.414040
     10          1           0       -8.328033   -1.498156   -1.050464
     11          6           0       -4.196207    0.633450   -0.180228
     12          6           0       -3.280754    1.145015    0.932531
     13          6           0       -1.994231    1.774299    0.397131
     14          1           0       -3.650178   -0.104016   -0.784703
     15          1           0       -4.445647    1.465610   -0.852712
     16          1           0       -3.033620    0.311582    1.602553
     17          1           0       -3.828800    1.880276    1.535568
     18          1           0       -2.223102    2.623363   -0.255027
     19          1           0       -1.423404    1.045756   -0.187661
     20          1           0       -1.354599    2.133220    1.209477
     21          6           0        6.210547    0.432995   -0.136840
     22          6           0        5.860428   -0.872353    0.223721
     23          6           0        4.518167   -1.260785    0.268493
     24          6           0        3.547522   -0.313915   -0.054890
     25          6           0        3.864600    0.994128   -0.417901
     26          6           0        5.213273    1.360434   -0.455938
     27          1           0        7.255738    0.726144   -0.169004
     28          1           0        6.632800   -1.594728    0.472041
     29          1           0        4.219097   -2.264730    0.544297
     30          1           0        3.072282    1.691968   -0.660119
     31          1           0        5.482244    2.374878   -0.736304
     32          7           0        2.123137   -0.713418   -0.011058
     33          8           0        1.286892    0.139567   -0.300449
     34          8           0        1.869918   -1.871969    0.311861
 ---------------------------------------------------------------------

 SCF Done:  E(RHF) =  -669.536026175     A.U. after   15 cycles
 E2 =    -0.2090653450D+01 EUMP2 =    -0.67162667962525D+03

 The electronic state is 1-A.
 Alpha  occ. eigenvalues --  -20.60919 -20.60904 -15.85951 -11.31274 -11.27839
 Alpha  occ. eigenvalues --  -11.27832 -11.27578 -11.26848 -11.26837 -11.20912
 Alpha  occ. eigenvalues --  -11.20562 -11.20494 -11.20423 -11.20347 -11.19504
 Alpha  occ. eigenvalues --   -1.59979  -1.39535  -1.19444  -1.08849  -1.07499
 Alpha  occ. eigenvalues --   -1.04840  -1.02545  -0.95692  -0.94978  -0.86241
 Alpha  occ. eigenvalues --   -0.85995  -0.82523  -0.78639  -0.77574  -0.77289
 Alpha  occ. eigenvalues --   -0.72178  -0.71294  -0.70552  -0.65100  -0.64844
 Alpha  occ. eigenvalues --   -0.64128  -0.62187  -0.59929  -0.58406  -0.56596
 Alpha  occ. eigenvalues --   -0.55347  -0.54249  -0.53173  -0.52932  -0.51680
 Alpha  occ. eigenvalues --   -0.51409  -0.49138  -0.48927  -0.48695  -0.46934
 Alpha  occ. eigenvalues --   -0.45662  -0.44948  -0.44833  -0.44713  -0.42814
 Alpha  occ. eigenvalues --   -0.37424  -0.36442
 Alpha virt. eigenvalues --    0.04957   0.11213   0.16455   0.21344   0.23769
 Alpha virt. eigenvalues --    0.25349   0.27266   0.27568   0.28172   0.28409
 Alpha virt. eigenvalues --    0.29088   0.30915   0.32309   0.32520   0.32693

 Mulliken charges:
               1
     1  C   -0.297717
     2  C   -0.299149
     3  C   -0.475240
     4  H    0.149950
     5  H    0.146944
     6  H    0.152549
     7  H    0.150267
     8  H    0.153772
     9  H    0.154958
    10  H    0.158270
    11  C   -0.298399
    12  C   -0.299014
    13  C   -0.481638
    14  H    0.153612
    15  H    0.146171
    16  H    0.153463
    17  H    0.145267
    18  H    0.145097
    19  H    0.182578
    20  H    0.155153
    21  C   -0.170618
    22  C   -0.218627
    23  C   -0.170538
    24  C    0.157595
    25  C   -0.170932
    26  C   -0.218581
    27  H    0.225911
    28  H    0.223708
    29  H    0.275751
    30  H    0.276294
    31  H    0.223835
    32  N    0.492134
    33  O   -0.462936
    34  O   -0.459888
 Sum of Mulliken charges =  -0.00000

 Dipole moment (field-independent basis, Debye):
    X=              5.3494    Y=              1.3025    Z=             -0.2022  Tot=              5.5094
 Quadrupole moment (field-independent basis, Debye-Ang):
   XX=            -61.3367   YY=            -91.2682   ZZ=            -95.3910
   XY=              1.5613   XZ=             -0.0470   YZ=             -1.6120

 Normal termination of Gaussian 16 at Wed May  5 20:16:27 2021.
