 Gaussian 16, Revision A.03,
 Gaussian 16:  EM64L-G16RevA.03 25-Dec-2016

 -------------
 #p 6-31g* mp2
 -------------

 ------------------------------------------------------
 Input file generated by CHIRIPA (05-May-2021 14:55:25)
 ------------------------------------------------------
 Symbolic Z-matrix:
 Charge =  0 Multiplicity = 1

                         Standard orientation:
 ---------------------------------------------------------------------
 Center     Atomic      Atomic             Coordinates (Angstroms)
 Number     Number       Type             X           Y           Z
 ---------------------------------------------------------------------
      1          6           0        3.986372    0.185010   -1.619701
      2          6           0        3.338359   -1.052678   -1.688457
      3          6           0        2.438606   -1.439431   -0.690752
      4          6           0        2.209424   -0.559894    0.366215
      5          6           0        2.839496    0.679846    0.462880
      6          6           0        3.735315    1.045805   -0.546144
      7          1           0        4.683794    0.477372   -2.399139
      8          1           0        3.531396   -1.723209   -2.521026
      9          1           0        1.923207   -2.391784   -0.719132
     10          1           0        2.626648    1.326915    1.305148
     11          1           0        4.237131    2.007620   -0.490143
     12          7           0        1.258978   -0.958324    1.428433
     13          8           0        1.074307   -0.165426    2.349219
     14          8           0        0.716687   -2.055967    1.320100
     15          6           0       -3.492508    0.089927    0.026779
     16          6           0       -4.307339   -0.610938   -1.060798
     17          6           0       -5.230723   -1.694012   -0.502135
     18          1           0       -2.897282   -0.657459    0.569056
     19          1           0       -4.179146    0.534755    0.760300
     20          1           0       -3.619393   -1.053128   -1.792793
     21          1           0       -4.900549    0.138229   -1.600675
     22          1           0       -5.939846   -1.264473    0.212875
     23          1           0       -4.651412   -2.462598    0.019666
     24          1           0       -5.803731   -2.182082   -1.296686
     25          6           0       -2.564628    1.175296   -0.516120
     26          6           0       -1.749798    1.876160    0.571458
     27          6           0       -0.826414    2.959235    0.012793
     28          1           0       -1.877991    0.730467   -1.249641
     29          1           0       -3.159854    1.922681   -1.058398
     30          1           0       -1.156588    1.126993    1.111333
     31          1           0       -2.437744    2.318350    1.303452
     32          1           0       -1.405725    3.727820   -0.509007
     33          1           0       -0.117290    2.529694   -0.702217
     34          1           0       -0.253407    3.447303    0.807344
 ---------------------------------------------------------------------

 SCF Done:  E(RHF) =  -669.536492049     A.U. after   15 cycles
 E2 =    -0.2092081020D+01 EUMP2 =    -0.67162857306948D+03

 The electronic state is 1-A.
 Alpha  occ. eigenvalues --  -20.61010 -20.61001 -15.86020 -11.31314 -11.27875
 Alpha  occ. eigenvalues --  -11.27869 -11.27603 -11.26872 -11.26861 -11.21065
 Alpha  occ. eigenvalues --  -11.20873 -11.20809 -11.20722 -11.20665 -11.20531
 Alpha  occ. eigenvalues --   -1.60063  -1.39619  -1.19479  -1.08889  -1.07824
 Alpha  occ. eigenvalues --   -1.04868  -1.02976  -0.95736  -0.95456  -0.86478
 Alpha  occ. eigenvalues --   -0.86268  -0.82569  -0.79024  -0.77643  -0.77600
 Alpha  occ. eigenvalues --   -0.72244  -0.71386  -0.70584  -0.65134  -0.64868
 Alpha  occ. eigenvalues --   -0.64450  -0.62215  -0.60376  -0.58818  -0.57051
 Alpha  occ. eigenvalues --   -0.55375  -0.54764  -0.53199  -0.52957  -0.52171
 Alpha  occ. eigenvalues --   -0.51877  -0.49402  -0.49014  -0.49005  -0.47359
 Alpha  occ. eigenvalues --   -0.46119  -0.45257  -0.45158  -0.44720  -0.43222
 Alpha  occ. eigenvalues --   -0.37453  -0.36459
 Alpha virt. eigenvalues --    0.04866   0.11164   0.16353   0.21240   0.23291
 Alpha virt. eigenvalues --    0.24611   0.27144   0.27200   0.27863   0.28282
 Alpha virt. eigenvalues --    0.28704   0.30858   0.31704   0.31917   0.32464

 Mulliken charges:
               1
     1  C   -0.170450
     2  C   -0.218619
     3  C   -0.171023
     4  C    0.157562
     5  C   -0.169508
     6  C   -0.218898
     7  H    0.226219
     8  H    0.223909
     9  H    0.275659
    10  H    0.276692
    11  H    0.224382
    12  N    0.487186
    13  O   -0.457766
    14  O   -0.459092
    15  C   -0.301109
    16  C   -0.298594
    17  C   -0.476015
    18  H    0.160825
    19  H    0.148919
    20  H    0.149508
    21  H    0.149096
    22  H    0.154689
    23  H    0.158826
    24  H    0.157356
    25  C   -0.297435
    26  C   -0.308521
    27  C   -0.476290
    28  H    0.144787
    29  H    0.146082
    30  H    0.169075
    31  H    0.151967
    32  H    0.152846
    33  H    0.149895
    34  H    0.157837
 Sum of Mulliken charges =  -0.00000

 Dipole moment (field-independent basis, Debye):
    X=              3.4992    Y=              1.2707    Z=             -3.5972  Tot=              5.1768
 Quadrupole moment (field-independent basis, Debye-Ang):
   XX=            -80.6433   YY=            -93.3018   ZZ=            -97.0125
   XY=              1.2011   XZ=             -7.1361   YZ=              5.3595

 Normal termination of Gaussian 16 at Thu May  6 16:04:25 2021.
