 Gaussian 16, Revision A.03,
 Gaussian 16:  EM64L-G16RevA.03 25-Dec-2016

 -------------
 #p 6-31g* mp2
 -------------

 ------------------------------------------------------
 Input file generated by CHIRIPA (05-May-2021 14:53:12)
 ------------------------------------------------------
 Symbolic Z-matrix:
 Charge =  0 Multiplicity = 1

                         Standard orientation:
 ---------------------------------------------------------------------
 Center     Atomic      Atomic             Coordinates (Angstroms)
 Number     Number       Type             X           Y           Z
 ---------------------------------------------------------------------
      1          6           0       -4.117019   -0.606311   -0.095995
      2          6           0       -3.279701   -1.823662   -0.489620
      3          6           0       -4.061720   -3.134214   -0.396373
      4          1           0       -4.488896   -0.740921    0.928960
      5          1           0       -5.001994   -0.553284   -0.745150
      6          1           0       -2.395854   -1.873591    0.159177
      7          1           0       -2.909616   -1.686051   -1.513689
      8          1           0       -4.934686   -3.109729   -1.056624
      9          1           0       -4.418005   -3.298334    0.625746
     10          1           0       -3.444158   -3.991429   -0.682135
     11          6           0       -3.349055    0.711335   -0.184130
     12          6           0       -4.186373    1.928686    0.209495
     13          6           0       -3.404355    3.239238    0.116248
     14          1           0       -2.464081    0.658308    0.465025
     15          1           0       -2.977178    0.845945   -1.209085
     16          1           0       -4.556459    1.791075    1.233564
     17          1           0       -5.070220    1.978614   -0.439301
     18          1           0       -3.048070    3.403358   -0.905871
     19          1           0       -2.531389    3.214753    0.776499
     20          1           0       -4.021916    4.096453    0.402010
     21          6           0        0.556266   -0.233395    0.980353
     22          6           0        1.637376   -0.531285    1.816406
     23          6           0        2.949335   -0.428176    1.344516
     24          6           0        3.144608   -0.022427    0.025225
     25          6           0        2.088272    0.281306   -0.832207
     26          6           0        0.784761    0.171236   -0.338959
     27          1           0       -0.459614   -0.316195    1.355224
     28          1           0        1.462918   -0.845768    2.841448
     29          1           0        3.804648   -0.652670    1.970183
     30          1           0        2.293740    0.592261   -1.849314
     31          1           0       -0.052919    0.403223   -0.990510
     32          7           0        4.529048    0.090414   -0.485648
     33          8           0        4.674439    0.450022   -1.651916
     34          8           0        5.442567   -0.182886    0.289869
 ---------------------------------------------------------------------

 SCF Done:  E(RHF) =  -669.535311600     A.U. after   15 cycles
 E2 =    -0.2092401342D+01 EUMP2 =    -0.67162771294157D+03

 The electronic state is 1-A.
 Alpha  occ. eigenvalues --  -20.60713 -20.60708 -15.85765 -11.31122 -11.27683
 Alpha  occ. eigenvalues --  -11.27666 -11.27395 -11.26706 -11.26648 -11.22699
 Alpha  occ. eigenvalues --  -11.22664 -11.22557 -11.22429 -11.21899 -11.21884
 Alpha  occ. eigenvalues --   -1.59789  -1.39343  -1.19285  -1.09531  -1.08680
 Alpha  occ. eigenvalues --   -1.04682  -1.04491  -0.96938  -0.95524  -0.87945
 Alpha  occ. eigenvalues --   -0.86080  -0.82356  -0.80566  -0.79400  -0.77396
 Alpha  occ. eigenvalues --   -0.71983  -0.71111  -0.70433  -0.66161  -0.64932
 Alpha  occ. eigenvalues --   -0.64676  -0.62031  -0.61885  -0.60301  -0.58553
 Alpha  occ. eigenvalues --   -0.56247  -0.55198  -0.53576  -0.53365  -0.53010
 Alpha  occ. eigenvalues --   -0.52763  -0.50877  -0.48874  -0.48741  -0.48740
 Alpha  occ. eigenvalues --   -0.47613  -0.46859  -0.46814  -0.44788  -0.44750
 Alpha  occ. eigenvalues --   -0.37259  -0.36284
 Alpha virt. eigenvalues --    0.05103   0.11335   0.16546   0.19056   0.22768
 Alpha virt. eigenvalues --    0.23308   0.24099   0.25156   0.27062   0.28060
 Alpha virt. eigenvalues --    0.30274   0.30356   0.30956   0.31121   0.31516

 Mulliken charges:
               1
     1  C   -0.298604
     2  C   -0.302649
     3  C   -0.476158
     4  H    0.151264
     5  H    0.154585
     6  H    0.146318
     7  H    0.153150
     8  H    0.158245
     9  H    0.156206
    10  H    0.163720
    11  C   -0.305264
    12  C   -0.299664
    13  C   -0.477066
    14  H    0.142511
    15  H    0.149500
    16  H    0.153888
    17  H    0.156092
    18  H    0.155905
    19  H    0.154953
    20  H    0.164591
    21  C   -0.176521
    22  C   -0.218641
    23  C   -0.171128
    24  C    0.158635
    25  C   -0.171583
    26  C   -0.221320
    27  H    0.230361
    28  H    0.223112
    29  H    0.275227
    30  H    0.275384
    31  H    0.228102
    32  N    0.488036
    33  O   -0.460564
    34  O   -0.460626
 Sum of Mulliken charges =  -0.00000

 Dipole moment (field-independent basis, Debye):
    X=             -5.1563    Y=             -0.3868    Z=              1.7509  Tot=              5.4592
 Quadrupole moment (field-independent basis, Debye-Ang):
   XX=           -124.4458   YY=            -95.6217   ZZ=            -89.8721
   XY=             -2.2338   XZ=              7.8036   YZ=             -1.5850

 Normal termination of Gaussian 16 at Thu May  6 15:17:48 2021.
