 Gaussian 16, Revision A.03,
 Gaussian 16:  EM64L-G16RevA.03 25-Dec-2016

 -------------
 #p 6-31g* mp2
 -------------

 ------------------------------------------------------
 Input file generated by CHIRIPA (05-May-2021 14:55:25)
 ------------------------------------------------------
 Symbolic Z-matrix:
 Charge =  0 Multiplicity = 1

                         Standard orientation:
 ---------------------------------------------------------------------
 Center     Atomic      Atomic             Coordinates (Angstroms)
 Number     Number       Type             X           Y           Z
 ---------------------------------------------------------------------
      1          6           0        4.141564    1.261965    0.932583
      2          6           0        2.822184    1.670470    0.711498
      3          6           0        1.890519    0.790306    0.153054
      4          6           0        2.314373   -0.496844   -0.173875
      5          6           0        3.621776   -0.933511    0.034231
      6          6           0        4.536453   -0.036433    0.593841
      7          1           0        4.858706    1.952267    1.366849
      8          1           0        2.512695    2.678224    0.973592
      9          1           0        0.862809    1.080384   -0.028839
     10          1           0        3.900648   -1.944402   -0.237337
     11          1           0        5.560443   -0.356428    0.764413
     12          7           0        1.337053   -1.437588   -0.765693
     13          8           0        1.735494   -2.566240   -1.045022
     14          8           0        0.191094   -1.028477   -0.939024
     15          6           0       -3.696671   -0.012403    0.417287
     16          6           0       -3.327651   -1.495959    0.387806
     17          6           0       -4.393977   -2.383254    1.030808
     18          1           0       -3.855341    0.298809    1.458880
     19          1           0       -4.655008    0.130273   -0.101008
     20          1           0       -2.369613   -1.635599    0.904798
     21          1           0       -3.169654   -1.803629   -0.653823
     22          1           0       -5.351218   -2.273418    0.510973
     23          1           0       -4.546632   -2.104433    2.078451
     24          1           0       -4.109824   -3.439708    0.998845
     25          6           0       -2.640472    0.887406   -0.221865
     26          6           0       -3.009493    2.370963   -0.192384
     27          6           0       -1.943166    3.258258   -0.835386
     28          1           0       -1.682136    0.744731    0.296430
     29          1           0       -2.481802    0.576195   -1.263458
     30          1           0       -3.167491    2.678633    0.849245
     31          1           0       -3.967531    2.510603   -0.709376
     32          1           0       -1.790512    2.979436   -1.883029
     33          1           0       -0.985926    3.148421   -0.315552
     34          1           0       -2.227319    4.314711   -0.803423
 ---------------------------------------------------------------------

 SCF Done:  E(RHF) =  -669.535319210     A.U. after   15 cycles
 E2 =    -0.2092959745D+01 EUMP2 =    -0.67162827895526D+03

 The electronic state is 1-A.
 Alpha  occ. eigenvalues --  -20.60865 -20.60859 -15.85894 -11.31235 -11.27804
 Alpha  occ. eigenvalues --  -11.27783 -11.27544 -11.26816 -11.26803 -11.21280
 Alpha  occ. eigenvalues --  -11.21151 -11.20629 -11.20567 -11.20436 -11.20204
 Alpha  occ. eigenvalues --   -1.59933  -1.39487  -1.19408  -1.08810  -1.07733
 Alpha  occ. eigenvalues --   -1.04806  -1.02928  -0.95654  -0.95415  -0.86452
 Alpha  occ. eigenvalues --   -0.86207  -0.82489  -0.78987  -0.77739  -0.77225
 Alpha  occ. eigenvalues --   -0.72105  -0.71247  -0.70521  -0.65062  -0.64835
 Alpha  occ. eigenvalues --   -0.64373  -0.62160  -0.60338  -0.58819  -0.56978
 Alpha  occ. eigenvalues --   -0.55312  -0.54745  -0.53138  -0.52905  -0.52152
 Alpha  occ. eigenvalues --   -0.51846  -0.49428  -0.48897  -0.48885  -0.47257
 Alpha  occ. eigenvalues --   -0.45998  -0.45220  -0.44912  -0.44577  -0.43133
 Alpha  occ. eigenvalues --   -0.37389  -0.36407
 Alpha virt. eigenvalues --    0.04963   0.11226   0.16453   0.19845   0.23279
 Alpha virt. eigenvalues --    0.24260   0.26128   0.27528   0.27741   0.28539
 Alpha virt. eigenvalues --    0.29490   0.31001   0.31616   0.32285   0.32483

 Mulliken charges:
               1
     1  C   -0.170328
     2  C   -0.221542
     3  C   -0.177719
     4  C    0.155776
     5  C   -0.169861
     6  C   -0.219040
     7  H    0.225840
     8  H    0.223963
     9  H    0.288094
    10  H    0.275641
    11  H    0.223617
    12  N    0.490414
    13  O   -0.459841
    14  O   -0.462756
    15  C   -0.299649
    16  C   -0.296725
    17  C   -0.476358
    18  H    0.143732
    19  H    0.146267
    20  H    0.156990
    21  H    0.161458
    22  H    0.151806
    23  H    0.150284
    24  H    0.160747
    25  C   -0.298331
    26  C   -0.300355
    27  C   -0.473938
    28  H    0.151292
    29  H    0.160208
    30  H    0.148260
    31  H    0.152312
    32  H    0.159609
    33  H    0.140534
    34  H    0.159598
 Sum of Mulliken charges =  -0.00000

 Dipole moment (field-independent basis, Debye):
    X=              3.5560    Y=              3.1395    Z=              1.9239  Tot=              5.1189
 Quadrupole moment (field-independent basis, Debye-Ang):
   XX=            -77.4118   YY=            -96.9759   ZZ=            -95.7265
   XY=              2.8653   XZ=              5.4582   YZ=             -0.8831

 Normal termination of Gaussian 16 at Wed May  5 22:29:36 2021.
