 Gaussian 16, Revision A.03,
 Gaussian 16:  EM64L-G16RevA.03 25-Dec-2016

 -------------
 #p 6-31g* mp2
 -------------

 ------------------------------------------------------
 Input file generated by CHIRIPA (05-May-2021 14:57:27)
 ------------------------------------------------------
 Symbolic Z-matrix:
 Charge =  0 Multiplicity = 1

                         Standard orientation:
 ---------------------------------------------------------------------
 Center     Atomic      Atomic             Coordinates (Angstroms)
 Number     Number       Type             X           Y           Z
 ---------------------------------------------------------------------
      1          6           0       -5.702806    0.706388   -1.123108
      2          6           0       -5.546966   -0.663353   -0.886368
      3          6           0       -4.435640   -1.140788   -0.185256
      4          6           0       -3.495310   -0.216292    0.266826
      5          6           0       -3.622429    1.154371    0.046796
      6          6           0       -4.741734    1.609286   -0.656592
      7          1           0       -6.569210    1.068524   -1.668632
      8          1           0       -6.291755   -1.366860   -1.247493
      9          1           0       -4.290157   -2.195939    0.011997
     10          1           0       -2.863214    1.831380    0.419180
     11          1           0       -4.860158    2.673596   -0.838983
     12          7           0       -2.314575   -0.709811    1.010266
     13          8           0       -1.500304    0.125172    1.398086
     14          8           0       -2.225744   -1.922268    1.191079
     15          6           0        3.061667    2.541120    0.281847
     16          6           0        4.389820    2.203525    0.001564
     17          6           0        4.749354    0.873574   -0.236162
     18          6           0        3.750646   -0.097665   -0.185495
     19          6           0        2.418777    0.207097    0.091156
     20          6           0        2.082111    1.543588    0.325670
     21          1           0        2.791254    3.576798    0.465270
     22          1           0        5.152660    2.976129   -0.033117
     23          1           0        5.769982    0.584342   -0.455440
     24          1           0        1.680514   -0.585125    0.118904
     25          1           0        1.049854    1.802847    0.543100
     26          7           0        4.119164   -1.509087   -0.435465
     27          8           0        3.220580   -2.346131   -0.385067
     28          8           0        5.299614   -1.751588   -0.677056
 ---------------------------------------------------------------------

 SCF Done:  E(RHF) =  -868.339393483     A.U. after   16 cycles
 E2 =    -0.2598793843D+01 EUMP2 =    -0.87093818732579D+03

 The electronic state is 1-A.
 Alpha  occ. eigenvalues --  -20.61548 -20.61455 -20.59959 -20.59932 -15.86532
 Alpha  occ. eigenvalues --  -15.84995 -11.31718 -11.30280 -11.28314 -11.28222
 Alpha  occ. eigenvalues --  -11.27960 -11.27258 -11.27203 -11.26914 -11.26702
 Alpha  occ. eigenvalues --  -11.26634 -11.25952 -11.25721  -1.60557  -1.59027
 Alpha  occ. eigenvalues --   -1.40120  -1.38579  -1.19870  -1.18455  -1.09294
 Alpha  occ. eigenvalues --   -1.07887  -1.05249  -1.03817  -0.96161  -0.94725
 Alpha  occ. eigenvalues --   -0.86655  -0.85240  -0.83005  -0.81533  -0.78077
 Alpha  occ. eigenvalues --   -0.76576  -0.72754  -0.71864  -0.71216  -0.70978
 Alpha  occ. eigenvalues --   -0.70350  -0.69589  -0.65528  -0.65248  -0.64101
 Alpha  occ. eigenvalues --   -0.63813  -0.62604  -0.61136  -0.55748  -0.54393
 Alpha  occ. eigenvalues --   -0.53581  -0.53340  -0.52197  -0.51892  -0.49526
 Alpha  occ. eigenvalues --   -0.49476  -0.47981  -0.47963  -0.45559  -0.44001
 Alpha  occ. eigenvalues --   -0.37832  -0.36841  -0.36487  -0.35423
 Alpha virt. eigenvalues --    0.04425   0.05917   0.10815   0.12210   0.15935
 Alpha virt. eigenvalues --    0.17411   0.20808   0.22337   0.26532   0.27299
 Alpha virt. eigenvalues --    0.28679   0.29164   0.30507   0.31446   0.32667

 Mulliken charges:
               1
     1  C   -0.169992
     2  C   -0.218264
     3  C   -0.169848
     4  C    0.158438
     5  C   -0.170636
     6  C   -0.218107
     7  H    0.227525
     8  H    0.226004
     9  H    0.278320
    10  H    0.270196
    11  H    0.223840
    12  N    0.490483
    13  O   -0.473882
    14  O   -0.451111
    15  C   -0.172055
    16  C   -0.219059
    17  C   -0.172544
    18  C    0.157623
    19  C   -0.172251
    20  C   -0.222601
    21  H    0.220949
    22  H    0.219369
    23  H    0.272553
    24  H    0.285657
    25  H    0.234003
    26  N    0.487735
    27  O   -0.457753
    28  O   -0.464590
 Sum of Mulliken charges =  -0.00000

 Dipole moment (field-independent basis, Debye):
    X=             -5.9904    Y=              6.4880    Z=             -1.7271  Tot=              8.9979
 Quadrupole moment (field-independent basis, Debye-Ang):
   XX=            -81.2582   YY=           -102.5183   ZZ=           -108.1074
   XY=             16.9184   XZ=             11.6556   YZ=              0.1970

 Normal termination of Gaussian 16 at Fri May  7 03:35:21 2021.
