 Gaussian 16, Revision A.03,
 Gaussian 16:  EM64L-G16RevA.03 25-Dec-2016

 -------------
 #p 6-31g* mp2
 -------------

 ------------------------------------------------------
 Input file generated by CHIRIPA (05-May-2021 14:55:25)
 ------------------------------------------------------
 Symbolic Z-matrix:
 Charge =  0 Multiplicity = 1

                         Standard orientation:
 ---------------------------------------------------------------------
 Center     Atomic      Atomic             Coordinates (Angstroms)
 Number     Number       Type             X           Y           Z
 ---------------------------------------------------------------------
      1          6           0       -1.437875    1.508139    0.174074
      2          6           0       -1.439528    0.458890   -0.750910
      3          6           0       -2.536713   -0.402362   -0.845668
      4          6           0       -3.620280   -0.184319    0.003820
      5          6           0       -3.648531    0.852123    0.935635
      6          6           0       -2.540437    1.701067    1.012916
      7          1           0       -0.581318    2.172399    0.240896
      8          1           0       -0.584646    0.306671   -1.403635
      9          1           0       -2.564375   -1.222554   -1.552732
     10          1           0       -4.515284    0.978695    1.572924
     11          1           0       -2.541918    2.515099    1.732216
     12          7           0       -4.787594   -1.089572   -0.087244
     13          8           0       -5.729922   -0.876227    0.672452
     14          8           0       -4.738104   -1.995314   -0.916593
     15          6           0        5.007991   -0.333645    0.211134
     16          6           0        4.864662   -1.852792    0.112991
     17          6           0        6.113724   -2.596278    0.587191
     18          1           0        5.874553   -0.014286   -0.383867
     19          1           0        5.225786   -0.059412    1.252650
     20          1           0        4.645832   -2.123964   -0.927776
     21          1           0        3.998226   -2.168549    0.708139
     22          1           0        6.332263   -2.354722    1.632415
     23          1           0        6.983549   -2.309883   -0.012795
     24          1           0        5.989495   -3.680819    0.508455
     25          6           0        3.767413    0.423557   -0.259335
     26          6           0        3.910742    1.942704   -0.161192
     27          6           0        2.661679    2.686190   -0.635392
     28          1           0        3.549617    0.149324   -1.300851
     29          1           0        2.900850    0.104198    0.335665
     30          1           0        4.777178    2.258462   -0.756341
     31          1           0        4.129571    2.213876    0.879575
     32          1           0        1.791854    2.399794   -0.035406
     33          1           0        2.443141    2.444634   -1.680616
     34          1           0        2.785908    3.770730   -0.556656
 ---------------------------------------------------------------------

 SCF Done:  E(RHF) =  -669.535636325     A.U. after   15 cycles
 E2 =    -0.2090928804D+01 EUMP2 =    -0.67162656512900D+03

 The electronic state is 1-A.
 Alpha  occ. eigenvalues --  -20.60723 -20.60718 -15.85776 -11.31132 -11.27701
 Alpha  occ. eigenvalues --  -11.27694 -11.27408 -11.26711 -11.26691 -11.22544
 Alpha  occ. eigenvalues --  -11.22348 -11.22229 -11.22122 -11.22005 -11.21480
 Alpha  occ. eigenvalues --   -1.59799  -1.39353  -1.19301  -1.09188  -1.08695
 Alpha  occ. eigenvalues --   -1.04703  -1.04302  -0.96776  -0.95534  -0.87797
 Alpha  occ. eigenvalues --   -0.86097  -0.82369  -0.80381  -0.78968  -0.77416
 Alpha  occ. eigenvalues --   -0.71994  -0.71122  -0.70426  -0.65814  -0.64951
 Alpha  occ. eigenvalues --   -0.64705  -0.62051  -0.61700  -0.60153  -0.58372
 Alpha  occ. eigenvalues --   -0.56150  -0.55171  -0.53454  -0.53178  -0.53033
 Alpha  occ. eigenvalues --   -0.52791  -0.50714  -0.48755  -0.48750  -0.48683
 Alpha  occ. eigenvalues --   -0.47398  -0.46518  -0.46411  -0.44760  -0.44537
 Alpha  occ. eigenvalues --   -0.37277  -0.36310
 Alpha virt. eigenvalues --    0.05112   0.11336   0.16588   0.19667   0.22421
 Alpha virt. eigenvalues --    0.23822   0.25215   0.26099   0.26774   0.27496
 Alpha virt. eigenvalues --    0.28884   0.30220   0.30925   0.31412   0.32008

 Mulliken charges:
               1
     1  C   -0.176782
     2  C   -0.221479
     3  C   -0.171004
     4  C    0.158313
     5  C   -0.170865
     6  C   -0.219697
     7  H    0.234629
     8  H    0.224580
     9  H    0.275429
    10  H    0.275310
    11  H    0.223612
    12  N    0.488032
    13  O   -0.460601
    14  O   -0.460592
    15  C   -0.298706
    16  C   -0.300408
    17  C   -0.476163
    18  H    0.151319
    19  H    0.151000
    20  H    0.152089
    21  H    0.152761
    22  H    0.155996
    23  H    0.155884
    24  H    0.162230
    25  C   -0.299672
    26  C   -0.299171
    27  C   -0.481545
    28  H    0.148557
    29  H    0.148289
    30  H    0.156183
    31  H    0.154552
    32  H    0.146405
    33  H    0.156329
    34  H    0.165187
 Sum of Mulliken charges =  -0.00000

 Dipole moment (field-independent basis, Debye):
    X=              4.3614    Y=              3.1818    Z=              0.3230  Tot=              5.4083
 Quadrupole moment (field-independent basis, Debye-Ang):
   XX=           -123.7329   YY=            -95.4456   ZZ=            -91.6844
   XY=            -13.0964   XZ=             -3.6801   YZ=              2.3008

 Normal termination of Gaussian 16 at Wed May  5 16:08:27 2021.
