 Gaussian 16, Revision A.03,
 Gaussian 16:  EM64L-G16RevA.03 25-Dec-2016

 -------------
 #p 6-31g* mp2
 -------------

 ------------------------------------------------------
 Input file generated by CHIRIPA (05-May-2021 14:51:09)
 ------------------------------------------------------
 Symbolic Z-matrix:
 Charge =  0 Multiplicity = 1

                         Standard orientation:
 ---------------------------------------------------------------------
 Center     Atomic      Atomic             Coordinates (Angstroms)
 Number     Number       Type             X           Y           Z
 ---------------------------------------------------------------------
      1          6           0        2.375506   -0.421087   -0.266840
      2          6           0        2.959145   -1.775072   -0.671901
      3          6           0        1.883865   -2.837736   -0.900618
      4          1           0        1.779660   -0.544650    0.647844
      5          1           0        1.681989   -0.080112   -1.047971
      6          1           0        3.652408   -2.112743    0.109112
      7          1           0        3.553828   -1.648236   -1.585620
      8          1           0        1.197184   -2.526341   -1.694409
      9          1           0        1.296324   -2.993487    0.009952
     10          1           0        2.323130   -3.797722   -1.189291
     11          6           0        3.438100    0.651620   -0.034632
     12          6           0        2.854460    2.005605    0.370429
     13          6           0        3.929741    3.068269    0.599146
     14          1           0        4.131616    0.310645    0.746499
     15          1           0        4.033945    0.775183   -0.949315
     16          1           0        2.259778    1.878769    1.284148
     17          1           0        2.161198    2.343276   -0.410584
     18          1           0        4.517282    3.224020   -0.311424
     19          1           0        4.616422    2.756874    1.392937
     20          1           0        3.490476    4.028255    0.887819
     21          6           0       -2.942834   -0.863374    0.300628
     22          6           0       -1.589965   -1.474086    0.667727
     23          6           0       -1.678331   -2.971321    0.964838
     24          1           0       -3.650479   -1.034229    1.123424
     25          1           0       -3.348879   -1.388553   -0.574991
     26          1           0       -1.185952   -0.946999    1.541551
     27          1           0       -0.885405   -1.301591   -0.155958
     28          1           0       -2.057693   -3.515204    0.093703
     29          1           0       -2.359948   -3.158598    1.800856
     30          1           0       -0.700039   -3.387418    1.224965
     31          6           0       -2.870771    0.632842    0.000844
     32          6           0       -4.223641    1.243553   -0.366255
     33          6           0       -4.135274    2.740788   -0.663366
     34          1           0       -2.464726    1.158020    0.876463
     35          1           0       -2.163127    0.803696   -0.821953
     36          1           0       -4.928200    1.071058    0.457430
     37          1           0       -4.627654    0.716466   -1.240080
     38          1           0       -3.453658    2.928065   -1.499386
     39          1           0       -3.755912    3.284671    0.207769
     40          1           0       -5.113567    3.156886   -0.923493
 ---------------------------------------------------------------------

 SCF Done:  E(RHF) =  -470.732599156     A.U. after   11 cycles
 E2 =    -0.1583964571D+01 EUMP2 =    -0.47231656372723D+03

 The electronic state is 1-A.
 Alpha  occ. eigenvalues --  -11.21591 -11.21585 -11.21582 -11.21503 -11.21385
 Alpha  occ. eigenvalues --  -11.21369 -11.21324 -11.21308 -11.21060 -11.21059
 Alpha  occ. eigenvalues --  -11.21035 -11.21023  -1.08437  -1.08374  -1.03565
 Alpha  occ. eigenvalues --   -1.03451  -0.96018  -0.95903  -0.87038  -0.86916
 Alpha  occ. eigenvalues --   -0.79638  -0.79518  -0.78345  -0.78078  -0.65056
 Alpha  occ. eigenvalues --   -0.65023  -0.60962  -0.60896  -0.59474  -0.59214
 Alpha  occ. eigenvalues --   -0.57752  -0.57399  -0.55295  -0.55201  -0.52741
 Alpha  occ. eigenvalues --   -0.52653  -0.52489  -0.52195  -0.49924  -0.49859
 Alpha  occ. eigenvalues --   -0.47961  -0.47820  -0.46631  -0.46570  -0.46016
 Alpha  occ. eigenvalues --   -0.45764  -0.45609  -0.45378  -0.43775  -0.43740
 Alpha virt. eigenvalues --    0.21291   0.23206   0.23287   0.24600   0.25511
 Alpha virt. eigenvalues --    0.26266   0.26759   0.27601   0.28559   0.29453
 Alpha virt. eigenvalues --    0.29922   0.31423   0.31502   0.31812   0.32157

 Mulliken charges:
               1
     1  C   -0.300506
     2  C   -0.299352
     3  C   -0.481356
     4  H    0.153227
     5  H    0.148814
     6  H    0.151623
     7  H    0.151609
     8  H    0.154468
     9  H    0.162407
    10  H    0.160013
    11  C   -0.298368
    12  C   -0.299432
    13  C   -0.475712
    14  H    0.149387
    15  H    0.149473
    16  H    0.151925
    17  H    0.152009
    18  H    0.155118
    19  H    0.155085
    20  H    0.160251
    21  C   -0.298262
    22  C   -0.305294
    23  C   -0.477649
    24  H    0.149282
    25  H    0.149247
    26  H    0.150600
    27  H    0.160045
    28  H    0.155639
    29  H    0.154869
    30  H    0.161135
    31  C   -0.297954
    32  C   -0.299631
    33  C   -0.475623
    34  H    0.149550
    35  H    0.149297
    36  H    0.151915
    37  H    0.151799
    38  H    0.154985
    39  H    0.155205
    40  H    0.160161
 Sum of Mulliken charges =  -0.00000

 Dipole moment (field-independent basis, Debye):
    X=              0.0100    Y=             -0.0087    Z=             -0.0008  Tot=              0.0133
 Quadrupole moment (field-independent basis, Debye-Ang):
   XX=            -85.3612   YY=            -86.6400   ZZ=            -82.9490
   XY=             -0.5308   XZ=             -0.2151   YZ=              0.0342

 Normal termination of Gaussian 16 at Thu May  6 05:19:44 2021.
