 Gaussian 16, Revision A.03,
 Gaussian 16:  EM64L-G16RevA.03 25-Dec-2016

 -------------
 #p 6-31g* mp2
 -------------

 ------------------------------------------------------
 Input file generated by CHIRIPA (05-May-2021 14:57:24)
 ------------------------------------------------------
 Symbolic Z-matrix:
 Charge =  0 Multiplicity = 1

                         Standard orientation:
 ---------------------------------------------------------------------
 Center     Atomic      Atomic             Coordinates (Angstroms)
 Number     Number       Type             X           Y           Z
 ---------------------------------------------------------------------
      1          6           0       -2.285509   -0.013231    0.898591
      2          6           0       -2.907752   -1.222229    0.570476
      3          6           0       -4.212680   -1.235954    0.068957
      4          6           0       -4.868910   -0.016702   -0.092526
      5          6           0       -4.275921    1.204228    0.225252
      6          6           0       -2.970372    1.194010    0.725238
      7          1           0       -1.271568   -0.011869    1.287588
      8          1           0       -2.378293   -2.161310    0.704066
      9          1           0       -4.718194   -2.157470   -0.193117
     10          1           0       -4.829163    2.124321    0.081135
     11          1           0       -2.489624    2.134448    0.979212
     12          7           0       -6.250708   -0.018559   -0.622651
     13          8           0       -6.807360    1.069136   -0.755675
     14          8           0       -6.750944   -1.107674   -0.895101
     15          6           0        2.306161    0.121432    0.955213
     16          6           0        2.953520    1.295833    0.557428
     17          6           0        4.247311    1.249559    0.029686
     18          6           0        4.866914    0.006242   -0.086692
     19          6           0        4.248248   -1.181375    0.300748
     20          6           0        2.954448   -1.111249    0.825831
     21          1           0        1.301110    0.166642    1.364142
     22          1           0        2.452484    2.254552    0.656749
     23          1           0        4.771694    2.143270   -0.286101
     24          1           0        4.773339   -2.122293    0.189532
     25          1           0        2.454135   -2.024925    1.133935
     26          7           0        6.236597   -0.055371   -0.643982
     27          8           0        6.760827   -1.163214   -0.736204
     28          8           0        6.759990    1.005347   -0.978011
 ---------------------------------------------------------------------

 SCF Done:  E(RHF) =  -868.336039585     A.U. after   16 cycles
 E2 =    -0.2599654238D+01 EUMP2 =    -0.87093569382320D+03

 The electronic state is 1-A.
 Alpha  occ. eigenvalues --  -20.61313 -20.61308 -20.61301 -20.61296 -15.86372
 Alpha  occ. eigenvalues --  -15.86359 -11.31898 -11.31881 -11.28473 -11.28467
 Alpha  occ. eigenvalues --  -11.28457 -11.28452 -11.28415 -11.28397 -11.27594
 Alpha  occ. eigenvalues --  -11.27580 -11.27575 -11.27564  -1.60384  -1.60372
 Alpha  occ. eigenvalues --   -1.39933  -1.39921  -1.20099  -1.20083  -1.09502
 Alpha  occ. eigenvalues --   -1.09476  -1.05518  -1.05502  -0.96319  -0.96267
 Alpha  occ. eigenvalues --   -0.86928  -0.86911  -0.83146  -0.83078  -0.78108
 Alpha  occ. eigenvalues --   -0.78094  -0.72589  -0.72577  -0.71708  -0.71696
 Alpha  occ. eigenvalues --   -0.71525  -0.71073  -0.65767  -0.65750  -0.65556
 Alpha  occ. eigenvalues --   -0.65512  -0.62856  -0.62839  -0.56465  -0.55804
 Alpha  occ. eigenvalues --   -0.53845  -0.53823  -0.53628  -0.53611  -0.49364
 Alpha  occ. eigenvalues --   -0.49347  -0.49332  -0.49320  -0.45302  -0.45291
 Alpha  occ. eigenvalues --   -0.38149  -0.38093  -0.37104  -0.37088
 Alpha virt. eigenvalues --    0.04387   0.04459   0.10536   0.10555   0.15738
 Alpha virt. eigenvalues --    0.15921   0.17388   0.21871   0.24484   0.26283
 Alpha virt. eigenvalues --    0.26797   0.29303   0.29559   0.31680   0.32044

 Mulliken charges:
               1
     1  C   -0.172343
     2  C   -0.219167
     3  C   -0.169675
     4  C    0.159458
     5  C   -0.169732
     6  C   -0.219431
     7  H    0.219076
     8  H    0.222941
     9  H    0.277909
    10  H    0.277796
    11  H    0.222258
    12  N    0.487843
    13  O   -0.458594
    14  O   -0.458479
    15  C   -0.172940
    16  C   -0.218980
    17  C   -0.169690
    18  C    0.159536
    19  C   -0.169743
    20  C   -0.219284
    21  H    0.219320
    22  H    0.223126
    23  H    0.277968
    24  H    0.277843
    25  H    0.222112
    26  N    0.487841
    27  O   -0.458548
    28  O   -0.458423
 Sum of Mulliken charges =  -0.00000

 Dipole moment (field-independent basis, Debye):
    X=              0.0491    Y=              0.2193    Z=              3.7060  Tot=              3.7128
 Quadrupole moment (field-independent basis, Debye-Ang):
   XX=           -198.2803   YY=            -94.5996   ZZ=           -107.2742
   XY=              0.7953   XZ=              0.4165   YZ=             -0.3203

 Normal termination of Gaussian 16 at Fri May  7 01:52:57 2021.
