 Gaussian 16, Revision A.03,
 Gaussian 16:  EM64L-G16RevA.03 25-Dec-2016

 -------------
 #p 6-31g* mp2
 -------------

 ------------------------------------------------------
 Input file generated by CHIRIPA (05-May-2021 14:57:23)
 ------------------------------------------------------
 Symbolic Z-matrix:
 Charge =  0 Multiplicity = 1

                         Standard orientation:
 ---------------------------------------------------------------------
 Center     Atomic      Atomic             Coordinates (Angstroms)
 Number     Number       Type             X           Y           Z
 ---------------------------------------------------------------------
      1          6           0        4.422343    2.430936   -0.189011
      2          6           0        3.226219    2.128344   -0.847985
      3          6           0        2.714902    0.827282   -0.829537
      4          6           0        3.428846   -0.151076   -0.139328
      5          6           0        4.623202    0.119113    0.526857
      6          6           0        5.115794    1.427124    0.495101
      7          1           0        4.812273    3.444331   -0.208510
      8          1           0        2.685544    2.905904   -1.380071
      9          1           0        1.791221    0.565417   -1.331193
     10          1           0        5.139718   -0.677208    1.048874
     11          1           0        6.044963    1.659226    1.007760
     12          7           0        2.897449   -1.532131   -0.112754
     13          8           0        3.545393   -2.376158    0.502407
     14          8           0        1.843059   -1.744423   -0.707590
     15          6           0       -1.747817   -1.866415    0.328861
     16          6           0       -2.764149   -1.982610   -0.625124
     17          6           0       -3.749318   -0.996938   -0.736659
     18          6           0       -3.687410    0.096501    0.125808
     19          6           0       -2.687598    0.240760    1.086462
     20          6           0       -1.712846   -0.757056    1.180109
     21          1           0       -0.986559   -2.636825    0.408556
     22          1           0       -2.793810   -2.843056   -1.287542
     23          1           0       -4.547411   -1.061753   -1.466224
     24          1           0       -2.684409    1.110037    1.732810
     25          1           0       -0.924732   -0.664183    1.921927
     26          7           0       -4.724850    1.146416    0.017200
     27          8           0       -4.648038    2.099993    0.788840
     28          8           0       -5.595165    0.995881   -0.837510
 ---------------------------------------------------------------------

 SCF Done:  E(RHF) =  -868.340107724     A.U. after   16 cycles
 E2 =    -0.2598473541D+01 EUMP2 =    -0.87093858126563D+03

 The electronic state is 1-A.
 Alpha  occ. eigenvalues --  -20.61696 -20.61666 -20.60401 -20.60392 -15.86707
 Alpha  occ. eigenvalues --  -15.85450 -11.31806 -11.30608 -11.28343 -11.28324
 Alpha  occ. eigenvalues --  -11.28020 -11.27291 -11.27266 -11.27210 -11.27179
 Alpha  occ. eigenvalues --  -11.26668 -11.26078 -11.26035  -1.60756  -1.59482
 Alpha  occ. eigenvalues --   -1.40313  -1.39041  -1.19953  -1.18758  -1.09397
 Alpha  occ. eigenvalues --   -1.08136  -1.05308  -1.04148  -0.96275  -0.95009
 Alpha  occ. eigenvalues --   -0.86717  -0.85523  -0.83112  -0.81869  -0.78190
 Alpha  occ. eigenvalues --   -0.76990  -0.72944  -0.72073  -0.71668  -0.71044
 Alpha  occ. eigenvalues --   -0.70809  -0.69719  -0.65601  -0.65297  -0.64385
 Alpha  occ. eigenvalues --   -0.64125  -0.62651  -0.61514  -0.55810  -0.54463
 Alpha  occ. eigenvalues --   -0.53661  -0.53386  -0.52472  -0.52220  -0.49704
 Alpha  occ. eigenvalues --   -0.49672  -0.48437  -0.48405  -0.45773  -0.44495
 Alpha  occ. eigenvalues --   -0.37920  -0.36903  -0.36625  -0.35787
 Alpha virt. eigenvalues --    0.04285   0.05578   0.10752   0.11896   0.15832
 Alpha virt. eigenvalues --    0.17154   0.20962   0.22228   0.26897   0.27810
 Alpha virt. eigenvalues --    0.27924   0.29268   0.30574   0.31893   0.32070

 Mulliken charges:
               1
     1  C   -0.169891
     2  C   -0.218769
     3  C   -0.171941
     4  C    0.156064
     5  C   -0.171094
     6  C   -0.218686
     7  H    0.228387
     8  H    0.227078
     9  H    0.277288
    10  H    0.275913
    11  H    0.225356
    12  N    0.487974
    13  O   -0.458606
    14  O   -0.467473
    15  C   -0.164549
    16  C   -0.221302
    17  C   -0.172157
    18  C    0.156121
    19  C   -0.173770
    20  C   -0.222435
    21  H    0.243259
    22  H    0.224370
    23  H    0.273256
    24  H    0.271615
    25  H    0.221671
    26  N    0.488229
    27  O   -0.463747
    28  O   -0.462160
 Sum of Mulliken charges =  -0.00000

 Dipole moment (field-independent basis, Debye):
    X=              5.9280    Y=              1.0770    Z=              0.2490  Tot=              6.0302
 Quadrupole moment (field-independent basis, Debye-Ang):
   XX=           -116.3059   YY=           -105.8107   ZZ=           -101.4298
   XY=             31.4421   XZ=              2.9650   YZ=             -0.0171

 Normal termination of Gaussian 16 at Wed May  5 17:52:02 2021.
