 Gaussian 16, Revision A.03,
 Gaussian 16:  EM64L-G16RevA.03 25-Dec-2016

 -------------
 #p 6-31g* mp2
 -------------

 ------------------------------------------------------
 Input file generated by CHIRIPA (05-May-2021 14:53:14)
 ------------------------------------------------------
 Symbolic Z-matrix:
 Charge =  0 Multiplicity = 1

                         Standard orientation:
 ---------------------------------------------------------------------
 Center     Atomic      Atomic             Coordinates (Angstroms)
 Number     Number       Type             X           Y           Z
 ---------------------------------------------------------------------
      1          6           0        3.599783   -0.666000   -0.084557
      2          6           0        2.737526   -1.561594   -0.974731
      3          6           0        2.967856   -3.050668   -0.715115
      4          1           0        4.658833   -0.908539   -0.247442
      5          1           0        3.385626   -0.892877    0.969036
      6          1           0        2.952238   -1.332126   -2.026329
      7          1           0        1.680413   -1.316762   -0.809849
      8          1           0        2.734935   -3.300926    0.324942
      9          1           0        4.013986   -3.316378   -0.898450
     10          1           0        2.341448   -3.672598   -1.362167
     11          6           0        3.380792    0.825433   -0.332347
     12          6           0        4.243049    1.721027    0.557827
     13          6           0        4.012719    3.210101    0.298211
     14          1           0        3.594949    1.052310   -1.385940
     15          1           0        2.321742    1.067972   -0.169462
     16          1           0        5.300161    1.476195    0.392944
     17          1           0        4.028337    1.491559    1.609425
     18          1           0        2.966589    3.475811    0.481546
     19          1           0        4.245640    3.460360   -0.741847
     20          1           0        4.639127    3.832031    0.945262
     21          6           0       -4.279610    1.126310   -1.431486
     22          6           0       -3.162946    0.441418   -1.921899
     23          6           0       -2.295754   -0.220680   -1.047741
     24          6           0       -2.576665   -0.177187    0.316988
     25          6           0       -3.681048    0.496620    0.836232
     26          6           0       -4.534648    1.151682   -0.056410
     27          1           0       -4.947987    1.637911   -2.117732
     28          1           0       -2.962401    0.420031   -2.989310
     29          1           0       -1.424052   -0.758460   -1.400371
     30          1           0       -3.854830    0.500188    1.905440
     31          1           0       -5.401107    1.682785    0.327284
     32          7           0       -1.665803   -0.874396    1.252203
     33          8           0       -1.935348   -0.821090    2.450178
     34          8           0       -0.699570   -1.460972    0.769543
 ---------------------------------------------------------------------

 SCF Done:  E(RHF) =  -669.536225479     A.U. after   15 cycles
 E2 =    -0.2091220147D+01 EUMP2 =    -0.67162744562610D+03

 The electronic state is 1-A.
 Alpha  occ. eigenvalues --  -20.60971 -20.60960 -15.86004 -11.31304 -11.27866
 Alpha  occ. eigenvalues --  -11.27863 -11.27600 -11.26870 -11.26860 -11.21090
 Alpha  occ. eigenvalues --  -11.20780 -11.20707 -11.20640 -11.20539 -11.20130
 Alpha  occ. eigenvalues --   -1.60032  -1.39588  -1.19472  -1.08880  -1.07714
 Alpha  occ. eigenvalues --   -1.04865  -1.02818  -0.95726  -0.95289  -0.86309
 Alpha  occ. eigenvalues --   -0.86267  -0.82562  -0.78914  -0.77653  -0.77485
 Alpha  occ. eigenvalues --   -0.72233  -0.71346  -0.70581  -0.65133  -0.64868
 Alpha  occ. eigenvalues --   -0.64316  -0.62214  -0.60183  -0.58684  -0.56906
 Alpha  occ. eigenvalues --   -0.55370  -0.54563  -0.53199  -0.52957  -0.52003
 Alpha  occ. eigenvalues --   -0.51724  -0.49233  -0.48986  -0.48976  -0.47232
 Alpha  occ. eigenvalues --   -0.45929  -0.45187  -0.45025  -0.44775  -0.43083
 Alpha  occ. eigenvalues --   -0.37451  -0.36466
 Alpha virt. eigenvalues --    0.04893   0.11184   0.16381   0.21031   0.23503
 Alpha virt. eigenvalues --    0.24712   0.26208   0.27463   0.27788   0.28651
 Alpha virt. eigenvalues --    0.28881   0.30536   0.31619   0.32223   0.32701

 Mulliken charges:
               1
     1  C   -0.297565
     2  C   -0.308103
     3  C   -0.473980
     4  H    0.145610
     5  H    0.156559
     6  H    0.142336
     7  H    0.169601
     8  H    0.163642
     9  H    0.149519
    10  H    0.155962
    11  C   -0.297806
    12  C   -0.299519
    13  C   -0.475208
    14  H    0.144915
    15  H    0.149872
    16  H    0.150664
    17  H    0.154470
    18  H    0.154007
    19  H    0.152895
    20  H    0.159094
    21  C   -0.170456
    22  C   -0.218867
    23  C   -0.171293
    24  C    0.157602
    25  C   -0.170838
    26  C   -0.218599
    27  H    0.226100
    28  H    0.224240
    29  H    0.277422
    30  H    0.275780
    31  H    0.223866
    32  N    0.492250
    33  O   -0.459036
    34  O   -0.465133
 Sum of Mulliken charges =  -0.00000

 Dipole moment (field-independent basis, Debye):
    X=             -3.4447    Y=              2.4082    Z=             -3.1492  Tot=              5.2519
 Quadrupole moment (field-independent basis, Debye-Ang):
   XX=            -77.1524   YY=            -97.5022   ZZ=            -93.7585
   XY=             -6.9853   XZ=              5.1164   YZ=              2.4756

 Normal termination of Gaussian 16 at Wed May  5 21:53:15 2021.
