 Gaussian 16, Revision A.03,
 Gaussian 16:  EM64L-G16RevA.03 25-Dec-2016

 -------------
 #p 6-31g* mp2
 -------------

 ------------------------------------------------------
 Input file generated by CHIRIPA (05-May-2021 14:55:24)
 ------------------------------------------------------
 Symbolic Z-matrix:
 Charge =  0 Multiplicity = 1

                         Standard orientation:
 ---------------------------------------------------------------------
 Center     Atomic      Atomic             Coordinates (Angstroms)
 Number     Number       Type             X           Y           Z
 ---------------------------------------------------------------------
      1          6           0       -5.384022   -1.307056    0.465083
      2          6           0       -5.389735   -0.294999   -0.500438
      3          6           0       -4.209849    0.378754   -0.829790
      4          6           0       -3.036968    0.013176   -0.171010
      5          6           0       -2.999019   -0.990808    0.795357
      6          6           0       -4.190786   -1.651123    1.108764
      7          1           0       -6.305200   -1.825224    0.714738
      8          1           0       -6.314941   -0.025685   -1.001944
      9          1           0       -4.185810    1.166095   -1.573386
     10          1           0       -2.061164   -1.237078    1.278263
     11          1           0       -4.183365   -2.436697    1.859006
     12          7           0       -1.781587    0.719336   -0.511240
     13          8           0       -0.761416    0.378522    0.083517
     14          8           0       -1.841560    1.600266   -1.366226
     15          6           0        4.016613    0.822348    0.444818
     16          6           0        2.537961    1.211208    0.425780
     17          6           0        2.282782    2.594686    1.024669
     18          1           0        4.382753    0.848442    1.480292
     19          1           0        4.593711    1.575148   -0.109839
     20          1           0        1.963648    0.457165    0.979133
     21          1           0        2.175249    1.183998   -0.609747
     22          1           0        2.830533    3.362259    0.468429
     23          1           0        2.617728    2.631295    2.066336
     24          1           0        1.219374    2.852487    1.000979
     25          6           0        4.287694   -0.558137   -0.150583
     26          6           0        5.766346   -0.946998   -0.131545
     27          6           0        6.021525   -2.330475   -0.730434
     28          1           0        3.710596   -1.310937    0.404075
     29          1           0        3.921554   -0.584232   -1.186057
     30          1           0        6.129057   -0.919789    0.903982
     31          1           0        6.340660   -0.192956   -0.684898
     32          1           0        5.686579   -2.367085   -1.772102
     33          1           0        5.473774   -3.098049   -0.174195
     34          1           0        7.084934   -2.588276   -0.706743
 ---------------------------------------------------------------------

 SCF Done:  E(RHF) =  -669.535808174     A.U. after   15 cycles
 E2 =    -0.2091475404D+01 EUMP2 =    -0.67162728357862D+03

 The electronic state is 1-A.
 Alpha  occ. eigenvalues --  -20.60973 -20.60959 -15.85996 -11.31315 -11.27880
 Alpha  occ. eigenvalues --  -11.27875 -11.27614 -11.26884 -11.26875 -11.20827
 Alpha  occ. eigenvalues --  -11.20459 -11.20371 -11.20087 -11.19727 -11.19453
 Alpha  occ. eigenvalues --   -1.60029  -1.39585  -1.19484  -1.08889  -1.07261
 Alpha  occ. eigenvalues --   -1.04879  -1.02295  -0.95733  -0.94812  -0.86280
 Alpha  occ. eigenvalues --   -0.85851  -0.82570  -0.78422  -0.77624  -0.76951
 Alpha  occ. eigenvalues --   -0.72205  -0.71343  -0.70592  -0.65140  -0.64882
 Alpha  occ. eigenvalues --   -0.63913  -0.62227  -0.59709  -0.58224  -0.56353
 Alpha  occ. eigenvalues --   -0.55378  -0.54147  -0.53211  -0.52970  -0.51516
 Alpha  occ. eigenvalues --   -0.51232  -0.48978  -0.48964  -0.48817  -0.46695
 Alpha  occ. eigenvalues --   -0.45484  -0.45000  -0.44483  -0.44388  -0.42565
 Alpha  occ. eigenvalues --   -0.37462  -0.36480
 Alpha virt. eigenvalues --    0.04905   0.11175   0.16404   0.21297   0.23898
 Alpha virt. eigenvalues --    0.25508   0.27219   0.27709   0.28115   0.28753
 Alpha virt. eigenvalues --    0.29130   0.30868   0.32271   0.32568   0.32880

 Mulliken charges:
               1
     1  C   -0.170570
     2  C   -0.218584
     3  C   -0.170486
     4  C    0.157366
     5  C   -0.170668
     6  C   -0.218511
     7  H    0.226073
     8  H    0.223886
     9  H    0.275906
    10  H    0.275481
    11  H    0.223877
    12  N    0.492771
    13  O   -0.462440
    14  O   -0.459422
    15  C   -0.299369
    16  C   -0.291618
    17  C   -0.477411
    18  H    0.143596
    19  H    0.145179
    20  H    0.157574
    21  H    0.160753
    22  H    0.148523
    23  H    0.145335
    24  H    0.169396
    25  C   -0.296356
    26  C   -0.298513
    27  C   -0.474843
    28  H    0.147233
    29  H    0.150123
    30  H    0.149700
    31  H    0.150737
    32  H    0.154585
    33  H    0.153216
    34  H    0.157483
 Sum of Mulliken charges =  -0.00000

 Dipole moment (field-independent basis, Debye):
    X=             -4.8521    Y=             -2.5012    Z=              1.1181  Tot=              5.5722
 Quadrupole moment (field-independent basis, Debye-Ang):
   XX=            -68.9013   YY=            -95.0217   ZZ=            -92.9260
   XY=              6.4295   XZ=             -1.2908   YZ=             -2.8539

 Normal termination of Gaussian 16 at Thu May  6 14:19:34 2021.
