 Gaussian 16, Revision A.03,
 Gaussian 16:  EM64L-G16RevA.03 25-Dec-2016

 -------------
 #p 6-31g* mp2
 -------------

 ------------------------------------------------------
 Input file generated by CHIRIPA (05-May-2021 14:51:10)
 ------------------------------------------------------
 Symbolic Z-matrix:
 Charge =  0 Multiplicity = 1

                         Standard orientation:
 ---------------------------------------------------------------------
 Center     Atomic      Atomic             Coordinates (Angstroms)
 Number     Number       Type             X           Y           Z
 ---------------------------------------------------------------------
      1          6           0        2.458137    0.436652   -0.729162
      2          6           0        3.739560   -0.295974   -0.330164
      3          6           0        4.309619   -1.149765   -1.463243
      4          1           0        1.707434   -0.298763   -1.049403
      5          1           0        2.664149    1.072938   -1.600996
      6          1           0        3.531530   -0.929634    0.541510
      7          1           0        4.487236    0.441257   -0.010654
      8          1           0        4.545050   -0.528058   -2.333101
      9          1           0        3.583914   -1.906738   -1.777800
     10          1           0        5.225392   -1.664574   -1.156336
     11          6           0        1.876199    1.294358    0.393075
     12          6           0        0.594776    2.026984   -0.005924
     13          6           0        0.024717    2.880775    1.127155
     14          1           0        1.670188    0.658072    1.264909
     15          1           0        2.626903    2.029773    0.713315
     16          1           0       -0.152900    1.289753   -0.325434
     17          1           0        0.802806    2.660644   -0.877598
     18          1           0        0.750422    3.637748    1.441712
     19          1           0       -0.210714    2.259068    1.997013
     20          1           0       -0.891055    3.395584    0.820248
     21          6           0       -1.539503   -1.300750    0.173601
     22          6           0       -0.807531   -1.292167    1.516034
     23          6           0        0.446070   -2.167528    1.511424
     24          1           0       -1.812886   -2.333857   -0.081149
     25          1           0       -0.853391   -0.956096   -0.612439
     26          1           0       -1.495236   -1.635417    2.299525
     27          1           0       -0.536028   -0.258939    1.767711
     28          1           0        1.153647   -1.823088    0.750309
     29          1           0        0.188990   -3.207388    1.285146
     30          1           0        0.953768   -2.146797    2.480792
     31          6           0       -2.794833   -0.430260    0.162486
     32          6           0       -3.526805   -0.438843   -1.179947
     33          6           0       -4.780407    0.436518   -1.175336
     34          1           0       -3.480946   -0.774913    0.948526
     35          1           0       -2.521451    0.602846    0.417236
     36          1           0       -3.798308   -1.472072   -1.431623
     37          1           0       -2.839100   -0.095593   -1.963438
     38          1           0       -4.523326    1.476378   -0.949058
     39          1           0       -5.487983    0.092079   -0.414221
     40          1           0       -5.288105    0.415786   -2.144704
 ---------------------------------------------------------------------

 SCF Done:  E(RHF) =  -470.730394775     A.U. after   11 cycles
 E2 =    -0.1588232296D+01 EUMP2 =    -0.47231862707091D+03

 The electronic state is 1-A.
 Alpha  occ. eigenvalues --  -11.21638 -11.21629 -11.21612 -11.21611 -11.21451
 Alpha  occ. eigenvalues --  -11.21437 -11.21385 -11.21359 -11.21149 -11.21103
 Alpha  occ. eigenvalues --  -11.21087 -11.21082  -1.08649  -1.08345  -1.03625
 Alpha  occ. eigenvalues --   -1.03540  -0.96116  -0.95956  -0.87106  -0.86994
 Alpha  occ. eigenvalues --   -0.79704  -0.79598  -0.78416  -0.78194  -0.66156
 Alpha  occ. eigenvalues --   -0.64406  -0.61145  -0.60684  -0.59429  -0.59362
 Alpha  occ. eigenvalues --   -0.57655  -0.57621  -0.55698  -0.54993  -0.52750
 Alpha  occ. eigenvalues --   -0.52700  -0.52469  -0.52421  -0.50183  -0.49784
 Alpha  occ. eigenvalues --   -0.47982  -0.47943  -0.46942  -0.46532  -0.46197
 Alpha  occ. eigenvalues --   -0.45946  -0.45525  -0.45209  -0.43832  -0.43814
 Alpha virt. eigenvalues --    0.19586   0.21883   0.23471   0.24639   0.25193
 Alpha virt. eigenvalues --    0.26046   0.27078   0.28765   0.29323   0.29855
 Alpha virt. eigenvalues --    0.30247   0.31621   0.31721   0.32048   0.32388

 Mulliken charges:
               1
     1  C   -0.305212
     2  C   -0.302937
     3  C   -0.475761
     4  H    0.151822
     5  H    0.151231
     6  H    0.154918
     7  H    0.152603
     8  H    0.155221
     9  H    0.155202
    10  H    0.160579
    11  C   -0.302864
    12  C   -0.309668
    13  C   -0.478273
    14  H    0.155647
    15  H    0.150347
    16  H    0.160994
    17  H    0.152948
    18  H    0.155991
    19  H    0.156841
    20  H    0.160068
    21  C   -0.305132
    22  C   -0.307327
    23  C   -0.484235
    24  H    0.151478
    25  H    0.152512
    26  H    0.152967
    27  H    0.159133
    28  H    0.164326
    29  H    0.155894
    30  H    0.159833
    31  C   -0.302709
    32  C   -0.299878
    33  C   -0.475679
    34  H    0.150302
    35  H    0.153733
    36  H    0.152145
    37  H    0.152022
    38  H    0.155284
    39  H    0.155248
    40  H    0.160388
 Sum of Mulliken charges =  -0.00000

 Dipole moment (field-independent basis, Debye):
    X=              0.0027    Y=              0.0020    Z=              0.0089  Tot=              0.0095
 Quadrupole moment (field-independent basis, Debye-Ang):
   XX=            -85.2411   YY=            -84.3443   ZZ=            -85.1455
   XY=              1.7650   XZ=             -0.0755   YZ=             -0.8504

 Normal termination of Gaussian 16 at Wed May  5 15:12:25 2021.
