 Gaussian 16, Revision A.03,
 Gaussian 16:  EM64L-G16RevA.03 25-Dec-2016

 -------------
 #p 6-31g* mp2
 -------------

 ------------------------------------------------------
 Input file generated by CHIRIPA (05-May-2021 14:55:19)
 ------------------------------------------------------
 Symbolic Z-matrix:
 Charge =  0 Multiplicity = 1

                         Standard orientation:
 ---------------------------------------------------------------------
 Center     Atomic      Atomic             Coordinates (Angstroms)
 Number     Number       Type             X           Y           Z
 ---------------------------------------------------------------------
      1          6           0        0.969741   -1.956038    0.034427
      2          6           0        2.277008   -2.262952    0.426059
      3          6           0        3.275443   -1.284814    0.395713
      4          6           0        2.929986   -0.004348   -0.033655
      5          6           0        1.636640    0.332366   -0.430102
      6          6           0        0.654285   -0.661640   -0.391653
      7          1           0        0.200378   -2.722043    0.061148
      8          1           0        2.524877   -3.267350    0.757407
      9          1           0        4.295530   -1.495127    0.693384
     10          1           0        1.419920    1.342540   -0.755675
     11          1           0       -0.360113   -0.420426   -0.696378
     12          7           0        3.978472    1.039563   -0.070070
     13          8           0        3.648485    2.160106   -0.452339
     14          8           0        5.110410    0.717470    0.284345
     15          6           0       -3.587618   -0.467678    0.350235
     16          6           0       -3.425732   -1.606548   -0.657115
     17          6           0       -3.545125   -2.987689   -0.012142
     18          1           0       -2.829119   -0.572867    1.137992
     19          1           0       -4.565244   -0.559835    0.843336
     20          1           0       -2.449277   -1.511472   -1.149162
     21          1           0       -4.184582   -1.498527   -1.442668
     22          1           0       -4.524020   -3.107539    0.463254
     23          1           0       -2.778855   -3.120558    0.758428
     24          1           0       -3.426256   -3.787066   -0.750197
     25          6           0       -3.470769    0.919255   -0.279442
     26          6           0       -3.632654    2.058124    0.727907
     27          6           0       -3.513262    3.439266    0.082934
     28          1           0       -2.493143    1.011412   -0.772543
     29          1           0       -4.229269    1.024443   -1.067198
     30          1           0       -2.873804    1.950104    1.513461
     31          1           0       -4.609110    1.963049    1.219955
     32          1           0       -4.279532    3.572135   -0.687635
     33          1           0       -2.534367    3.559116   -0.392461
     34          1           0       -3.632132    4.238643    0.820990
 ---------------------------------------------------------------------

 SCF Done:  E(RHF) =  -669.535233384     A.U. after   15 cycles
 E2 =    -0.2092373837D+01 EUMP2 =    -0.67162760722100D+03

 The electronic state is 1-A.
 Alpha  occ. eigenvalues --  -20.60752 -20.60747 -15.85805 -11.31171 -11.27740
 Alpha  occ. eigenvalues --  -11.27735 -11.27471 -11.26753 -11.26714 -11.22819
 Alpha  occ. eigenvalues --  -11.22411 -11.22346 -11.22259 -11.22225 -11.21579
 Alpha  occ. eigenvalues --   -1.59828  -1.39381  -1.19341  -1.09419  -1.08734
 Alpha  occ. eigenvalues --   -1.04747  -1.04442  -0.96879  -0.95571  -0.87893
 Alpha  occ. eigenvalues --   -0.86149  -0.82406  -0.80521  -0.79200  -0.77455
 Alpha  occ. eigenvalues --   -0.72024  -0.71151  -0.70454  -0.66230  -0.64993
 Alpha  occ. eigenvalues --   -0.64648  -0.62134  -0.61784  -0.60257  -0.58473
 Alpha  occ. eigenvalues --   -0.56209  -0.55212  -0.53558  -0.53287  -0.53073
 Alpha  occ. eigenvalues --   -0.52842  -0.50840  -0.48834  -0.48779  -0.48767
 Alpha  occ. eigenvalues --   -0.47576  -0.46707  -0.46642  -0.44787  -0.44702
 Alpha  occ. eigenvalues --   -0.37321  -0.36348
 Alpha virt. eigenvalues --    0.05080   0.11255   0.16558   0.18016   0.22278
 Alpha virt. eigenvalues --    0.23513   0.24641   0.25801   0.26807   0.28417
 Alpha virt. eigenvalues --    0.29387   0.30549   0.31022   0.31486   0.32173

 Mulliken charges:
               1
     1  C   -0.175916
     2  C   -0.218545
     3  C   -0.171131
     4  C    0.158956
     5  C   -0.172886
     6  C   -0.228534
     7  H    0.228610
     8  H    0.223487
     9  H    0.275552
    10  H    0.275330
    11  H    0.236915
    12  N    0.487970
    13  O   -0.460453
    14  O   -0.460493
    15  C   -0.301793
    16  C   -0.303832
    17  C   -0.477777
    18  H    0.150074
    19  H    0.155245
    20  H    0.142950
    21  H    0.158615
    22  H    0.161558
    23  H    0.150893
    24  H    0.162511
    25  C   -0.300346
    26  C   -0.300821
    27  C   -0.476081
    28  H    0.141752
    29  H    0.154038
    30  H    0.153919
    31  H    0.154506
    32  H    0.156444
    33  H    0.155229
    34  H    0.164056
 Sum of Mulliken charges =  -0.00000

 Dipole moment (field-independent basis, Debye):
    X=             -3.9628    Y=             -3.6247    Z=              0.1839  Tot=              5.3737
 Quadrupole moment (field-independent basis, Debye-Ang):
   XX=           -112.2386   YY=            -93.6251   ZZ=            -95.0626
   XY=            -13.5373   XZ=              1.9072   YZ=             -0.7989

 Normal termination of Gaussian 16 at Thu May  6 01:19:22 2021.
