 Gaussian 16, Revision A.03,
 Gaussian 16:  EM64L-G16RevA.03 25-Dec-2016

 -------------
 #p 6-31g* mp2
 -------------

 ------------------------------------------------------
 Input file generated by CHIRIPA (05-May-2021 14:57:26)
 ------------------------------------------------------
 Symbolic Z-matrix:
 Charge =  0 Multiplicity = 1

                         Standard orientation:
 ---------------------------------------------------------------------
 Center     Atomic      Atomic             Coordinates (Angstroms)
 Number     Number       Type             X           Y           Z
 ---------------------------------------------------------------------
      1          6           0       -0.637815   -0.264725   -0.229210
      2          6           0       -1.212724    0.367143    0.878374
      3          6           0       -2.601483    0.486901    0.985861
      4          6           0       -3.388900   -0.038966   -0.037237
      5          6           0       -2.846012   -0.674000   -1.153165
      6          6           0       -1.454854   -0.782367   -1.239664
      7          1           0        0.441939   -0.353332   -0.304557
      8          1           0       -0.580663    0.770087    1.664618
      9          1           0       -3.072949    0.971229    1.832362
     10          1           0       -3.502024   -1.065805   -1.920990
     11          1           0       -1.011138   -1.273592   -2.100977
     12          7           0       -4.860387    0.081788    0.065444
     13          8           0       -5.532200   -0.389834   -0.849366
     14          8           0       -5.314064    0.645769    1.058792
     15          6           0        3.228744   -2.394479    0.637455
     16          6           0        2.938665   -1.449116    1.626730
     17          6           0        2.890381   -0.087130    1.314942
     18          6           0        3.138418    0.296048   -0.002230
     19          6           0        3.430134   -0.621795   -1.010078
     20          6           0        3.473122   -1.978534   -0.675477
     21          1           0        3.264196   -3.450465    0.888522
     22          1           0        2.748456   -1.769255    2.647209
     23          1           0        2.668196    0.665955    2.061209
     24          1           0        3.615301   -0.272222   -2.018507
     25          1           0        3.698651   -2.710491   -1.445815
     26          7           0        3.090106    1.735143   -0.344382
     27          8           0        3.312378    2.047022   -1.512271
     28          8           0        2.830881    2.523980    0.561806
 ---------------------------------------------------------------------

 SCF Done:  E(RHF) =  -868.336985358     A.U. after   16 cycles
 E2 =    -0.2602538119D+01 EUMP2 =    -0.87093952347709D+03

 The electronic state is 1-A.
 Alpha  occ. eigenvalues --  -20.61897 -20.61883 -20.60641 -20.60635 -15.86952
 Alpha  occ. eigenvalues --  -15.85695 -11.32516 -11.31027 -11.29074 -11.29058
 Alpha  occ. eigenvalues --  -11.28755 -11.28091 -11.28078 -11.27614 -11.27600
 Alpha  occ. eigenvalues --  -11.27216 -11.26607 -11.26584  -1.60970  -1.59717
 Alpha  occ. eigenvalues --   -1.40514  -1.39272  -1.20733  -1.19197  -1.10034
 Alpha  occ. eigenvalues --   -1.08589  -1.06105  -1.04605  -0.96835  -0.95433
 Alpha  occ. eigenvalues --   -0.87465  -0.86001  -0.83639  -0.82278  -0.78685
 Alpha  occ. eigenvalues --   -0.77333  -0.73145  -0.72373  -0.71913  -0.71707
 Alpha  occ. eigenvalues --   -0.71040  -0.70304  -0.66304  -0.66031  -0.64848
 Alpha  occ. eigenvalues --   -0.64632  -0.63408  -0.61964  -0.56504  -0.55754
 Alpha  occ. eigenvalues --   -0.54131  -0.53765  -0.52924  -0.52700  -0.49925
 Alpha  occ. eigenvalues --   -0.49902  -0.48670  -0.48668  -0.45864  -0.44685
 Alpha  occ. eigenvalues --   -0.38685  -0.37779  -0.37119  -0.36215
 Alpha virt. eigenvalues --    0.03789   0.05224   0.09849   0.11439   0.15293
 Alpha virt. eigenvalues --    0.16711   0.20097   0.21607   0.25627   0.26807
 Alpha virt. eigenvalues --    0.27893   0.28342   0.30106   0.30587   0.31942

 Mulliken charges:
               1
     1  C   -0.175126
     2  C   -0.221523
     3  C   -0.170367
     4  C    0.157810
     5  C   -0.170564
     6  C   -0.221682
     7  H    0.237429
     8  H    0.221290
     9  H    0.275378
    10  H    0.274593
    11  H    0.220843
    12  N    0.488075
    13  O   -0.461163
    14  O   -0.460652
    15  C   -0.171812
    16  C   -0.214101
    17  C   -0.183282
    18  C    0.149815
    19  C   -0.179301
    20  C   -0.216991
    21  H    0.231597
    22  H    0.229160
    23  H    0.277024
    24  H    0.279634
    25  H    0.228606
    26  N    0.489812
    27  O   -0.455871
    28  O   -0.458630
 Sum of Mulliken charges =  -0.00000

 Dipole moment (field-independent basis, Debye):
    X=              5.7002    Y=             -5.5729    Z=              0.8635  Tot=              8.0184
 Quadrupole moment (field-independent basis, Debye-Ang):
   XX=           -139.3919   YY=           -107.0929   ZZ=            -96.4747
   XY=            -15.2493   XZ=              4.1058   YZ=              3.8307

 Normal termination of Gaussian 16 at Wed May  5 17:59:34 2021.
