 Gaussian 16, Revision A.03,
 Gaussian 16:  EM64L-G16RevA.03 25-Dec-2016

 -------------
 #p 6-31g* mp2
 -------------

 ------------------------------------------------------
 Input file generated by CHIRIPA (05-May-2021 14:57:21)
 ------------------------------------------------------
 Symbolic Z-matrix:
 Charge =  0 Multiplicity = 1

                         Standard orientation:
 ---------------------------------------------------------------------
 Center     Atomic      Atomic             Coordinates (Angstroms)
 Number     Number       Type             X           Y           Z
 ---------------------------------------------------------------------
      1          6           0        1.907404    2.176687    0.663267
      2          6           0        2.307726    1.920840   -0.652333
      3          6           0        2.997547    0.746778   -0.968995
      4          6           0        3.271652   -0.153626    0.059318
      5          6           0        2.886067    0.072807    1.379675
      6          6           0        2.197340    1.253482    1.673292
      7          1           0        1.371960    3.091295    0.900307
      8          1           0        2.083924    2.636018   -1.438767
      9          1           0        3.319169    0.523585   -1.979026
     10          1           0        3.123554   -0.659033    2.142189
     11          1           0        1.887671    1.449543    2.695892
     12          7           0        4.001355   -1.400054   -0.263719
     13          8           0        4.230693   -2.177342    0.660329
     14          8           0        4.330140   -1.576114   -1.434846
     15          6           0       -1.554022    1.871583   -0.451588
     16          6           0       -1.069512    0.560554   -0.397080
     17          6           0       -1.945396   -0.512868   -0.209621
     18          6           0       -3.305816   -0.237746   -0.079783
     19          6           0       -3.819144    1.057357   -0.129733
     20          6           0       -2.924875    2.115371   -0.317976
     21          1           0       -0.866473    2.699459   -0.597515
     22          1           0       -0.005390    0.368243   -0.500541
     23          1           0       -1.597306   -1.537628   -0.163578
     24          1           0       -4.885173    1.217649   -0.023399
     25          1           0       -3.303981    3.132507   -0.359905
     26          7           0       -4.242806   -1.365973    0.119087
     27          8           0       -5.436898   -1.097070    0.230773
     28          8           0       -3.765387   -2.497819    0.159508
 ---------------------------------------------------------------------

 SCF Done:  E(RHF) =  -868.335301036     A.U. after   16 cycles
 E2 =    -0.2604077098D+01 EUMP2 =    -0.87093937813479D+03

 The electronic state is 1-A.
 Alpha  occ. eigenvalues --  -20.61638 -20.61630 -20.60937 -20.60925 -15.86701
 Alpha  occ. eigenvalues --  -15.85983 -11.32378 -11.31432 -11.28973 -11.28900
 Alpha  occ. eigenvalues --  -11.28722 -11.28031 -11.27994 -11.27923 -11.27901
 Alpha  occ. eigenvalues --  -11.27814 -11.27112 -11.26838  -1.60709  -1.60007
 Alpha  occ. eigenvalues --   -1.40251  -1.39557  -1.20599  -1.19595  -1.09937
 Alpha  occ. eigenvalues --   -1.08998  -1.05990  -1.04985  -0.96702  -0.95825
 Alpha  occ. eigenvalues --   -0.87363  -0.86397  -0.83492  -0.82642  -0.78486
 Alpha  occ. eigenvalues --   -0.77662  -0.72903  -0.72203  -0.72046  -0.71722
 Alpha  occ. eigenvalues --   -0.71331  -0.70735  -0.66189  -0.65936  -0.65248
 Alpha  occ. eigenvalues --   -0.65060  -0.63278  -0.62380  -0.56530  -0.55556
 Alpha  occ. eigenvalues --   -0.54536  -0.54023  -0.53340  -0.52742  -0.49689
 Alpha  occ. eigenvalues --   -0.49644  -0.48959  -0.48953  -0.45587  -0.44943
 Alpha  occ. eigenvalues --   -0.38698  -0.37747  -0.37460  -0.36502
 Alpha virt. eigenvalues --    0.03951   0.04859   0.09854   0.11103   0.15409
 Alpha virt. eigenvalues --    0.16324   0.19112   0.21974   0.25345   0.26563
 Alpha virt. eigenvalues --    0.27394   0.29454   0.30019   0.30683   0.32488

 Mulliken charges:
               1
     1  C   -0.175208
     2  C   -0.231619
     3  C   -0.174104
     4  C    0.157980
     5  C   -0.171671
     6  C   -0.215458
     7  H    0.225962
     8  H    0.225249
     9  H    0.280508
    10  H    0.281286
    11  H    0.230003
    12  N    0.487971
    13  O   -0.455725
    14  O   -0.457074
    15  C   -0.177047
    16  C   -0.220158
    17  C   -0.174381
    18  C    0.159724
    19  C   -0.172252
    20  C   -0.217936
    21  H    0.212014
    22  H    0.237078
    23  H    0.278146
    24  H    0.275844
    25  H    0.221772
    26  N    0.487729
    27  O   -0.460337
    28  O   -0.458297
 Sum of Mulliken charges =  -0.00000

 Dipole moment (field-independent basis, Debye):
    X=              1.0660    Y=              8.1243    Z=              0.5747  Tot=              8.2141
 Quadrupole moment (field-independent basis, Debye-Ang):
   XX=           -140.6578   YY=           -106.8897   ZZ=           -100.4984
   XY=             -1.9230   XZ=              5.4413   YZ=             -1.3162

 Normal termination of Gaussian 16 at Thu May  6 06:30:03 2021.
