 Gaussian 16, Revision A.03,
 Gaussian 16:  EM64L-G16RevA.03 25-Dec-2016

 -------------
 #p 6-31g* mp2
 -------------

 ------------------------------------------------------
 Input file generated by CHIRIPA (05-May-2021 14:53:16)
 ------------------------------------------------------
 Symbolic Z-matrix:
 Charge =  0 Multiplicity = 1

                         Standard orientation:
 ---------------------------------------------------------------------
 Center     Atomic      Atomic             Coordinates (Angstroms)
 Number     Number       Type             X           Y           Z
 ---------------------------------------------------------------------
      1          6           0        3.967501   -0.087963    0.122777
      2          6           0        4.499523   -1.436844   -0.362465
      3          6           0        5.559184   -2.024470    0.570062
      4          1           0        4.805108    0.616464    0.218392
      5          1           0        3.544571   -0.209219    1.129664
      6          1           0        4.920077   -1.313369   -1.368698
      7          1           0        3.660526   -2.138086   -0.457120
      8          1           0        5.148003   -2.176233    1.573306
      9          1           0        6.414710   -1.346831    0.656549
     10          1           0        5.925730   -2.988659    0.204214
     11          6           0        2.907394    0.512236   -0.798993
     12          6           0        2.375372    1.861117   -0.313751
     13          6           0        1.315711    2.448743   -1.246278
     14          1           0        3.330324    0.633492   -1.805880
     15          1           0        2.069787   -0.192191   -0.894609
     16          1           0        3.214369    2.562359   -0.219096
     17          1           0        1.954818    1.737642    0.692482
     18          1           0        0.460185    1.771103   -1.332765
     19          1           0        1.726892    2.600506   -2.249523
     20          1           0        0.949165    3.412932   -0.880430
     21          6           0       -1.102614    1.508538    1.292347
     22          6           0       -2.313345    1.938096    0.739060
     23          6           0       -3.198049    1.019268    0.166692
     24          6           0       -2.838534   -0.327594    0.164744
     25          6           0       -1.639604   -0.786583    0.708055
     26          6           0       -0.770193    0.149965    1.275110
     27          1           0       -0.421295    2.229188    1.734912
     28          1           0       -2.574127    2.992561    0.751038
     29          1           0       -4.141845    1.324456   -0.268654
     30          1           0       -1.407240   -1.844272    0.681276
     31          1           0        0.169398   -0.186503    1.704066
     32          7           0       -3.767035   -1.309695   -0.438382
     33          8           0       -3.427004   -2.490754   -0.427572
     34          8           0       -4.817244   -0.879812   -0.910504
 ---------------------------------------------------------------------

 SCF Done:  E(RHF) =  -669.534824029     A.U. after   15 cycles
 E2 =    -0.2093571318D+01 EUMP2 =    -0.67162839534748D+03

 The electronic state is 1-A.
 Alpha  occ. eigenvalues --  -20.60800 -20.60795 -15.85856 -11.31235 -11.27831
 Alpha  occ. eigenvalues --  -11.27818 -11.27546 -11.26824 -11.26805 -11.22419
 Alpha  occ. eigenvalues --  -11.22132 -11.22069 -11.22012 -11.21635 -11.21521
 Alpha  occ. eigenvalues --   -1.59876  -1.39429  -1.19426  -1.09108  -1.08800
 Alpha  occ. eigenvalues --   -1.04830  -1.04145  -0.96581  -0.95635  -0.87587
 Alpha  occ. eigenvalues --   -0.86223  -0.82471  -0.80223  -0.78903  -0.77516
 Alpha  occ. eigenvalues --   -0.72074  -0.71201  -0.70545  -0.65805  -0.65069
 Alpha  occ. eigenvalues --   -0.64784  -0.62184  -0.61546  -0.59958  -0.58198
 Alpha  occ. eigenvalues --   -0.55935  -0.55278  -0.53295  -0.53125  -0.52934
 Alpha  occ. eigenvalues --   -0.52911  -0.50484  -0.48833  -0.48828  -0.48522
 Alpha  occ. eigenvalues --   -0.47264  -0.46437  -0.46368  -0.44832  -0.44415
 Alpha  occ. eigenvalues --   -0.37329  -0.36432
 Alpha virt. eigenvalues --    0.05003   0.11120   0.16423   0.19268   0.22631
 Alpha virt. eigenvalues --    0.24047   0.25076   0.26119   0.26609   0.28549
 Alpha virt. eigenvalues --    0.28813   0.30818   0.30898   0.31135   0.31991

 Mulliken charges:
               1
     1  C   -0.298112
     2  C   -0.300075
     3  C   -0.475905
     4  H    0.151738
     5  H    0.142689
     6  H    0.154580
     7  H    0.152089
     8  H    0.153978
     9  H    0.156059
    10  H    0.162806
    11  C   -0.300464
    12  C   -0.298765
    13  C   -0.478982
    14  H    0.153807
    15  H    0.150730
    16  H    0.154248
    17  H    0.138254
    18  H    0.164950
    19  H    0.158258
    20  H    0.153405
    21  C   -0.166910
    22  C   -0.219144
    23  C   -0.170729
    24  C    0.158079
    25  C   -0.172242
    26  C   -0.219672
    27  H    0.227477
    28  H    0.223946
    29  H    0.276013
    30  H    0.275789
    31  H    0.224598
    32  N    0.488169
    33  O   -0.460432
    34  O   -0.460230
 Sum of Mulliken charges =  -0.00000

 Dipole moment (field-independent basis, Debye):
    X=              3.3043    Y=              3.4365    Z=              2.0233  Tot=              5.1790
 Quadrupole moment (field-independent basis, Debye-Ang):
   XX=           -111.3631   YY=            -94.7525   ZZ=            -94.5666
   XY=            -13.1824   XZ=             -5.8681   YZ=             -1.0070

 Normal termination of Gaussian 16 at Wed May  5 20:19:40 2021.
