 Gaussian 16, Revision A.03,
 Gaussian 16:  EM64L-G16RevA.03 25-Dec-2016

 -------------
 #p 6-31g* mp2
 -------------

 ------------------------------------------------------
 Input file generated by CHIRIPA (05-May-2021 14:55:25)
 ------------------------------------------------------
 Symbolic Z-matrix:
 Charge =  0 Multiplicity = 1

                         Standard orientation:
 ---------------------------------------------------------------------
 Center     Atomic      Atomic             Coordinates (Angstroms)
 Number     Number       Type             X           Y           Z
 ---------------------------------------------------------------------
      1          6           0        0.937190   -1.933269    0.739838
      2          6           0        1.577453   -2.001641   -0.501898
      3          6           0        2.531170   -1.045155   -0.862602
      4          6           0        2.821632   -0.029351    0.046828
      5          6           0        2.200860    0.065802    1.291368
      6          6           0        1.250384   -0.901585    1.630937
      7          1           0        0.197579   -2.680524    1.011832
      8          1           0        1.336219   -2.801743   -1.195936
      9          1           0        3.041963   -1.074234   -1.817412
     10          1           0        2.462368    0.875164    1.962162
     11          1           0        0.754732   -0.845986    2.595967
     12          7           0        3.829573    0.989008   -0.323846
     13          8           0        4.067713    1.873987    0.495141
     14          8           0        4.362372    0.882937   -1.426348
     15          6           0       -3.220473   -0.416420    0.184694
     16          6           0       -3.467279   -1.616430   -0.730208
     17          6           0       -3.105258   -2.947289   -0.070249
     18          1           0       -2.163628   -0.403182    0.484441
     19          1           0       -3.805314   -0.540654    1.106606
     20          1           0       -2.883220   -1.489295   -1.650712
     21          1           0       -4.523618   -1.626703   -1.027966
     22          1           0       -3.697183   -3.100550    0.837901
     23          1           0       -2.047465   -2.962361    0.211616
     24          1           0       -3.289473   -3.791647   -0.741803
     25          6           0       -3.577635    0.921221   -0.460968
     26          6           0       -3.330828    2.121233    0.453933
     27          6           0       -3.692850    3.452093   -0.206025
     28          1           0       -2.992794    1.045458   -1.382880
     29          1           0       -4.634480    0.907984   -0.760715
     30          1           0       -2.274490    2.131506    0.751691
     31          1           0       -3.914888    1.994097    1.374437
     32          1           0       -4.750642    3.467163   -0.487891
     33          1           0       -3.100924    3.605352   -1.114176
     34          1           0       -3.508635    4.296450    0.465529
 ---------------------------------------------------------------------

 SCF Done:  E(RHF) =  -669.535657399     A.U. after   15 cycles
 E2 =    -0.2091856942D+01 EUMP2 =    -0.67162751434110D+03

 The electronic state is 1-A.
 Alpha  occ. eigenvalues --  -20.60818 -20.60813 -15.85872 -11.31261 -11.27825
 Alpha  occ. eigenvalues --  -11.27821 -11.27564 -11.26854 -11.26840 -11.22290
 Alpha  occ. eigenvalues --  -11.22049 -11.21941 -11.21918 -11.21763 -11.21271
 Alpha  occ. eigenvalues --   -1.59893  -1.39446  -1.19435  -1.08941  -1.08822
 Alpha  occ. eigenvalues --   -1.04836  -1.04061  -0.96524  -0.95657  -0.87543
 Alpha  occ. eigenvalues --   -0.86230  -0.82487  -0.80135  -0.78727  -0.77527
 Alpha  occ. eigenvalues --   -0.72089  -0.71217  -0.70563  -0.65565  -0.65085
 Alpha  occ. eigenvalues --   -0.64829  -0.62178  -0.61464  -0.59906  -0.58130
 Alpha  occ. eigenvalues --   -0.55939  -0.55246  -0.53219  -0.53163  -0.52939
 Alpha  occ. eigenvalues --   -0.52922  -0.50465  -0.48850  -0.48843  -0.48444
 Alpha  occ. eigenvalues --   -0.47155  -0.46276  -0.46169  -0.44846  -0.44293
 Alpha  occ. eigenvalues --   -0.37390  -0.36437
 Alpha virt. eigenvalues --    0.04965   0.11162   0.16330   0.20077   0.22680
 Alpha virt. eigenvalues --    0.23948   0.25682   0.26433   0.26805   0.27630
 Alpha virt. eigenvalues --    0.28815   0.30377   0.31101   0.31563   0.32292

 Mulliken charges:
               1
     1  C   -0.172845
     2  C   -0.220285
     3  C   -0.170996
     4  C    0.158736
     5  C   -0.171198
     6  C   -0.220062
     7  H    0.231483
     8  H    0.224193
     9  H    0.275895
    10  H    0.275961
    11  H    0.224877
    12  N    0.488010
    13  O   -0.460154
    14  O   -0.460204
    15  C   -0.301601
    16  C   -0.299101
    17  C   -0.478120
    18  H    0.149378
    19  H    0.148598
    20  H    0.153173
    21  H    0.155150
    22  H    0.157765
    23  H    0.143526
    24  H    0.162884
    25  C   -0.298434
    26  C   -0.300211
    27  C   -0.476089
    28  H    0.151658
    29  H    0.150495
    30  H    0.152328
    31  H    0.150982
    32  H    0.155292
    33  H    0.157238
    34  H    0.161678
 Sum of Mulliken charges =  -0.00000

 Dipole moment (field-independent basis, Debye):
    X=             -3.5972    Y=             -3.5164    Z=              1.2636  Tot=              5.1867
 Quadrupole moment (field-independent basis, Debye-Ang):
   XX=           -114.3130   YY=            -95.1209   ZZ=            -90.8480
   XY=            -10.2259   XZ=              2.5886   YZ=              2.4540

 Normal termination of Gaussian 16 at Thu May  6 00:03:22 2021.
