 Gaussian 16, Revision A.03,
 Gaussian 16:  EM64L-G16RevA.03 25-Dec-2016

 -------------
 #p 6-31g* mp2
 -------------

 ------------------------------------------------------
 Input file generated by CHIRIPA (05-May-2021 14:55:24)
 ------------------------------------------------------
 Symbolic Z-matrix:
 Charge =  0 Multiplicity = 1

                         Standard orientation:
 ---------------------------------------------------------------------
 Center     Atomic      Atomic             Coordinates (Angstroms)
 Number     Number       Type             X           Y           Z
 ---------------------------------------------------------------------
      1          6           0       -4.499792    0.259070   -1.625497
      2          6           0       -3.143361    0.342693   -1.956591
      3          6           0       -2.160817    0.107786   -0.990167
      4          6           0       -2.572126   -0.209837    0.303367
      5          6           0       -3.915569   -0.300718    0.664187
      6          6           0       -4.880895   -0.061803   -0.318469
      7          1           0       -5.256368    0.443108   -2.382543
      8          1           0       -2.844468    0.591695   -2.970842
      9          1           0       -1.103653    0.165849   -1.219186
     10          1           0       -4.182718   -0.550953    1.683712
     11          1           0       -5.933577   -0.127445   -0.058476
     12          7           0       -1.541065   -0.460644    1.335069
     13          8           0       -1.929433   -0.738767    2.467524
     14          8           0       -0.364074   -0.374354    0.991727
     15          6           0        3.949051   -0.325558   -0.483040
     16          6           0        3.488782   -1.745683   -0.152312
     17          6           0        4.377443   -2.817395   -0.784378
     18          1           0        3.962663   -0.196052   -1.573906
     19          1           0        4.984509   -0.193882   -0.139700
     20          1           0        2.454030   -1.874200   -0.494933
     21          1           0        3.476081   -1.871763    0.937899
     22          1           0        5.409820   -2.717675   -0.433873
     23          1           0        4.381963   -2.720125   -1.874845
     24          1           0        4.030355   -3.824988   -0.535083
     25          6           0        3.070615    0.756921    0.141715
     26          6           0        3.530885    2.177047   -0.189015
     27          6           0        2.642222    3.248759    0.443053
     28          1           0        2.035157    0.625246   -0.201626
     29          1           0        3.057004    0.627415    1.232580
     30          1           0        3.543586    2.303126   -1.279224
     31          1           0        4.565635    2.305562    0.153607
     32          1           0        2.637702    3.151489    1.533520
     33          1           0        1.609845    3.149038    0.092547
     34          1           0        2.989311    4.256351    0.193758
 ---------------------------------------------------------------------

 SCF Done:  E(RHF) =  -669.535740753     A.U. after   15 cycles
 E2 =    -0.2091457091D+01 EUMP2 =    -0.67162719784338D+03

 The electronic state is 1-A.
 Alpha  occ. eigenvalues --  -20.60899 -20.60894 -15.85937 -11.31289 -11.27866
 Alpha  occ. eigenvalues --  -11.27849 -11.27593 -11.26870 -11.26858 -11.20862
 Alpha  occ. eigenvalues --  -11.20654 -11.20532 -11.20419 -11.20385 -11.20243
 Alpha  occ. eigenvalues --   -1.59964  -1.39520  -1.19460  -1.08857  -1.07537
 Alpha  occ. eigenvalues --   -1.04862  -1.02741  -0.95697  -0.95194  -0.86261
 Alpha  occ. eigenvalues --   -0.86216  -0.82533  -0.78778  -0.77631  -0.77238
 Alpha  occ. eigenvalues --   -0.72155  -0.71279  -0.70569  -0.65118  -0.64865
 Alpha  occ. eigenvalues --   -0.64183  -0.62212  -0.60157  -0.58559  -0.56785
 Alpha  occ. eigenvalues --   -0.55362  -0.54499  -0.53190  -0.52955  -0.51930
 Alpha  occ. eigenvalues --   -0.51609  -0.49166  -0.48916  -0.48913  -0.47102
 Alpha  occ. eigenvalues --   -0.45822  -0.44949  -0.44818  -0.44720  -0.42957
 Alpha  occ. eigenvalues --   -0.37438  -0.36464
 Alpha virt. eigenvalues --    0.04945   0.11189   0.16434   0.20878   0.23317
 Alpha virt. eigenvalues --    0.24950   0.25920   0.27499   0.27916   0.28619
 Alpha virt. eigenvalues --    0.29228   0.31173   0.31985   0.32392   0.32599

 Mulliken charges:
               1
     1  C   -0.170611
     2  C   -0.218694
     3  C   -0.170860
     4  C    0.157996
     5  C   -0.170824
     6  C   -0.218499
     7  H    0.226002
     8  H    0.223835
     9  H    0.275313
    10  H    0.275897
    11  H    0.223843
    12  N    0.493763
    13  O   -0.459461
    14  O   -0.465348
    15  C   -0.298769
    16  C   -0.298146
    17  C   -0.475490
    18  H    0.142812
    19  H    0.146188
    20  H    0.155794
    21  H    0.156869
    22  H    0.153204
    23  H    0.150788
    24  H    0.158900
    25  C   -0.300921
    26  C   -0.299691
    27  C   -0.473170
    28  H    0.161644
    29  H    0.156261
    30  H    0.145625
    31  H    0.149425
    32  H    0.158420
    33  H    0.152387
    34  H    0.155516
 Sum of Mulliken charges =  -0.00000

 Dipole moment (field-independent basis, Debye):
    X=             -3.8839    Y=              0.8185    Z=             -3.4669  Tot=              5.2700
 Quadrupole moment (field-independent basis, Debye-Ang):
   XX=            -74.5889   YY=            -97.2949   ZZ=            -94.5014
   XY=             -0.4812   XZ=              6.9479   YZ=             -0.0383

 Normal termination of Gaussian 16 at Wed May  5 22:25:42 2021.
