 Gaussian 16, Revision A.03,
 Gaussian 16:  EM64L-G16RevA.03 25-Dec-2016

 -------------
 #p 6-31g* mp2
 -------------

 ------------------------------------------------------
 Input file generated by CHIRIPA (05-May-2021 14:53:12)
 ------------------------------------------------------
 Symbolic Z-matrix:
 Charge =  0 Multiplicity = 1

                         Standard orientation:
 ---------------------------------------------------------------------
 Center     Atomic      Atomic             Coordinates (Angstroms)
 Number     Number       Type             X           Y           Z
 ---------------------------------------------------------------------
      1          6           0       -3.237472    0.583669    0.144152
      2          6           0       -3.402675    1.919689   -0.580931
      3          6           0       -3.883073    3.038656    0.343690
      4          1           0       -4.196400    0.299377    0.598663
      5          1           0       -2.524607    0.708827    0.970925
      6          1           0       -4.113965    1.791711   -1.406948
      7          1           0       -2.443291    2.200739   -1.033930
      8          1           0       -3.171555    3.195256    1.160892
      9          1           0       -4.851722    2.783904    0.785755
     10          1           0       -3.994380    3.984736   -0.195201
     11          6           0       -2.757760   -0.544825   -0.766949
     12          6           0       -2.592557   -1.880844   -0.041866
     13          6           0       -2.112158   -2.999812   -0.966487
     14          1           0       -3.470625   -0.669983   -1.593722
     15          1           0       -1.798832   -0.260532   -1.221459
     16          1           0       -3.551941   -2.161895    0.411133
     17          1           0       -1.881266   -1.752867    0.784151
     18          1           0       -1.143509   -2.745059   -1.408552
     19          1           0       -2.823677   -3.156412   -1.783689
     20          1           0       -2.000852   -3.945892   -0.427595
     21          6           0        3.827725    1.363421   -1.259280
     22          6           0        3.450333    1.855543   -0.005521
     23          6           0        2.627398    1.100351    0.835318
     24          6           0        2.198242   -0.148451    0.388542
     25          6           0        2.557032   -0.666177   -0.855049
     26          6           0        3.380658    0.106347   -1.679302
     27          1           0        4.467268    1.956805   -1.906023
     28          1           0        3.796027    2.831465    0.323291
     29          1           0        2.320045    1.457146    1.810843
     30          1           0        2.196574   -1.642584   -1.155247
     31          1           0        3.672153   -0.278376   -2.652475
     32          7           0        1.326673   -0.957114    1.269921
     33          8           0        0.961970   -2.054305    0.853028
     34          8           0        1.024741   -0.478441    2.360952
 ---------------------------------------------------------------------

 SCF Done:  E(RHF) =  -669.536423773     A.U. after   15 cycles
 E2 =    -0.2092198090D+01 EUMP2 =    -0.67162862186303D+03

 The electronic state is 1-A.
 Alpha  occ. eigenvalues --  -20.61064 -20.61045 -15.86065 -11.31361 -11.27916
 Alpha  occ. eigenvalues --  -11.27912 -11.27643 -11.26912 -11.26903 -11.21173
 Alpha  occ. eigenvalues --  -11.20724 -11.20715 -11.20611 -11.20332 -11.19964
 Alpha  occ. eigenvalues --   -1.60107  -1.39663  -1.19522  -1.08932  -1.07687
 Alpha  occ. eigenvalues --   -1.04911  -1.02739  -0.95780  -0.95224  -0.86313
 Alpha  occ. eigenvalues --   -0.86257  -0.82610  -0.78841  -0.77671  -0.77454
 Alpha  occ. eigenvalues --   -0.72286  -0.71430  -0.70627  -0.65178  -0.64912
 Alpha  occ. eigenvalues --   -0.64312  -0.62258  -0.60118  -0.58630  -0.56814
 Alpha  occ. eigenvalues --   -0.55415  -0.54523  -0.53243  -0.53001  -0.51926
 Alpha  occ. eigenvalues --   -0.51659  -0.49257  -0.49049  -0.49010  -0.47159
 Alpha  occ. eigenvalues --   -0.45876  -0.45144  -0.44995  -0.44752  -0.43015
 Alpha  occ. eigenvalues --   -0.37495  -0.36510
 Alpha virt. eigenvalues --    0.04811   0.11130   0.16296   0.21136   0.23433
 Alpha virt. eigenvalues --    0.24819   0.26782   0.27337   0.27990   0.28263
 Alpha virt. eigenvalues --    0.28928   0.30612   0.31629   0.32489   0.32615

 Mulliken charges:
               1
     1  C   -0.299565
     2  C   -0.298485
     3  C   -0.475257
     4  H    0.149415
     5  H    0.154599
     6  H    0.150329
     7  H    0.148045
     8  H    0.155217
     9  H    0.155574
    10  H    0.157146
    11  C   -0.297413
    12  C   -0.306420
    13  C   -0.469669
    14  H    0.145411
    15  H    0.142545
    16  H    0.146822
    17  H    0.174818
    18  H    0.152523
    19  H    0.145776
    20  H    0.162719
    21  C   -0.170397
    22  C   -0.218529
    23  C   -0.170877
    24  C    0.158504
    25  C   -0.171451
    26  C   -0.218482
    27  H    0.226356
    28  H    0.224139
    29  H    0.275895
    30  H    0.276486
    31  H    0.224303
    32  N    0.488073
    33  O   -0.458652
    34  O   -0.459499
 Sum of Mulliken charges =  -0.00000

 Dipole moment (field-independent basis, Debye):
    X=              3.3229    Y=              2.7835    Z=             -2.9234  Tot=              5.2284
 Quadrupole moment (field-independent basis, Debye-Ang):
   XX=            -81.6172   YY=            -94.2952   ZZ=            -95.5419
   XY=              6.7562   XZ=             -5.8239   YZ=              3.7539

 Normal termination of Gaussian 16 at Thu May  6 08:49:38 2021.
