 Gaussian 16, Revision A.03,
 Gaussian 16:  EM64L-G16RevA.03 25-Dec-2016

 -------------
 #p 6-31g* mp2
 -------------

 ------------------------------------------------------
 Input file generated by CHIRIPA (05-May-2021 14:55:20)
 ------------------------------------------------------
 Symbolic Z-matrix:
 Charge =  0 Multiplicity = 1

                         Standard orientation:
 ---------------------------------------------------------------------
 Center     Atomic      Atomic             Coordinates (Angstroms)
 Number     Number       Type             X           Y           Z
 ---------------------------------------------------------------------
      1          6           0        0.836372    0.163522    1.527417
      2          6           0        2.082684    0.049839    2.152158
      3          6           0        3.249547   -0.072137    1.391828
      4          6           0        3.132842   -0.076863    0.002711
      5          6           0        1.905665    0.034651   -0.649126
      6          6           0        0.751988    0.155579    0.131230
      7          1           0       -0.064954    0.257869    2.125838
      8          1           0        2.151235    0.055713    3.236276
      9          1           0        4.227243   -0.161691    1.849549
     10          1           0        1.869131    0.025688   -1.731717
     11          1           0       -0.214568    0.243704   -0.356671
     12          7           0        4.361167   -0.205439   -0.812817
     13          8           0        4.231501   -0.206979   -2.035037
     14          8           0        5.430336   -0.302241   -0.214365
     15          6           0       -3.647062   -0.614086    0.145344
     16          6           0       -4.375783   -1.742387   -0.585332
     17          6           0       -4.158379   -3.107321    0.068490
     18          1           0       -2.572431   -0.840191    0.176780
     19          1           0       -3.990105   -0.580711    1.188705
     20          1           0       -4.032482   -1.772732   -1.627368
     21          1           0       -5.448781   -1.513476   -0.615201
     22          1           0       -4.517965   -3.100810    1.102539
     23          1           0       -3.093619   -3.361539    0.084620
     24          1           0       -4.688154   -3.899337   -0.469943
     25          6           0       -3.854759    0.756606   -0.496370
     26          6           0       -3.126038    1.884907    0.234306
     27          6           0       -3.343443    3.249842   -0.419516
     28          1           0       -3.511717    0.723231   -1.539731
     29          1           0       -4.929391    0.982711   -0.527805
     30          1           0       -2.053041    1.655995    0.264174
     31          1           0       -3.469340    1.915252    1.276342
     32          1           0       -4.408203    3.504059   -0.435645
     33          1           0       -2.983857    3.243329   -1.453565
     34          1           0       -2.813667    4.041857    0.118917
 ---------------------------------------------------------------------

 SCF Done:  E(RHF) =  -669.535356328     A.U. after   15 cycles
 E2 =    -0.2092054052D+01 EUMP2 =    -0.67162741037993D+03

 The electronic state is 1-A.
 Alpha  occ. eigenvalues --  -20.60756 -20.60750 -15.85809 -11.31175 -11.27750
 Alpha  occ. eigenvalues --  -11.27747 -11.27472 -11.26751 -11.26729 -11.22705
 Alpha  occ. eigenvalues --  -11.22450 -11.22369 -11.22343 -11.21893 -11.21719
 Alpha  occ. eigenvalues --   -1.59831  -1.39385  -1.19349  -1.09407  -1.08739
 Alpha  occ. eigenvalues --   -1.04755  -1.04401  -0.96827  -0.95574  -0.87841
 Alpha  occ. eigenvalues --   -0.86158  -0.82407  -0.80487  -0.79242  -0.77458
 Alpha  occ. eigenvalues --   -0.72028  -0.71154  -0.70445  -0.66149  -0.64997
 Alpha  occ. eigenvalues --   -0.64703  -0.62145  -0.61753  -0.60196  -0.58446
 Alpha  occ. eigenvalues --   -0.56114  -0.55235  -0.53498  -0.53251  -0.53070
 Alpha  occ. eigenvalues --   -0.52859  -0.50773  -0.48819  -0.48783  -0.48759
 Alpha  occ. eigenvalues --   -0.47531  -0.46734  -0.46668  -0.44790  -0.44678
 Alpha  occ. eigenvalues --   -0.37318  -0.36354
 Alpha virt. eigenvalues --    0.05080   0.11165   0.16575   0.18774   0.22712
 Alpha virt. eigenvalues --    0.23584   0.24908   0.25892   0.27045   0.28059
 Alpha virt. eigenvalues --    0.29796   0.30474   0.31021   0.31397   0.31696

 Mulliken charges:
               1
     1  C   -0.172546
     2  C   -0.218745
     3  C   -0.170916
     4  C    0.158706
     5  C   -0.171356
     6  C   -0.224540
     7  H    0.227572
     8  H    0.223491
     9  H    0.275630
    10  H    0.275682
    11  H    0.230420
    12  N    0.487985
    13  O   -0.460483
    14  O   -0.460406
    15  C   -0.301948
    16  C   -0.299901
    17  C   -0.476634
    18  H    0.142384
    19  H    0.150950
    20  H    0.153539
    21  H    0.154958
    22  H    0.155565
    23  H    0.155733
    24  H    0.163646
    25  C   -0.299388
    26  C   -0.305318
    27  C   -0.475497
    28  H    0.150154
    29  H    0.154853
    30  H    0.144410
    31  H    0.153405
    32  H    0.158653
    33  H    0.157002
    34  H    0.162942
 Sum of Mulliken charges =  -0.00000

 Dipole moment (field-independent basis, Debye):
    X=             -4.5422    Y=              0.4650    Z=              2.8527  Tot=              5.3838
 Quadrupole moment (field-independent basis, Debye-Ang):
   XX=           -119.1514   YY=            -96.3092   ZZ=            -91.1466
   XY=              1.5081   XZ=             11.3619   YZ=              0.0214

 Normal termination of Gaussian 16 at Thu May  6 14:06:03 2021.
