 Gaussian 16, Revision A.03,
 Gaussian 16:  EM64L-G16RevA.03 25-Dec-2016

 -------------
 #p 6-31g* mp2
 -------------

 ------------------------------------------------------
 Input file generated by CHIRIPA (05-May-2021 14:57:23)
 ------------------------------------------------------
 Symbolic Z-matrix:
 Charge =  0 Multiplicity = 1

                         Standard orientation:
 ---------------------------------------------------------------------
 Center     Atomic      Atomic             Coordinates (Angstroms)
 Number     Number       Type             X           Y           Z
 ---------------------------------------------------------------------
      1          6           0       -1.608140    0.953787    0.677869
      2          6           0       -2.495360    1.718778   -0.086429
      3          6           0       -3.742855    1.204583   -0.452364
      4          6           0       -4.072076   -0.084088   -0.034957
      5          6           0       -3.209846   -0.870889    0.727142
      6          6           0       -1.967581   -0.336330    1.081503
      7          1           0       -0.641087    1.361135    0.957641
      8          1           0       -2.218886    2.721004   -0.401308
      9          1           0       -4.448884    1.775088   -1.043520
     10          1           0       -3.513612   -1.866746    1.026160
     11          1           0       -1.280564   -0.932709    1.675123
     12          7           0       -5.389975   -0.639222   -0.416230
     13          8           0       -5.656242   -1.777255   -0.035941
     14          8           0       -6.131722    0.074208   -1.088141
     15          6           0        2.982602    2.333117    0.328532
     16          6           0        2.507835    1.281227    1.118879
     17          6           0        2.984044   -0.019609    0.930206
     18          6           0        3.939199   -0.233678   -0.062338
     19          6           0        4.431785    0.793444   -0.865875
     20          6           0        3.941371    2.086303   -0.659580
     21          1           0        2.607154    3.340539    0.481942
     22          1           0        1.763250    1.469962    1.887004
     23          1           0        2.633758   -0.852390    1.527864
     24          1           0        5.174112    0.574275   -1.623722
     25          1           0        4.311890    2.901280   -1.274862
     26          7           0        4.450858   -1.606592   -0.271405
     27          8           0        5.292275   -1.768990   -1.152473
     28          8           0        4.000791   -2.494289    0.449754
 ---------------------------------------------------------------------

 SCF Done:  E(RHF) =  -868.336559712     A.U. after   16 cycles
 E2 =    -0.2600092784D+01 EUMP2 =    -0.87093665249656D+03

 The electronic state is 1-A.
 Alpha  occ. eigenvalues --  -20.61464 -20.61452 -20.60998 -20.60991 -15.86524
 Alpha  occ. eigenvalues --  -15.86055 -11.32070 -11.31517 -11.28754 -11.28636
 Alpha  occ. eigenvalues --  -11.28496 -11.28106 -11.28087 -11.27938 -11.27851
 Alpha  occ. eigenvalues --  -11.27658 -11.27182 -11.27166  -1.60532  -1.60070
 Alpha  occ. eigenvalues --   -1.40082  -1.39621  -1.20283  -1.19712  -1.09646
 Alpha  occ. eigenvalues --   -1.09108  -1.05727  -1.05128  -0.96442  -0.95923
 Alpha  occ. eigenvalues --   -0.87120  -0.86536  -0.83284  -0.82746  -0.78295
 Alpha  occ. eigenvalues --   -0.77761  -0.72739  -0.72272  -0.71858  -0.71394
 Alpha  occ. eigenvalues --   -0.71392  -0.70893  -0.65942  -0.65757  -0.65375
 Alpha  occ. eigenvalues --   -0.65151  -0.63073  -0.62473  -0.56239  -0.55729
 Alpha  occ. eigenvalues --   -0.54003  -0.53797  -0.53449  -0.53235  -0.49511
 Alpha  occ. eigenvalues --   -0.49482  -0.49040  -0.49019  -0.45447  -0.45004
 Alpha  occ. eigenvalues --   -0.38272  -0.37734  -0.37306  -0.36722
 Alpha virt. eigenvalues --    0.04265   0.04776   0.10159   0.10922   0.15624
 Alpha virt. eigenvalues --    0.16232   0.18697   0.21961   0.25148   0.26187
 Alpha virt. eigenvalues --    0.27795   0.28871   0.29815   0.31008   0.32416

 Mulliken charges:
               1
     1  C   -0.170578
     2  C   -0.219336
     3  C   -0.170059
     4  C    0.158837
     5  C   -0.169649
     6  C   -0.218947
     7  H    0.219121
     8  H    0.221552
     9  H    0.276412
    10  H    0.277937
    11  H    0.221756
    12  N    0.487973
    13  O   -0.458720
    14  O   -0.459847
    15  C   -0.171391
    16  C   -0.223375
    17  C   -0.169789
    18  C    0.159518
    19  C   -0.168445
    20  C   -0.218001
    21  H    0.225816
    22  H    0.217095
    23  H    0.274770
    24  H    0.279115
    25  H    0.226764
    26  N    0.488173
    27  O   -0.457158
    28  O   -0.459546
 Sum of Mulliken charges =  -0.00000

 Dipole moment (field-independent basis, Debye):
    X=              3.0064    Y=              6.6956    Z=              1.9170  Tot=              7.5858
 Quadrupole moment (field-independent basis, Debye-Ang):
   XX=           -154.3638   YY=           -103.8928   ZZ=           -102.2494
   XY=             11.4665   XZ=             -4.8792   YZ=             -4.6774

 Normal termination of Gaussian 16 at Wed May  5 21:00:43 2021.
