 Gaussian 16, Revision A.03,
 Gaussian 16:  EM64L-G16RevA.03 25-Dec-2016

 -------------
 #p 6-31g* mp2
 -------------

 ------------------------------------------------------
 Input file generated by CHIRIPA (05-May-2021 14:57:27)
 ------------------------------------------------------
 Symbolic Z-matrix:
 Charge =  0 Multiplicity = 1

                         Standard orientation:
 ---------------------------------------------------------------------
 Center     Atomic      Atomic             Coordinates (Angstroms)
 Number     Number       Type             X           Y           Z
 ---------------------------------------------------------------------
      1          6           0       -5.454160    1.898896    0.525802
      2          6           0       -5.953408    0.594237    0.454133
      3          6           0       -5.107403   -0.473445    0.139685
      4          6           0       -3.761510   -0.199142   -0.098262
      5          6           0       -3.234108    1.089681   -0.034439
      6          6           0       -4.098494    2.142026    0.281718
      7          1           0       -6.118497    2.722341    0.770737
      8          1           0       -7.005793    0.402454    0.643208
      9          1           0       -5.467443   -1.493212    0.077510
     10          1           0       -2.180369    1.249608   -0.228026
     11          1           0       -3.707998    3.154220    0.336675
     12          7           0       -2.856153   -1.321331   -0.432059
     13          8           0       -1.674361   -1.053285   -0.637380
     14          8           0       -3.345469   -2.447700   -0.482049
     15          6           0        6.260710    0.932412    0.024368
     16          6           0        5.973442   -0.241353    0.728834
     17          6           0        4.674963   -0.759231    0.746224
     18          6           0        3.683535   -0.074578    0.045074
     19          6           0        3.938318    1.097011   -0.666089
     20          6           0        5.244024    1.596677   -0.669623
     21          1           0        7.272207    1.327638    0.016240
     22          1           0        6.761022   -0.759342    1.268693
     23          1           0        4.424834   -1.666034    1.283406
     24          1           0        3.132242    1.591119   -1.194784
     25          1           0        5.464214    2.508436   -1.217580
     26          7           0        2.305068   -0.613192    0.056150
     27          8           0        1.449329    0.008772   -0.569555
     28          8           0        2.106466   -1.647124    0.690326
 ---------------------------------------------------------------------

 SCF Done:  E(RHF) =  -868.334974541     A.U. after   16 cycles
 E2 =    -0.2600485644D+01 EUMP2 =    -0.87093546018577D+03

 The electronic state is 1-A.
 Alpha  occ. eigenvalues --  -20.59957 -20.59952 -20.59419 -20.59280 -15.85034
 Alpha  occ. eigenvalues --  -15.84397 -11.30722 -11.30189 -11.27346 -11.27314
 Alpha  occ. eigenvalues --  -11.27129 -11.26848 -11.26759 -11.26675 -11.26426
 Alpha  occ. eigenvalues --  -11.26401 -11.25954 -11.25925  -1.59017  -1.58440
 Alpha  occ. eigenvalues --   -1.38571  -1.37970  -1.18923  -1.18416  -1.08253
 Alpha  occ. eigenvalues --   -1.07743  -1.04376  -1.03878  -0.95033  -0.94494
 Alpha  occ. eigenvalues --   -0.85759  -0.85256  -0.81871  -0.81312  -0.76865
 Alpha  occ. eigenvalues --   -0.76283  -0.71258  -0.70549  -0.70378  -0.70031
 Alpha  occ. eigenvalues --   -0.69792  -0.69520  -0.64569  -0.64381  -0.64048
 Alpha  occ. eigenvalues --   -0.63893  -0.61723  -0.61210  -0.54862  -0.54388
 Alpha  occ. eigenvalues --   -0.52687  -0.52474  -0.52194  -0.51975  -0.47995
 Alpha  occ. eigenvalues --   -0.47960  -0.47395  -0.47315  -0.43917  -0.43282
 Alpha  occ. eigenvalues --   -0.36923  -0.36436  -0.35996  -0.35504
 Alpha virt. eigenvalues --    0.05676   0.06243   0.11653   0.12144   0.17110
 Alpha virt. eigenvalues --    0.17650   0.21746   0.22212   0.27633   0.28085
 Alpha virt. eigenvalues --    0.28652   0.29172   0.31269   0.31717   0.32893

 Mulliken charges:
               1
     1  C   -0.172206
     2  C   -0.218928
     3  C   -0.171861
     4  C    0.158160
     5  C   -0.172893
     6  C   -0.219164
     7  H    0.221625
     8  H    0.219980
     9  H    0.273958
    10  H    0.283893
    11  H    0.219835
    12  N    0.486348
    13  O   -0.441135
    14  O   -0.468655
    15  C   -0.171897
    16  C   -0.218435
    17  C   -0.171358
    18  C    0.159184
    19  C   -0.171827
    20  C   -0.218428
    21  H    0.223741
    22  H    0.222229
    23  H    0.276146
    24  H    0.273443
    25  H    0.221211
    26  N    0.487078
    27  O   -0.454639
    28  O   -0.455406
 Sum of Mulliken charges =  -0.00000

 Dipole moment (field-independent basis, Debye):
    X=              1.8949    Y=              5.7154    Z=              1.0832  Tot=              6.1180
 Quadrupole moment (field-independent basis, Debye-Ang):
   XX=            -45.5693   YY=           -102.9245   ZZ=           -104.8990
   XY=             -6.3041   XZ=             -3.2600   YZ=             -3.4151

 Normal termination of Gaussian 16 at Fri May  7 09:43:05 2021.
