 Gaussian 16, Revision A.03,
 Gaussian 16:  EM64L-G16RevA.03 25-Dec-2016

 -------------
 #p 6-31g* mp2
 -------------

 ------------------------------------------------------
 Input file generated by CHIRIPA (05-May-2021 14:53:17)
 ------------------------------------------------------
 Symbolic Z-matrix:
 Charge =  0 Multiplicity = 1

                         Standard orientation:
 ---------------------------------------------------------------------
 Center     Atomic      Atomic             Coordinates (Angstroms)
 Number     Number       Type             X           Y           Z
 ---------------------------------------------------------------------
      1          6           0       -3.634706    0.171738   -0.139202
      2          6           0       -4.749467   -0.086534    0.874992
      3          6           0       -5.708487   -1.191402    0.430763
      4          1           0       -4.082215    0.439558   -1.106132
      5          1           0       -3.073431   -0.758851   -0.301588
      6          1           0       -5.307605    0.844609    1.036457
      7          1           0       -4.299249   -0.353584    1.839671
      8          1           0       -5.170480   -2.134175    0.288179
      9          1           0       -6.184566   -0.929174   -0.519599
     10          1           0       -6.497465   -1.359540    1.170428
     11          6           0       -2.667875    1.273605    0.290745
     12          6           0       -1.553115    1.531877   -0.723449
     13          6           0       -0.594095    2.636745   -0.279220
     14          1           0       -3.229151    2.204194    0.453131
     15          1           0       -2.220366    1.005785    1.257675
     16          1           0       -2.003333    1.798927   -1.688128
     17          1           0       -0.994977    0.600734   -0.884914
     18          1           0       -0.118016    2.374517    0.671142
     19          1           0       -1.132102    3.579518   -0.136636
     20          1           0        0.194883    2.804883   -1.018885
     21          6           0        4.192749    1.011393    0.882361
     22          6           0        3.648330    1.245583   -0.384637
     23          6           0        2.688682    0.379009   -0.916307
     24          6           0        2.294618   -0.716947   -0.150223
     25          6           0        2.818408   -0.977154    1.115173
     26          6           0        3.776784   -0.097274    1.626910
     27          1           0        4.937733    1.689737    1.287632
     28          1           0        3.969491    2.105789   -0.965108
     29          1           0        2.250774    0.536595   -1.894479
     30          1           0        2.478405   -1.843065    1.670162
     31          1           0        4.197863   -0.281634    2.611159
     32          7           0        1.279354   -1.641393   -0.702526
     33          8           0        0.948948   -2.599827   -0.007635
     34          8           0        0.833224   -1.390037   -1.819855
 ---------------------------------------------------------------------

 SCF Done:  E(RHF) =  -669.536236695     A.U. after   15 cycles
 E2 =    -0.2092428377D+01 EUMP2 =    -0.67162866507177D+03

 The electronic state is 1-A.
 Alpha  occ. eigenvalues --  -20.60985 -20.60975 -15.85991 -11.31279 -11.27846
 Alpha  occ. eigenvalues --  -11.27841 -11.27572 -11.26842 -11.26831 -11.21046
 Alpha  occ. eigenvalues --  -11.21028 -11.20895 -11.20873 -11.20690 -11.20507
 Alpha  occ. eigenvalues --   -1.60037  -1.39594  -1.19448  -1.08859  -1.07878
 Alpha  occ. eigenvalues --   -1.04839  -1.03047  -0.95709  -0.95520  -0.86540
 Alpha  occ. eigenvalues --   -0.86240  -0.82542  -0.79093  -0.77682  -0.77582
 Alpha  occ. eigenvalues --   -0.72219  -0.71358  -0.70558  -0.65105  -0.64843
 Alpha  occ. eigenvalues --   -0.64502  -0.62193  -0.60445  -0.58902  -0.57125
 Alpha  occ. eigenvalues --   -0.55346  -0.54827  -0.53162  -0.52932  -0.52236
 Alpha  occ. eigenvalues --   -0.51942  -0.49454  -0.48991  -0.48976  -0.47431
 Alpha  occ. eigenvalues --   -0.46187  -0.45331  -0.45202  -0.44668  -0.43290
 Alpha  occ. eigenvalues --   -0.37420  -0.36416
 Alpha virt. eigenvalues --    0.04898   0.11182   0.16371   0.21139   0.23283
 Alpha virt. eigenvalues --    0.24493   0.26857   0.27176   0.27804   0.28244
 Alpha virt. eigenvalues --    0.28792   0.30847   0.31657   0.31813   0.32423

 Mulliken charges:
               1
     1  C   -0.300482
     2  C   -0.299129
     3  C   -0.475939
     4  H    0.148918
     5  H    0.160283
     6  H    0.148982
     7  H    0.150925
     8  H    0.158822
     9  H    0.154416
    10  H    0.157816
    11  C   -0.297623
    12  C   -0.307817
    13  C   -0.474294
    14  H    0.146175
    15  H    0.147091
    16  H    0.151937
    17  H    0.164852
    18  H    0.153307
    19  H    0.153380
    20  H    0.151519
    21  C   -0.170410
    22  C   -0.218212
    23  C   -0.168553
    24  C    0.157392
    25  C   -0.171139
    26  C   -0.218685
    27  H    0.226103
    28  H    0.224022
    29  H    0.276159
    30  H    0.275554
    31  H    0.223740
    32  N    0.487291
    33  O   -0.458753
    34  O   -0.457648
 Sum of Mulliken charges =  -0.00000

 Dipole moment (field-independent basis, Debye):
    X=              3.6999    Y=              3.0786    Z=              1.8941  Tot=              5.1725
 Quadrupole moment (field-independent basis, Debye-Ang):
   XX=            -79.4505   YY=            -98.8754   ZZ=            -91.9563
   XY=              4.2095   XZ=              4.6746   YZ=             -4.9933

 Normal termination of Gaussian 16 at Wed May  5 18:46:55 2021.
