 Gaussian 16, Revision A.03,
 Gaussian 16:  EM64L-G16RevA.03 25-Dec-2016

 -------------
 #p 6-31g* mp2
 -------------

 ------------------------------------------------------
 Input file generated by CHIRIPA (05-May-2021 14:55:22)
 ------------------------------------------------------
 Symbolic Z-matrix:
 Charge =  0 Multiplicity = 1

                         Standard orientation:
 ---------------------------------------------------------------------
 Center     Atomic      Atomic             Coordinates (Angstroms)
 Number     Number       Type             X           Y           Z
 ---------------------------------------------------------------------
      1          6           0       -1.467355   -2.613723    0.503434
      2          6           0       -1.562796   -1.707423    1.564580
      3          6           0       -1.817311   -0.354317    1.321938
      4          6           0       -1.971736    0.059910   -0.000128
      5          6           0       -1.882263   -0.818714   -1.078694
      6          6           0       -1.627111   -2.167263   -0.812496
      7          1           0       -1.269394   -3.663078    0.701073
      8          1           0       -1.439166   -2.051320    2.587564
      9          1           0       -1.896157    0.368791    2.124631
     10          1           0       -2.010128   -0.446087   -2.087761
     11          1           0       -1.553510   -2.868856   -1.638569
     12          7           0       -2.241517    1.489971   -0.269471
     13          8           0       -2.373660    1.829735   -1.443240
     14          8           0       -2.315719    2.244009    0.698288
     15          6           0        2.793948   -0.444749    0.110417
     16          6           0        2.128213   -1.634197   -0.582400
     17          6           0        2.793706   -2.967048   -0.238275
     18          1           0        3.854877   -0.410398   -0.172771
     19          1           0        2.765565   -0.599839    1.197862
     20          1           0        2.156611   -1.476253   -1.668155
     21          1           0        1.068701   -1.665608   -0.297682
     22          1           0        2.752548   -3.151082    0.840167
     23          1           0        3.846639   -2.960652   -0.538093
     24          1           0        2.301968   -3.803746   -0.744231
     25          6           0        2.139870    0.894748   -0.223731
     26          6           0        2.805605    2.084197    0.469087
     27          6           0        2.140112    3.417047    0.124961
     28          1           0        2.168253    1.049838   -1.311176
     29          1           0        1.078940    0.860397    0.059457
     30          1           0        3.865116    2.115607    0.184368
     31          1           0        2.777206    1.926253    1.554842
     32          1           0        1.087179    3.410651    0.424779
     33          1           0        2.181270    3.601082   -0.953481
     34          1           0        2.631850    4.253745    0.630917
 ---------------------------------------------------------------------

 SCF Done:  E(RHF) =  -669.534287054     A.U. after   15 cycles
 E2 =    -0.2095729838D+01 EUMP2 =    -0.67163001689200D+03

 The electronic state is 1-A.
 Alpha  occ. eigenvalues --  -20.60916 -20.60911 -15.85964 -11.31359 -11.27936
 Alpha  occ. eigenvalues --  -11.27882 -11.27623 -11.26940 -11.26884 -11.21544
 Alpha  occ. eigenvalues --  -11.21411 -11.21356 -11.21294 -11.21181 -11.20468
 Alpha  occ. eigenvalues --   -1.59985  -1.39537  -1.19544  -1.08930  -1.08322
 Alpha  occ. eigenvalues --   -1.04929  -1.03406  -0.95870  -0.95742  -0.86874
 Alpha  occ. eigenvalues --   -0.86321  -0.82569  -0.79490  -0.78136  -0.77617
 Alpha  occ. eigenvalues --   -0.72176  -0.71309  -0.70615  -0.65172  -0.64992
 Alpha  occ. eigenvalues --   -0.64915  -0.62262  -0.60841  -0.59304  -0.57471
 Alpha  occ. eigenvalues --   -0.55414  -0.55153  -0.53427  -0.53005  -0.52532
 Alpha  occ. eigenvalues --   -0.52283  -0.49801  -0.48942  -0.48931  -0.47775
 Alpha  occ. eigenvalues --   -0.46501  -0.45635  -0.45487  -0.44916  -0.43663
 Alpha  occ. eigenvalues --   -0.37420  -0.36496
 Alpha virt. eigenvalues --    0.04892   0.11068   0.16349   0.21132   0.22937
 Alpha virt. eigenvalues --    0.24331   0.26524   0.27044   0.27428   0.27900
 Alpha virt. eigenvalues --    0.28543   0.30809   0.31424   0.31634   0.32370

 Mulliken charges:
               1
     1  C   -0.173278
     2  C   -0.216295
     3  C   -0.173375
     4  C    0.160861
     5  C   -0.169134
     6  C   -0.218525
     7  H    0.227320
     8  H    0.224500
     9  H    0.276314
    10  H    0.276527
    11  H    0.224860
    12  N    0.489076
    13  O   -0.458812
    14  O   -0.460971
    15  C   -0.295928
    16  C   -0.310651
    17  C   -0.474647
    18  H    0.149025
    19  H    0.146245
    20  H    0.148647
    21  H    0.166005
    22  H    0.151846
    23  H    0.157363
    24  H    0.152614
    25  C   -0.300252
    26  C   -0.299276
    27  C   -0.478990
    28  H    0.150565
    29  H    0.148006
    30  H    0.150166
    31  H    0.149434
    32  H    0.165977
    33  H    0.156039
    34  H    0.158744
 Sum of Mulliken charges =  -0.00000

 Dipole moment (field-independent basis, Debye):
    X=              0.7250    Y=             -4.9563    Z=              0.9268  Tot=              5.0941
 Quadrupole moment (field-independent basis, Debye-Ang):
   XX=            -99.4992   YY=            -96.8859   ZZ=            -89.3233
   XY=             10.8466   XZ=             -2.2936   YZ=              1.0947

 Normal termination of Gaussian 16 at Wed May  5 16:00:50 2021.
