 Gaussian 16, Revision A.03,
 Gaussian 16:  EM64L-G16RevA.03 25-Dec-2016

 -------------
 #p 6-31g* mp2
 -------------

 ------------------------------------------------------
 Input file generated by CHIRIPA (05-May-2021 14:57:25)
 ------------------------------------------------------
 Symbolic Z-matrix:
 Charge =  0 Multiplicity = 1

                         Standard orientation:
 ---------------------------------------------------------------------
 Center     Atomic      Atomic             Coordinates (Angstroms)
 Number     Number       Type             X           Y           Z
 ---------------------------------------------------------------------
      1          6           0        2.097807    2.008842   -0.027811
      2          6           0        1.949117    0.895067    0.805205
      3          6           0        2.870689   -0.155170    0.757705
      4          6           0        3.933859   -0.058258   -0.138714
      5          6           0        4.109195    1.038214   -0.981505
      6          6           0        3.175471    2.076742   -0.916940
      7          1           0        1.377188    2.820144    0.015716
      8          1           0        1.113163    0.839629    1.496691
      9          1           0        2.779572   -1.029075    1.391272
     10          1           0        4.952781    1.064958   -1.660523
     11          1           0        3.293461    2.940493   -1.565059
     12          7           0        4.915918   -1.163899   -0.198033
     13          8           0        5.843905   -1.054441   -0.996467
     14          8           0        4.739073   -2.119022    0.555028
     15          6           0       -5.771127   -0.761585   -1.272087
     16          6           0       -4.942502   -1.755706   -0.741404
     17          6           0       -3.832102   -1.414013    0.036289
     18          6           0       -3.578735   -0.062322    0.264384
     19          6           0       -4.385514    0.951236   -0.250492
     20          6           0       -5.490484    0.586337   -1.025373
     21          1           0       -6.631603   -1.036033   -1.875125
     22          1           0       -5.158025   -2.803326   -0.931368
     23          1           0       -3.174017   -2.163254    0.459353
     24          1           0       -4.145091    1.987054   -0.043864
     25          1           0       -6.132266    1.360520   -1.436226
     26          7           0       -2.406080    0.311696    1.086203
     27          8           0       -2.204459    1.509715    1.272580
     28          8           0       -1.710777   -0.600250    1.528409
 ---------------------------------------------------------------------

 SCF Done:  E(RHF) =  -868.341243033     A.U. after   16 cycles
 E2 =    -0.2598537540D+01 EUMP2 =    -0.87093978057306D+03

 The electronic state is 1-A.
 Alpha  occ. eigenvalues --  -20.61893 -20.61859 -20.59991 -20.59981 -15.86867
 Alpha  occ. eigenvalues --  -15.85029 -11.31894 -11.30179 -11.28433 -11.28398
 Alpha  occ. eigenvalues --  -11.28095 -11.27362 -11.27333 -11.26762 -11.26594
 Alpha  occ. eigenvalues --  -11.26317 -11.25760 -11.25385  -1.60926  -1.59068
 Alpha  occ. eigenvalues --   -1.40485  -1.38627  -1.20031  -1.18301  -1.09492
 Alpha  occ. eigenvalues --   -1.07726  -1.05380  -1.03642  -0.96384  -0.94607
 Alpha  occ. eigenvalues --   -0.86794  -0.85041  -0.83228  -0.81430  -0.78312
 Alpha  occ. eigenvalues --   -0.76515  -0.73099  -0.72210  -0.71253  -0.71133
 Alpha  occ. eigenvalues --   -0.70389  -0.69387  -0.65686  -0.65380  -0.63930
 Alpha  occ. eigenvalues --   -0.63585  -0.62730  -0.60968  -0.55895  -0.54125
 Alpha  occ. eigenvalues --   -0.53728  -0.53466  -0.52027  -0.51703  -0.49871
 Alpha  occ. eigenvalues --   -0.49824  -0.48021  -0.47983  -0.45961  -0.44081
 Alpha  occ. eigenvalues --   -0.37989  -0.36966  -0.36280  -0.35250
 Alpha virt. eigenvalues --    0.04183   0.05965   0.10694   0.12395   0.15750
 Alpha virt. eigenvalues --    0.17533   0.20870   0.22716   0.26808   0.27726
 Alpha virt. eigenvalues --    0.28744   0.29434   0.30482   0.31927   0.32358

 Mulliken charges:
               1
     1  C   -0.174358
     2  C   -0.225939
     3  C   -0.173878
     4  C    0.157666
     5  C   -0.173932
     6  C   -0.219211
     7  H    0.228718
     8  H    0.248880
     9  H    0.275803
    10  H    0.271284
    11  H    0.218589
    12  N    0.488064
    13  O   -0.464187
    14  O   -0.461914
    15  C   -0.169469
    16  C   -0.218528
    17  C   -0.169848
    18  C    0.158382
    19  C   -0.170665
    20  C   -0.218587
    21  H    0.228249
    22  H    0.226470
    23  H    0.277370
    24  H    0.274640
    25  H    0.225166
    26  N    0.489715
    27  O   -0.466423
    28  O   -0.462056
 Sum of Mulliken charges =  -0.00000

 Dipole moment (field-independent basis, Debye):
    X=             -8.2048    Y=              2.4992    Z=             -2.5946  Tot=              8.9608
 Quadrupole moment (field-independent basis, Debye-Ang):
   XX=           -102.5086   YY=            -99.8161   ZZ=           -105.0162
   XY=             21.0625   XZ=              9.6628   YZ=             -3.2159

 Normal termination of Gaussian 16 at Wed May  5 22:45:11 2021.
