 Gaussian 16, Revision A.03,
 Gaussian 16:  EM64L-G16RevA.03 25-Dec-2016

 -------------
 #p 6-31g* mp2
 -------------

 ------------------------------------------------------
 Input file generated by CHIRIPA (05-May-2021 14:55:24)
 ------------------------------------------------------
 Symbolic Z-matrix:
 Charge =  0 Multiplicity = 1

                         Standard orientation:
 ---------------------------------------------------------------------
 Center     Atomic      Atomic             Coordinates (Angstroms)
 Number     Number       Type             X           Y           Z
 ---------------------------------------------------------------------
      1          6           0        1.275673    1.827575    1.213216
      2          6           0        0.716644    0.549755    1.107459
      3          6           0        1.442947   -0.497660    0.533044
      4          6           0        2.731400   -0.230680    0.072719
      5          6           0        3.315927    1.031583    0.163887
      6          6           0        2.571246    2.063993    0.741924
      7          1           0        0.704325    2.635404    1.660842
      8          1           0       -0.289297    0.363242    1.472617
      9          1           0        1.034477   -1.496489    0.438641
     10          1           0        4.320998    1.186876   -0.209119
     11          1           0        3.007944    3.055360    0.822743
     12          7           0        3.510033   -1.331589   -0.537306
     13          8           0        4.643221   -1.070518   -0.935255
     14          8           0        2.972394   -2.434708   -0.605942
     15          6           0       -3.803595   -0.531869   -0.305864
     16          6           0       -3.439616   -1.724169    0.579532
     17          6           0       -4.392389   -2.906450    0.400011
     18          1           0       -4.830634   -0.214706   -0.078833
     19          1           0       -3.800078   -0.850406   -1.357490
     20          1           0       -3.442465   -1.403136    1.629077
     21          1           0       -2.413256   -2.038408    0.350501
     22          1           0       -4.383263   -3.254397   -0.637992
     23          1           0       -5.418319   -2.615515    0.647848
     24          1           0       -4.113761   -3.747707    1.042283
     25          6           0       -2.860271    0.657914   -0.137676
     26          6           0       -3.224249    1.850214   -1.023073
     27          6           0       -2.271476    3.032496   -0.843551
     28          1           0       -2.863786    0.976451    0.913949
     29          1           0       -1.833232    0.340751   -0.364708
     30          1           0       -4.250609    2.164454   -0.794041
     31          1           0       -3.221399    1.529181   -2.072617
     32          1           0       -1.245545    2.741561   -1.091389
     33          1           0       -2.280602    3.380443    0.194452
     34          1           0       -2.550103    3.873753   -1.485823
 ---------------------------------------------------------------------

 SCF Done:  E(RHF) =  -669.535160574     A.U. after   15 cycles
 E2 =    -0.2092943825D+01 EUMP2 =    -0.67162810439885D+03

 The electronic state is 1-A.
 Alpha  occ. eigenvalues --  -20.60752 -20.60747 -15.85804 -11.31165 -11.27721
 Alpha  occ. eigenvalues --  -11.27708 -11.27437 -11.26744 -11.26647 -11.22315
 Alpha  occ. eigenvalues --  -11.22311 -11.22216 -11.22033 -11.21824 -11.21541
 Alpha  occ. eigenvalues --   -1.59827  -1.39381  -1.19329  -1.09175  -1.08717
 Alpha  occ. eigenvalues --   -1.04728  -1.04204  -0.96656  -0.95557  -0.87674
 Alpha  occ. eigenvalues --   -0.86123  -0.82394  -0.80291  -0.79064  -0.77417
 Alpha  occ. eigenvalues --   -0.72021  -0.71151  -0.70422  -0.65799  -0.64971
 Alpha  occ. eigenvalues --   -0.64720  -0.62082  -0.61591  -0.60020  -0.58282
 Alpha  occ. eigenvalues --   -0.55938  -0.55215  -0.53334  -0.53186  -0.53071
 Alpha  occ. eigenvalues --   -0.52702  -0.50587  -0.48787  -0.48778  -0.48588
 Alpha  occ. eigenvalues --   -0.47315  -0.46503  -0.46458  -0.44788  -0.44474
 Alpha  occ. eigenvalues --   -0.37282  -0.36291
 Alpha virt. eigenvalues --    0.05055   0.11269   0.16449   0.20118   0.22686
 Alpha virt. eigenvalues --    0.23137   0.25073   0.25267   0.26755   0.28862
 Alpha virt. eigenvalues --    0.29100   0.30394   0.31252   0.31587   0.31783

 Mulliken charges:
               1
     1  C   -0.172988
     2  C   -0.219846
     3  C   -0.175182
     4  C    0.159166
     5  C   -0.171300
     6  C   -0.218953
     7  H    0.226813
     8  H    0.232291
     9  H    0.275548
    10  H    0.275429
    11  H    0.223490
    12  N    0.488038
    13  O   -0.460484
    14  O   -0.460613
    15  C   -0.297535
    16  C   -0.301599
    17  C   -0.475904
    18  H    0.151834
    19  H    0.153846
    20  H    0.149440
    21  H    0.148605
    22  H    0.158435
    23  H    0.156516
    24  H    0.162705
    25  C   -0.306788
    26  C   -0.298632
    27  C   -0.479840
    28  H    0.141944
    29  H    0.153953
    30  H    0.153920
    31  H    0.156364
    32  H    0.159310
    33  H    0.148276
    34  H    0.163740
 Sum of Mulliken charges =  -0.00000

 Dipole moment (field-independent basis, Debye):
    X=             -2.8882    Y=              3.8481    Z=              2.0504  Tot=              5.2300
 Quadrupole moment (field-independent basis, Debye-Ang):
   XX=           -106.5919   YY=            -95.5622   ZZ=            -94.4915
   XY=             13.6071   XZ=              4.9452   YZ=             -0.5589

 Normal termination of Gaussian 16 at Wed May  5 20:47:14 2021.
