 Gaussian 16, Revision A.03,
 Gaussian 16:  EM64L-G16RevA.03 25-Dec-2016

 -------------
 #p 6-31g* mp2
 -------------

 ------------------------------------------------------
 Input file generated by CHIRIPA (05-May-2021 14:53:15)
 ------------------------------------------------------
 Symbolic Z-matrix:
 Charge =  0 Multiplicity = 1

                         Standard orientation:
 ---------------------------------------------------------------------
 Center     Atomic      Atomic             Coordinates (Angstroms)
 Number     Number       Type             X           Y           Z
 ---------------------------------------------------------------------
      1          6           0        3.234702   -0.596714    0.425429
      2          6           0        3.660994   -1.883392   -0.282187
      3          6           0        2.972751   -3.125567    0.284487
      4          1           0        3.457744   -0.684257    1.497592
      5          1           0        2.144956   -0.483879    0.341063
      6          1           0        4.749778   -1.993055   -0.197702
      7          1           0        3.437087   -1.792701   -1.352821
      8          1           0        1.885568   -3.042321    0.185982
      9          1           0        3.205718   -3.243813    1.347664
     10          1           0        3.291978   -4.033974   -0.235850
     11          6           0        3.914208    0.653738   -0.129880
     12          6           0        3.487916    1.940416    0.577736
     13          6           0        4.176158    3.182591    0.011062
     14          1           0        5.003953    0.540903   -0.045514
     15          1           0        3.691166    0.741281   -1.202043
     16          1           0        3.711823    1.849725    1.648370
     17          1           0        2.399131    2.050079    0.493252
     18          1           0        3.943192    3.300837   -1.052115
     19          1           0        5.263342    3.099345    0.109567
     20          1           0        3.856931    4.090998    0.531399
     21          6           0       -5.122517    0.813410    0.373196
     22          6           0       -4.133204    1.706495   -0.051280
     23          6           0       -2.838802    1.254602   -0.324893
     24          6           0       -2.567290   -0.103066   -0.162690
     25          6           0       -3.531373   -1.017566    0.258645
     26          6           0       -4.818979   -0.543378    0.526533
     27          1           0       -6.125400    1.173111    0.583522
     28          1           0       -4.366076    2.760737   -0.171235
     29          1           0       -2.053854    1.924205   -0.654902
     30          1           0       -3.269111   -2.062770    0.369033
     31          1           0       -5.585296   -1.239243    0.856041
     32          7           0       -1.200562   -0.593267   -0.449321
     33          8           0       -0.986791   -1.794200   -0.298660
     34          8           0       -0.368970    0.232730   -0.819216
 ---------------------------------------------------------------------

 SCF Done:  E(RHF) =  -669.537331121     A.U. after   15 cycles
 E2 =    -0.2092074611D+01 EUMP2 =    -0.67162940573147D+03

 The electronic state is 1-A.
 Alpha  occ. eigenvalues --  -20.61243 -20.61230 -15.86223 -11.31448 -11.27993
 Alpha  occ. eigenvalues --  -11.27988 -11.27713 -11.26975 -11.26966 -11.20459
 Alpha  occ. eigenvalues --  -11.20213 -11.20016 -11.20010 -11.19591 -11.19394
 Alpha  occ. eigenvalues --   -1.60265  -1.39824  -1.19601  -1.09025  -1.06966
 Alpha  occ. eigenvalues --   -1.04980  -1.02165  -0.95881  -0.94614  -0.86386
 Alpha  occ. eigenvalues --   -0.85639  -0.82720  -0.78263  -0.77786  -0.76749
 Alpha  occ. eigenvalues --   -0.72437  -0.71561  -0.70709  -0.65258  -0.64984
 Alpha  occ. eigenvalues --   -0.63570  -0.62327  -0.59550  -0.58036  -0.56232
 Alpha  occ. eigenvalues --   -0.55490  -0.53879  -0.53317  -0.53069  -0.51379
 Alpha  occ. eigenvalues --   -0.51054  -0.49259  -0.49222  -0.48489  -0.46577
 Alpha  occ. eigenvalues --   -0.45339  -0.45208  -0.44329  -0.44013  -0.42387
 Alpha  occ. eigenvalues --   -0.37572  -0.36575
 Alpha virt. eigenvalues --    0.04703   0.11082   0.16210   0.21206   0.24306
 Alpha virt. eigenvalues --    0.25665   0.27148   0.27824   0.28294   0.29113
 Alpha virt. eigenvalues --    0.29279   0.30879   0.32236   0.32739   0.32872

 Mulliken charges:
               1
     1  C   -0.309180
     2  C   -0.295918
     3  C   -0.483812
     4  H    0.140077
     5  H    0.176515
     6  H    0.143292
     7  H    0.153138
     8  H    0.176712
     9  H    0.147138
    10  H    0.152520
    11  C   -0.295363
    12  C   -0.300735
    13  C   -0.474854
    14  H    0.142855
    15  H    0.151397
    16  H    0.147115
    17  H    0.157973
    18  H    0.154455
    19  H    0.152679
    20  H    0.154792
    21  C   -0.170169
    22  C   -0.218603
    23  C   -0.170335
    24  C    0.158423
    25  C   -0.170463
    26  C   -0.218630
    27  H    0.226614
    28  H    0.224434
    29  H    0.275997
    30  H    0.276290
    31  H    0.224421
    32  N    0.489436
    33  O   -0.458907
    34  O   -0.459303
 Sum of Mulliken charges =  -0.00000

 Dipole moment (field-independent basis, Debye):
    X=             -5.4051    Y=              1.7111    Z=              0.9037  Tot=              5.7410
 Quadrupole moment (field-independent basis, Debye-Ang):
   XX=            -71.4918   YY=            -92.6282   ZZ=            -95.4866
   XY=             -2.9227   XZ=             -2.0802   YZ=             -1.4405

 Normal termination of Gaussian 16 at Thu May  6 13:51:19 2021.
