 Gaussian 16, Revision A.03,
 Gaussian 16:  EM64L-G16RevA.03 25-Dec-2016

 -------------
 #p 6-31g* mp2
 -------------

 ------------------------------------------------------
 Input file generated by CHIRIPA (05-May-2021 14:53:11)
 ------------------------------------------------------
 Symbolic Z-matrix:
 Charge =  0 Multiplicity = 1

                         Standard orientation:
 ---------------------------------------------------------------------
 Center     Atomic      Atomic             Coordinates (Angstroms)
 Number     Number       Type             X           Y           Z
 ---------------------------------------------------------------------
      1          6           0        3.973555   -0.674647   -0.231979
      2          6           0        2.903295   -0.668579    0.860033
      3          6           0        1.604016   -1.342657    0.418118
      4          1           0        3.580918   -0.167875   -1.124147
      5          1           0        4.180020   -1.712629   -0.527546
      6          1           0        2.699907    0.369005    1.154429
      7          1           0        3.298593   -1.175256    1.749771
      8          1           0        1.785784   -2.386732    0.143406
      9          1           0        1.183696   -0.833697   -0.455319
     10          1           0        0.852819   -1.327083    1.213933
     11          6           0        5.278269   -0.004314    0.194756
     12          6           0        6.348529   -0.010382   -0.897257
     13          6           0        7.647808    0.663695   -0.455342
     14          1           0        5.071804    1.033668    0.490323
     15          1           0        5.670906   -0.511087    1.086924
     16          1           0        5.953230    0.496295   -1.786994
     17          1           0        6.551917   -1.047966   -1.191653
     18          1           0        8.068128    0.154736    0.418095
     19          1           0        7.466040    1.707771   -0.180629
     20          1           0        8.399005    0.648122   -1.251156
     21          6           0       -1.857314    1.967812    0.631937
     22          6           0       -1.709827    0.634546    1.028385
     23          6           0       -2.676886   -0.317366    0.691921
     24          6           0       -3.783823    0.100619   -0.045147
     25          6           0       -3.959185    1.421496   -0.454807
     26          6           0       -2.979544    2.356346   -0.107091
     27          1           0       -1.101193    2.700653    0.897682
     28          1           0       -0.839322    0.329949    1.602394
     29          1           0       -2.587780   -1.356142    0.985895
     30          1           0       -4.837832    1.695041   -1.026270
     31          1           0       -3.096713    3.391086   -0.416334
     32          7           0       -4.814265   -0.898096   -0.407303
     33          8           0       -5.780289   -0.504446   -1.057283
     34          8           0       -4.636390   -2.055630   -0.034323
 ---------------------------------------------------------------------

 SCF Done:  E(RHF) =  -669.535213861     A.U. after   15 cycles
 E2 =    -0.2091102503D+01 EUMP2 =    -0.67162631636463D+03

 The electronic state is 1-A.
 Alpha  occ. eigenvalues --  -20.60724 -20.60719 -15.85777 -11.31141 -11.27708
 Alpha  occ. eigenvalues --  -11.27693 -11.27448 -11.26732 -11.26681 -11.22372
 Alpha  occ. eigenvalues --  -11.22010 -11.21972 -11.21918 -11.21866 -11.21425
 Alpha  occ. eigenvalues --   -1.59800  -1.39353  -1.19311  -1.09000  -1.08708
 Alpha  occ. eigenvalues --   -1.04715  -1.04119  -0.96572  -0.95543  -0.87594
 Alpha  occ. eigenvalues --   -0.86108  -0.82376  -0.80185  -0.78788  -0.77423
 Alpha  occ. eigenvalues --   -0.71996  -0.71122  -0.70422  -0.65632  -0.64963
 Alpha  occ. eigenvalues --   -0.64745  -0.62126  -0.61493  -0.59944  -0.58175
 Alpha  occ. eigenvalues --   -0.55842  -0.55218  -0.53406  -0.53056  -0.52996
 Alpha  occ. eigenvalues --   -0.52641  -0.50482  -0.48755  -0.48750  -0.48495
 Alpha  occ. eigenvalues --   -0.47209  -0.46333  -0.46245  -0.44759  -0.44373
 Alpha  occ. eigenvalues --   -0.37294  -0.36298
 Alpha virt. eigenvalues --    0.05106   0.11314   0.16565   0.20100   0.22537
 Alpha virt. eigenvalues --    0.23780   0.25972   0.26101   0.26945   0.28129
 Alpha virt. eigenvalues --    0.28602   0.30242   0.30891   0.31413   0.32301

 Mulliken charges:
               1
     1  C   -0.298868
     2  C   -0.300201
     3  C   -0.478154
     4  H    0.150520
     5  H    0.152377
     6  H    0.146547
     7  H    0.154406
     8  H    0.161716
     9  H    0.159819
    10  H    0.149673
    11  C   -0.298491
    12  C   -0.300115
    13  C   -0.475948
    14  H    0.148303
    15  H    0.150658
    16  H    0.152321
    17  H    0.153314
    18  H    0.155805
    19  H    0.154839
    20  H    0.161641
    21  C   -0.172584
    22  C   -0.218711
    23  C   -0.172097
    24  C    0.158421
    25  C   -0.171281
    26  C   -0.218492
    27  H    0.225260
    28  H    0.228237
    29  H    0.275540
    30  H    0.275386
    31  H    0.223074
    32  N    0.488107
    33  O   -0.460691
    34  O   -0.460335
 Sum of Mulliken charges =  -0.00000

 Dipole moment (field-independent basis, Debye):
    X=              3.8058    Y=              3.4691    Z=              1.2114  Tot=              5.2902
 Quadrupole moment (field-independent basis, Debye-Ang):
   XX=           -121.7788   YY=            -91.1416   ZZ=            -94.4421
   XY=            -16.1103   XZ=             -3.7621   YZ=             -2.3229

 Normal termination of Gaussian 16 at Wed May  5 15:26:30 2021.
