 Gaussian 16, Revision A.03,
 Gaussian 16:  EM64L-G16RevA.03 25-Dec-2016

 -------------
 #p 6-31g* mp2
 -------------

 ------------------------------------------------------
 Input file generated by CHIRIPA (05-May-2021 14:51:12)
 ------------------------------------------------------
 Symbolic Z-matrix:
 Charge =  0 Multiplicity = 1

                         Standard orientation:
 ---------------------------------------------------------------------
 Center     Atomic      Atomic             Coordinates (Angstroms)
 Number     Number       Type             X           Y           Z
 ---------------------------------------------------------------------
      1          6           0        2.581011   -0.462346   -0.085449
      2          6           0        2.363353   -1.906885   -0.537021
      3          6           0        0.892243   -2.322058   -0.501516
      4          1           0        2.188590   -0.340308    0.933401
      5          1           0        1.994269    0.207933   -0.728764
      6          1           0        2.951417   -2.574131    0.106080
      7          1           0        2.756512   -2.025548   -1.554843
      8          1           0        0.294920   -1.680336   -1.157260
      9          1           0        0.490933   -2.232036    0.513101
     10          1           0        0.759511   -3.358179   -0.828159
     11          6           0        4.046649   -0.032543   -0.115480
     12          6           0        4.264308    1.411996    0.336093
     13          6           0        5.735418    1.827169    0.300588
     14          1           0        4.633392   -0.702822    0.527835
     15          1           0        4.439071   -0.154581   -1.134330
     16          1           0        3.871149    1.530658    1.353915
     17          1           0        3.676244    2.079242   -0.307009
     18          1           0        6.136728    1.737147   -0.714030
     19          1           0        6.332741    1.185447    0.956331
     20          1           0        5.868150    2.863290    0.627230
     21          6           0       -3.215241    0.971371    0.323270
     22          6           0       -3.904570    1.985995   -0.589611
     23          6           0       -3.698204    3.429852   -0.130824
     24          1           0       -3.596249    1.090391    1.346799
     25          1           0       -2.140046    1.194638    0.362050
     26          1           0       -4.977931    1.760038   -0.627753
     27          1           0       -3.522016    1.864417   -1.611124
     28          1           0       -2.632302    3.678908   -0.110223
     29          1           0       -4.096489    3.573938    0.878735
     30          1           0       -4.199354    4.138476   -0.797578
     31          6           0       -3.412420   -0.476482   -0.122341
     32          6           0       -2.723091   -1.491105    0.790540
     33          6           0       -2.929457   -2.934962    0.331753
     34          1           0       -4.487614   -0.699749   -0.161121
     35          1           0       -3.031412   -0.595503   -1.145870
     36          1           0       -3.105644   -1.369528    1.812052
     37          1           0       -1.649730   -1.265150    0.828682
     38          1           0       -2.531172   -3.079048   -0.677805
     39          1           0       -3.995359   -3.184019    0.311152
     40          1           0       -2.428308   -3.643586    0.998508
 ---------------------------------------------------------------------

 SCF Done:  E(RHF) =  -470.732872587     A.U. after   11 cycles
 E2 =    -0.1583159048D+01 EUMP2 =    -0.47231603163568D+03

 The electronic state is 1-A.
 Alpha  occ. eigenvalues --  -11.21646 -11.21634 -11.21567 -11.21455 -11.21432
 Alpha  occ. eigenvalues --  -11.21393 -11.21340 -11.21275 -11.21117 -11.21095
 Alpha  occ. eigenvalues --  -11.21046 -11.20948  -1.08479  -1.08354  -1.03591
 Alpha  occ. eigenvalues --   -1.03435  -0.96048  -0.95885  -0.87049  -0.86919
 Alpha  occ. eigenvalues --   -0.79671  -0.79494  -0.78303  -0.78159  -0.65108
 Alpha  occ. eigenvalues --   -0.64996  -0.60999  -0.60857  -0.59394  -0.59280
 Alpha  occ. eigenvalues --   -0.57670  -0.57483  -0.55334  -0.55185  -0.52714
 Alpha  occ. eigenvalues --   -0.52591  -0.52452  -0.52326  -0.49988  -0.49832
 Alpha  occ. eigenvalues --   -0.48096  -0.47741  -0.46736  -0.46462  -0.45911
 Alpha  occ. eigenvalues --   -0.45761  -0.45690  -0.45468  -0.43825  -0.43706
 Alpha virt. eigenvalues --    0.21313   0.23008   0.23677   0.24754   0.26153
 Alpha virt. eigenvalues --    0.26373   0.27187   0.27493   0.28083   0.29263
 Alpha virt. eigenvalues --    0.30228   0.31311   0.31627   0.31917   0.32376

 Mulliken charges:
               1
     1  C   -0.298481
     2  C   -0.300472
     3  C   -0.478241
     4  H    0.149517
     5  H    0.148988
     6  H    0.152185
     7  H    0.151989
     8  H    0.154849
     9  H    0.159377
    10  H    0.161252
    11  C   -0.298218
    12  C   -0.299699
    13  C   -0.475743
    14  H    0.149722
    15  H    0.149785
    16  H    0.152070
    17  H    0.151834
    18  H    0.155220
    19  H    0.155267
    20  H    0.160389
    21  C   -0.298417
    22  C   -0.299529
    23  C   -0.475668
    24  H    0.149484
    25  H    0.149631
    26  H    0.151887
    27  H    0.151582
    28  H    0.155096
    29  H    0.155144
    30  H    0.160070
    31  C   -0.298050
    32  C   -0.305415
    33  C   -0.475269
    34  H    0.149144
    35  H    0.148988
    36  H    0.150577
    37  H    0.158852
    38  H    0.156717
    39  H    0.154137
    40  H    0.159446
 Sum of Mulliken charges =  -0.00000

 Dipole moment (field-independent basis, Debye):
    X=              0.0556    Y=             -0.0232    Z=             -0.0013  Tot=              0.0603
 Quadrupole moment (field-independent basis, Debye-Ang):
   XX=            -85.2615   YY=            -86.0742   ZZ=            -83.5756
   XY=             -0.5473   XZ=             -0.3804   YZ=             -0.5609

 Normal termination of Gaussian 16 at Wed May  5 23:09:04 2021.
