 Gaussian 16, Revision A.03,
 Gaussian 16:  EM64L-G16RevA.03 25-Dec-2016

 -------------
 #p 6-31g* mp2
 -------------

 ------------------------------------------------------
 Input file generated by CHIRIPA (05-May-2021 14:55:21)
 ------------------------------------------------------
 Symbolic Z-matrix:
 Charge =  0 Multiplicity = 1

                         Standard orientation:
 ---------------------------------------------------------------------
 Center     Atomic      Atomic             Coordinates (Angstroms)
 Number     Number       Type             X           Y           Z
 ---------------------------------------------------------------------
      1          6           0       -4.643194    0.998128    0.245014
      2          6           0       -4.790029   -0.392089    0.292529
      3          6           0       -3.681615   -1.228995    0.132672
      4          6           0       -2.435526   -0.639182   -0.073897
      5          6           0       -2.256968    0.742363   -0.126255
      6          6           0       -3.379360    1.559927    0.036142
      7          1           0       -5.509666    1.640744    0.370181
      8          1           0       -5.770328   -0.831171    0.454600
      9          1           0       -3.766822   -2.308398    0.165029
     10          1           0       -1.266991    1.150747   -0.289312
     11          1           0       -3.262343    2.639258   -0.001223
     12          7           0       -1.254698   -1.514938   -0.244475
     13          8           0       -0.167670   -0.970563   -0.425200
     14          8           0       -1.438553   -2.729150   -0.194218
     15          6           0        3.711370    0.073132    0.446737
     16          6           0        4.776372   -0.662219   -0.367518
     17          6           0        5.457207   -1.780254    0.422579
     18          1           0        4.174086    0.490816    1.351380
     19          1           0        2.956270   -0.649061    0.786822
     20          1           0        5.528500    0.061371   -0.707132
     21          1           0        4.311106   -1.078038   -1.270423
     22          1           0        4.722818   -2.523844    0.748688
     23          1           0        5.947129   -1.377962    1.315180
     24          1           0        6.214877   -2.292644   -0.178466
     25          6           0        3.021789    1.193675   -0.329530
     26          6           0        1.956787    1.929026    0.484725
     27          6           0        1.275952    3.047061   -0.305372
     28          1           0        3.776889    1.915868   -0.669615
     29          1           0        2.559073    0.775991   -1.234173
     30          1           0        2.422053    2.344845    1.387630
     31          1           0        1.204658    1.205436    0.824338
     32          1           0        0.786029    2.644769   -1.197973
     33          1           0        2.010342    3.790652   -0.631482
     34          1           0        0.518282    3.559451    0.295671
 ---------------------------------------------------------------------

 SCF Done:  E(RHF) =  -669.536357887     A.U. after   15 cycles
 E2 =    -0.2092554296D+01 EUMP2 =    -0.67162891218262D+03

 The electronic state is 1-A.
 Alpha  occ. eigenvalues --  -20.61011 -20.60994 -15.86030 -11.31281 -11.27847
 Alpha  occ. eigenvalues --  -11.27805 -11.27574 -11.26843 -11.26821 -11.21095
 Alpha  occ. eigenvalues --  -11.21004 -11.20692 -11.20532 -11.20350 -11.20243
 Alpha  occ. eigenvalues --   -1.60063  -1.39622  -1.19448  -1.08868  -1.07615
 Alpha  occ. eigenvalues --   -1.04833  -1.02898  -0.95720  -0.95372  -0.86400
 Alpha  occ. eigenvalues --   -0.86235  -0.82556  -0.78953  -0.77632  -0.77378
 Alpha  occ. eigenvalues --   -0.72271  -0.71371  -0.70563  -0.65119  -0.64865
 Alpha  occ. eigenvalues --   -0.64172  -0.62208  -0.60246  -0.58789  -0.56971
 Alpha  occ. eigenvalues --   -0.55357  -0.54646  -0.53172  -0.52897  -0.52133
 Alpha  occ. eigenvalues --   -0.51809  -0.49381  -0.49001  -0.48951  -0.47271
 Alpha  occ. eigenvalues --   -0.45961  -0.45157  -0.44943  -0.44632  -0.43088
 Alpha  occ. eigenvalues --   -0.37430  -0.36431
 Alpha virt. eigenvalues --    0.04868   0.11194   0.16372   0.20231   0.23334
 Alpha virt. eigenvalues --    0.24453   0.27101   0.27322   0.28314   0.28403
 Alpha virt. eigenvalues --    0.29733   0.30428   0.31662   0.32067   0.32530

 Mulliken charges:
               1
     1  C   -0.170075
     2  C   -0.219092
     3  C   -0.169842
     4  C    0.155963
     5  C   -0.177957
     6  C   -0.222038
     7  H    0.226026
     8  H    0.223739
     9  H    0.275612
    10  H    0.290340
    11  H    0.224763
    12  N    0.490375
    13  O   -0.465315
    14  O   -0.458485
    15  C   -0.301857
    16  C   -0.299571
    17  C   -0.476016
    18  H    0.143361
    19  H    0.165116
    20  H    0.147076
    21  H    0.156230
    22  H    0.159155
    23  H    0.151805
    24  H    0.157504
    25  C   -0.296039
    26  C   -0.306254
    27  C   -0.482519
    28  H    0.143265
    29  H    0.159209
    30  H    0.148488
    31  H    0.165381
    32  H    0.152594
    33  H    0.158693
    34  H    0.150365
 Sum of Mulliken charges =  -0.00000

 Dipole moment (field-independent basis, Debye):
    X=             -4.3138    Y=              2.8569    Z=              0.5682  Tot=              5.2052
 Quadrupole moment (field-independent basis, Debye-Ang):
   XX=            -73.6537   YY=            -96.4757   ZZ=            -95.8535
   XY=             -1.6299   XZ=             -1.7500   YZ=             -0.5699

 Normal termination of Gaussian 16 at Thu May  6 19:08:54 2021.
