 Gaussian 16, Revision A.03,
 Gaussian 16:  EM64L-G16RevA.03 25-Dec-2016

 -------------
 #p 6-31g* mp2
 -------------

 ------------------------------------------------------
 Input file generated by CHIRIPA (05-May-2021 14:55:19)
 ------------------------------------------------------
 Symbolic Z-matrix:
 Charge =  0 Multiplicity = 1

                         Standard orientation:
 ---------------------------------------------------------------------
 Center     Atomic      Atomic             Coordinates (Angstroms)
 Number     Number       Type             X           Y           Z
 ---------------------------------------------------------------------
      1          6           0        3.626687    1.389069    0.921162
      2          6           0        2.367197    1.143821    1.477991
      3          6           0        1.600975    0.055871    1.049251
      4          6           0        2.127402   -0.770166    0.057371
      5          6           0        3.378817   -0.552092   -0.516818
      6          6           0        4.127595    0.541823   -0.072713
      7          1           0        4.215131    2.236532    1.260186
      8          1           0        1.975655    1.800130    2.250000
      9          1           0        0.622879   -0.157173    1.463205
     10          1           0        3.742461   -1.223967   -1.284780
     11          1           0        5.105413    0.729856   -0.506948
     12          7           0        1.325471   -1.925088   -0.404650
     13          8           0        1.811765   -2.637939   -1.279863
     14          8           0        0.225808   -2.095595    0.117179
     15          6           0       -3.192748    0.297705    0.372773
     16          6           0       -4.326424   -0.595504   -0.132144
     17          6           0       -4.917383   -1.478804    0.967104
     18          1           0       -2.402383   -0.332126    0.803566
     19          1           0       -3.568956    0.929368    1.189391
     20          1           0       -3.948548   -1.224313   -0.948493
     21          1           0       -5.114096    0.036516   -0.561956
     22          1           0       -5.320694   -0.865216    1.779170
     23          1           0       -4.148524   -2.133208    1.390438
     24          1           0       -5.726128   -2.109070    0.584282
     25          6           0       -2.591751    1.186637   -0.714577
     26          6           0       -1.458075    2.079846   -0.209661
     27          6           0       -0.867116    2.963145   -1.308907
     28          1           0       -2.215543    0.554973   -1.531195
     29          1           0       -3.382115    1.816467   -1.145369
     30          1           0       -0.670403    1.447826    0.220152
     31          1           0       -1.835950    2.708655    0.606688
     32          1           0       -1.635974    3.617551   -1.732241
     33          1           0       -0.463805    2.349558   -2.120974
     34          1           0       -0.058369    3.593412   -0.926085
 ---------------------------------------------------------------------

 SCF Done:  E(RHF) =  -669.535259045     A.U. after   15 cycles
 E2 =    -0.2093384990D+01 EUMP2 =    -0.67162864403471D+03

 The electronic state is 1-A.
 Alpha  occ. eigenvalues --  -20.60933 -20.60928 -15.85975 -11.31292 -11.27857
 Alpha  occ. eigenvalues --  -11.27848 -11.27589 -11.26860 -11.26850 -11.21549
 Alpha  occ. eigenvalues --  -11.21097 -11.21053 -11.21020 -11.20877 -11.20485
 Alpha  occ. eigenvalues --   -1.59998  -1.39554  -1.19470  -1.08865  -1.08077
 Alpha  occ. eigenvalues --   -1.04871  -1.03212  -0.95712  -0.95651  -0.86682
 Alpha  occ. eigenvalues --   -0.86264  -0.82544  -0.79328  -0.77922  -0.77554
 Alpha  occ. eigenvalues --   -0.72195  -0.71318  -0.70586  -0.65121  -0.64940
 Alpha  occ. eigenvalues --   -0.64628  -0.62227  -0.60596  -0.59063  -0.57274
 Alpha  occ. eigenvalues --   -0.55365  -0.54925  -0.53197  -0.52964  -0.52380
 Alpha  occ. eigenvalues --   -0.52085  -0.49593  -0.48951  -0.48944  -0.47627
 Alpha  occ. eigenvalues --   -0.46343  -0.45449  -0.45303  -0.44906  -0.43448
 Alpha  occ. eigenvalues --   -0.37437  -0.36394
 Alpha virt. eigenvalues --    0.04888   0.11116   0.16371   0.20740   0.23212
 Alpha virt. eigenvalues --    0.24626   0.25257   0.27270   0.27622   0.28269
 Alpha virt. eigenvalues --    0.29451   0.31178   0.31705   0.31978   0.32360

 Mulliken charges:
               1
     1  C   -0.170344
     2  C   -0.218187
     3  C   -0.171318
     4  C    0.157549
     5  C   -0.170913
     6  C   -0.218228
     7  H    0.226169
     8  H    0.225035
     9  H    0.278328
    10  H    0.275822
    11  H    0.223903
    12  N    0.489171
    13  O   -0.459193
    14  O   -0.463096
    15  C   -0.304126
    16  C   -0.299272
    17  C   -0.476937
    18  H    0.160978
    19  H    0.143746
    20  H    0.158722
    21  H    0.148432
    22  H    0.151044
    23  H    0.160979
    24  H    0.159314
    25  C   -0.297179
    26  C   -0.305232
    27  C   -0.473868
    28  H    0.155320
    29  H    0.147941
    30  H    0.149675
    31  H    0.147837
    32  H    0.155824
    33  H    0.157047
    34  H    0.155055
 Sum of Mulliken charges =  -0.00000

 Dipole moment (field-independent basis, Debye):
    X=              2.9493    Y=              3.9051    Z=              1.5735  Tot=              5.1405
 Quadrupole moment (field-independent basis, Debye-Ang):
   XX=            -80.3502   YY=           -101.6248   ZZ=            -93.3948
   XY=              5.1480   XZ=              1.4377   YZ=              0.6177

 Normal termination of Gaussian 16 at Wed May  5 20:30:34 2021.
