 Gaussian 16, Revision A.03,
 Gaussian 16:  EM64L-G16RevA.03 25-Dec-2016

 -------------
 #p 6-31g* mp2
 -------------

 ------------------------------------------------------
 Input file generated by CHIRIPA (05-May-2021 14:53:11)
 ------------------------------------------------------
 Symbolic Z-matrix:
 Charge =  0 Multiplicity = 1

                         Standard orientation:
 ---------------------------------------------------------------------
 Center     Atomic      Atomic             Coordinates (Angstroms)
 Number     Number       Type             X           Y           Z
 ---------------------------------------------------------------------
      1          6           0        4.189500   -0.486863   -0.042296
      2          6           0        4.598832    0.925144   -0.462615
      3          6           0        6.104143    1.164696   -0.342413
      4          1           0        4.508267   -0.660823    0.994560
      5          1           0        4.728533   -1.217048   -0.661707
      6          1           0        4.058146    1.652472    0.156472
      7          1           0        4.278884    1.095830   -1.498528
      8          1           0        6.657686    0.461714   -0.973291
      9          1           0        6.435694    1.021518    0.691112
     10          1           0        6.374703    2.180244   -0.647896
     11          6           0        2.687606   -0.741624   -0.156927
     12          6           0        2.278274   -2.153631    0.263391
     13          6           0        0.772963   -2.393183    0.143189
     14          1           0        2.148574   -0.011439    0.462483
     15          1           0        2.368839   -0.567665   -1.193783
     16          1           0        2.598222   -2.324317    1.299304
     17          1           0        2.818960   -2.880959   -0.355696
     18          1           0        0.441412   -2.250005   -0.890336
     19          1           0        0.219421   -1.690201    0.774067
     20          1           0        0.502403   -3.408731    0.448672
     21          6           0       -3.946394   -1.639772   -0.456356
     22          6           0       -4.175947   -0.481227   -1.205755
     23          6           0       -3.483526    0.698892   -0.918669
     24          6           0       -2.564556    0.684798    0.129464
     25          6           0       -2.313781   -0.453357    0.894320
     26          6           0       -3.017681   -1.622171    0.589446
     27          1           0       -4.488742   -2.552126   -0.686280
     28          1           0       -4.896613   -0.491971   -2.018510
     29          1           0       -3.641770    1.610034   -1.482760
     30          1           0       -1.589217   -0.411820    1.698498
     31          1           0       -2.837365   -2.520420    1.173124
     32          7           0       -1.825444    1.928153    0.442805
     33          8           0       -1.021038    1.889710    1.371292
     34          8           0       -2.064530    2.917595   -0.246020
 ---------------------------------------------------------------------

 SCF Done:  E(RHF) =  -669.534743675     A.U. after   15 cycles
 E2 =    -0.2092387761D+01 EUMP2 =    -0.67162713143611D+03

 The electronic state is 1-A.
 Alpha  occ. eigenvalues --  -20.60800 -20.60794 -15.85847 -11.31175 -11.27750
 Alpha  occ. eigenvalues --  -11.27745 -11.27483 -11.26754 -11.26737 -11.21578
 Alpha  occ. eigenvalues --  -11.21282 -11.21191 -11.21115 -11.21056 -11.20722
 Alpha  occ. eigenvalues --   -1.59869  -1.39425  -1.19355  -1.08751  -1.08198
 Alpha  occ. eigenvalues --   -1.04763  -1.03364  -0.95846  -0.95588  -0.86871
 Alpha  occ. eigenvalues --   -0.86155  -0.82430  -0.79438  -0.77978  -0.77474
 Alpha  occ. eigenvalues --   -0.72068  -0.71188  -0.70484  -0.65013  -0.64860
 Alpha  occ. eigenvalues --   -0.64734  -0.62154  -0.60746  -0.59220  -0.57439
 Alpha  occ. eigenvalues --   -0.55312  -0.55092  -0.53199  -0.52869  -0.52534
 Alpha  occ. eigenvalues --   -0.52150  -0.49775  -0.48824  -0.48820  -0.47740
 Alpha  occ. eigenvalues --   -0.46445  -0.45538  -0.45425  -0.44816  -0.43601
 Alpha  occ. eigenvalues --   -0.37330  -0.36278
 Alpha virt. eigenvalues --    0.05033   0.11239   0.16500   0.20932   0.23112
 Alpha virt. eigenvalues --    0.24341   0.26253   0.27117   0.27537   0.28236
 Alpha virt. eigenvalues --    0.29133   0.30170   0.31529   0.31824   0.32278

 Mulliken charges:
               1
     1  C   -0.298131
     2  C   -0.300724
     3  C   -0.475730
     4  H    0.149336
     5  H    0.147298
     6  H    0.158168
     7  H    0.151684
     8  H    0.153282
     9  H    0.154792
    10  H    0.160865
    11  C   -0.301898
    12  C   -0.299220
    13  C   -0.476693
    14  H    0.159810
    15  H    0.148811
    16  H    0.151552
    17  H    0.151071
    18  H    0.157075
    19  H    0.151963
    20  H    0.154064
    21  C   -0.171331
    22  C   -0.218575
    23  C   -0.171435
    24  C    0.157941
    25  C   -0.169162
    26  C   -0.214815
    27  H    0.225604
    28  H    0.223278
    29  H    0.275433
    30  H    0.274737
    31  H    0.224308
    32  N    0.488530
    33  O   -0.461902
    34  O   -0.459984
 Sum of Mulliken charges =  -0.00000

 Dipole moment (field-independent basis, Debye):
    X=             -2.6367    Y=             -4.2868    Z=             -1.1112  Tot=              5.1540
 Quadrupole moment (field-independent basis, Debye-Ang):
   XX=            -82.0411   YY=           -100.4626   ZZ=            -91.8025
   XY=              8.2718   XZ=              4.5772   YZ=             -3.0034

 Normal termination of Gaussian 16 at Wed May  5 23:19:03 2021.
