 Gaussian 16, Revision A.03,
 Gaussian 16:  EM64L-G16RevA.03 25-Dec-2016

 -------------
 #p 6-31g* mp2
 -------------

 ------------------------------------------------------
 Input file generated by CHIRIPA (05-May-2021 14:55:21)
 ------------------------------------------------------
 Symbolic Z-matrix:
 Charge =  0 Multiplicity = 1

                         Standard orientation:
 ---------------------------------------------------------------------
 Center     Atomic      Atomic             Coordinates (Angstroms)
 Number     Number       Type             X           Y           Z
 ---------------------------------------------------------------------
      1          6           0        1.000982    2.148531    0.268314
      2          6           0        2.056285    2.322011   -0.633219
      3          6           0        3.087244    1.380784   -0.709136
      4          6           0        3.030889    0.272893    0.135075
      5          6           0        1.992959    0.071979    1.043715
      6          6           0        0.972737    1.026048    1.102433
      7          1           0        0.204279    2.884686    0.320608
      8          1           0        2.080830    3.192778   -1.282224
      9          1           0        3.916132    1.490316   -1.397878
     10          1           0        1.995989   -0.806246    1.677852
     11          1           0        0.154423    0.888725    1.803539
     12          7           0        4.116636   -0.730339    0.063809
     13          8           0        4.043772   -1.697780    0.818386
     14          8           0        5.019949   -0.530236   -0.745277
     15          6           0       -3.203318   -1.179644   -0.161808
     16          6           0       -1.763291   -0.905821   -0.596927
     17          6           0       -0.880982   -2.153218   -0.539278
     18          1           0       -3.200551   -1.581615    0.860619
     19          1           0       -3.630579   -1.962108   -0.804140
     20          1           0       -1.339329   -0.123126    0.045149
     21          1           0       -1.769501   -0.504274   -1.618365
     22          1           0       -1.277632   -2.936216   -1.193637
     23          1           0       -0.845016   -2.552902    0.479329
     24          1           0        0.144124   -1.934796   -0.854408
     25          6           0       -4.097660    0.057754   -0.214053
     26          6           0       -5.537687   -0.216068    0.221066
     27          6           0       -6.419996    1.031329    0.163418
     28          1           0       -3.670399    0.840219    0.428279
     29          1           0       -4.100428    0.459726   -1.236479
     30          1           0       -5.531478   -0.617616    1.242505
     31          1           0       -5.961650   -0.998764   -0.421009
     32          1           0       -6.455963    1.431013   -0.855189
     33          1           0       -6.023347    1.814326    0.817776
     34          1           0       -7.445103    0.812906    0.478548
 ---------------------------------------------------------------------

 SCF Done:  E(RHF) =  -669.534588834     A.U. after   15 cycles
 E2 =    -0.2093245699D+01 EUMP2 =    -0.67162783453313D+03

 The electronic state is 1-A.
 Alpha  occ. eigenvalues --  -20.60796 -20.60790 -15.85851 -11.31241 -11.27804
 Alpha  occ. eigenvalues --  -11.27798 -11.27546 -11.26827 -11.26814 -11.22049
 Alpha  occ. eigenvalues --  -11.21938 -11.21917 -11.21788 -11.21509 -11.21306
 Alpha  occ. eigenvalues --   -1.59872  -1.39424  -1.19419  -1.08892  -1.08797
 Alpha  occ. eigenvalues --   -1.04834  -1.03920  -0.96372  -0.95635  -0.87386
 Alpha  occ. eigenvalues --   -0.86226  -0.82469  -0.79995  -0.78708  -0.77511
 Alpha  occ. eigenvalues --   -0.72068  -0.71197  -0.70511  -0.65565  -0.65068
 Alpha  occ. eigenvalues --   -0.64818  -0.62209  -0.61312  -0.59748  -0.58001
 Alpha  occ. eigenvalues --   -0.55691  -0.55310  -0.53266  -0.52935  -0.52912
 Alpha  occ. eigenvalues --   -0.52741  -0.50322  -0.48833  -0.48821  -0.48306
 Alpha  occ. eigenvalues --   -0.47045  -0.46239  -0.46185  -0.44824  -0.44189
 Alpha  occ. eigenvalues --   -0.37347  -0.36356
 Alpha virt. eigenvalues --    0.05016   0.11119   0.16473   0.20411   0.22741
 Alpha virt. eigenvalues --    0.23954   0.25781   0.26641   0.27225   0.28108
 Alpha virt. eigenvalues --    0.28764   0.30605   0.31233   0.31423   0.31882

 Mulliken charges:
               1
     1  C   -0.169455
     2  C   -0.218403
     3  C   -0.170874
     4  C    0.157266
     5  C   -0.170082
     6  C   -0.216340
     7  H    0.226247
     8  H    0.223756
     9  H    0.275818
    10  H    0.276428
    11  H    0.223629
    12  N    0.488042
    13  O   -0.460010
    14  O   -0.460310
    15  C   -0.298175
    16  C   -0.302154
    17  C   -0.477119
    18  H    0.148062
    19  H    0.152044
    20  H    0.147301
    21  H    0.152386
    22  H    0.157866
    23  H    0.151753
    24  H    0.164892
    25  C   -0.296743
    26  C   -0.299769
    27  C   -0.475742
    28  H    0.142274
    29  H    0.150323
    30  H    0.152175
    31  H    0.154057
    32  H    0.155549
    33  H    0.153348
    34  H    0.161962
 Sum of Mulliken charges =  -0.00000

 Dipole moment (field-independent basis, Debye):
    X=             -3.7989    Y=              3.5178    Z=              0.2043  Tot=              5.1815
 Quadrupole moment (field-independent basis, Debye-Ang):
   XX=           -117.9734   YY=            -92.3945   ZZ=            -91.5546
   XY=             11.8993   XZ=             -1.2337   YZ=             -1.4266

 Normal termination of Gaussian 16 at Wed May  5 20:35:52 2021.
