 Gaussian 16, Revision A.03,
 Gaussian 16:  EM64L-G16RevA.03 25-Dec-2016

 -------------
 #p 6-31g* mp2
 -------------

 ------------------------------------------------------
 Input file generated by CHIRIPA (05-May-2021 14:57:22)
 ------------------------------------------------------
 Symbolic Z-matrix:
 Charge =  0 Multiplicity = 1

                         Standard orientation:
 ---------------------------------------------------------------------
 Center     Atomic      Atomic             Coordinates (Angstroms)
 Number     Number       Type             X           Y           Z
 ---------------------------------------------------------------------
      1          6           0        1.940430    2.279190   -0.446197
      2          6           0        2.470883    1.581328   -1.536211
      3          6           0        3.018533    0.306499   -1.364630
      4          6           0        3.019317   -0.242850   -0.083418
      5          6           0        2.498400    0.427350    1.022370
      6          6           0        1.955854    1.700993    0.827369
      7          1           0        1.516985    3.269047   -0.588582
      8          1           0        2.460254    2.027891   -2.526419
      9          1           0        3.435885   -0.255908   -2.191028
     10          1           0        2.523207   -0.043851    1.997446
     11          1           0        1.544599    2.240640    1.675717
     12          7           0        3.596388   -1.591826    0.110624
     13          8           0        3.585081   -2.053815    1.249516
     14          8           0        4.049075   -2.161622   -0.879853
     15          6           0       -1.535360    1.969232    0.915118
     16          6           0       -1.707122    0.848928    1.734836
     17          6           0       -2.474547   -0.236567    1.302045
     18          6           0       -3.058478   -0.167872    0.038084
     19          6           0       -2.905896    0.934233   -0.801781
     20          6           0       -2.134239    2.008240   -0.348348
     21          1           0       -0.937562    2.808009    1.259338
     22          1           0       -1.243204    0.815875    2.716534
     23          1           0       -2.623886   -1.116294    1.916208
     24          1           0       -3.380776    0.938110   -1.775379
     25          1           0       -2.002562    2.876980   -0.987093
     26          7           0       -3.873156   -1.310956   -0.431019
     27          8           0       -4.377113   -1.225892   -1.548798
     28          8           0       -3.992319   -2.270326    0.327960
 ---------------------------------------------------------------------

 SCF Done:  E(RHF) =  -868.334734537     A.U. after   16 cycles
 E2 =    -0.2602662852D+01 EUMP2 =    -0.87093739738914D+03

 The electronic state is 1-A.
 Alpha  occ. eigenvalues --  -20.61156 -20.61146 -20.61031 -20.61019 -15.86214
 Alpha  occ. eigenvalues --  -15.86090 -11.31738 -11.31596 -11.28363 -11.28288
 Alpha  occ. eigenvalues --  -11.28231 -11.28196 -11.28193 -11.28126 -11.27514
 Alpha  occ. eigenvalues --  -11.27372 -11.27316 -11.27287  -1.60224  -1.60100
 Alpha  occ. eigenvalues --   -1.39774  -1.39650  -1.19948  -1.19813  -1.09367
 Alpha  occ. eigenvalues --   -1.09185  -1.05386  -1.05246  -0.96155  -0.96002
 Alpha  occ. eigenvalues --   -0.86810  -0.86660  -0.82968  -0.82846  -0.77981
 Alpha  occ. eigenvalues --   -0.77831  -0.72437  -0.72309  -0.71547  -0.71424
 Alpha  occ. eigenvalues --   -0.71224  -0.70941  -0.65617  -0.65556  -0.65451
 Alpha  occ. eigenvalues --   -0.65221  -0.62754  -0.62583  -0.55968  -0.55863
 Alpha  occ. eigenvalues --   -0.54004  -0.53508  -0.53373  -0.53225  -0.49205
 Alpha  occ. eigenvalues --   -0.49175  -0.49080  -0.49049  -0.45145  -0.45024
 Alpha  occ. eigenvalues --   -0.38518  -0.37551  -0.36905  -0.36537
 Alpha virt. eigenvalues --    0.04476   0.04743   0.10507   0.10888   0.16058
 Alpha virt. eigenvalues --    0.16213   0.18209   0.22354   0.24950   0.25660
 Alpha virt. eigenvalues --    0.28106   0.29480   0.29827   0.30605   0.32609

 Mulliken charges:
               1
     1  C   -0.168963
     2  C   -0.217655
     3  C   -0.169311
     4  C    0.159933
     5  C   -0.170108
     6  C   -0.213448
     7  H    0.218578
     8  H    0.224668
     9  H    0.278372
    10  H    0.274654
    11  H    0.212904
    12  N    0.488105
    13  O   -0.459810
    14  O   -0.457554
    15  C   -0.163751
    16  C   -0.217760
    17  C   -0.168733
    18  C    0.158939
    19  C   -0.169510
    20  C   -0.218576
    21  H    0.213921
    22  H    0.220243
    23  H    0.278846
    24  H    0.276588
    25  H    0.218965
    26  N    0.488095
    27  O   -0.459880
    28  O   -0.457754
 Sum of Mulliken charges =  -0.00000

 Dipole moment (field-independent basis, Debye):
    X=              0.8493    Y=              8.4856    Z=              0.8376  Tot=              8.5690
 Quadrupole moment (field-independent basis, Debye-Ang):
   XX=           -135.2336   YY=           -109.0800   ZZ=            -96.2988
   XY=              1.5150   XZ=             -7.4411   YZ=             -2.7292

 Normal termination of Gaussian 16 at Thu May  6 17:54:36 2021.
