 Gaussian 16, Revision A.03,
 Gaussian 16:  EM64L-G16RevA.03 25-Dec-2016

 -------------
 #p 6-31g* mp2
 -------------

 ------------------------------------------------------
 Input file generated by CHIRIPA (05-May-2021 14:55:22)
 ------------------------------------------------------
 Symbolic Z-matrix:
 Charge =  0 Multiplicity = 1

                         Standard orientation:
 ---------------------------------------------------------------------
 Center     Atomic      Atomic             Coordinates (Angstroms)
 Number     Number       Type             X           Y           Z
 ---------------------------------------------------------------------
      1          6           0        3.099997   -0.338744   -1.819297
      2          6           0        2.443419   -1.526434   -1.480445
      3          6           0        1.710036   -1.618631   -0.293771
      4          6           0        1.654148   -0.498726    0.534469
      5          6           0        2.297409    0.698538    0.224530
      6          6           0        3.025029    0.768000   -0.967230
      7          1           0        3.667468   -0.275954   -2.743110
      8          1           0        2.499901   -2.387539   -2.140258
      9          1           0        1.192114   -2.525799   -0.007030
     10          1           0        2.222779    1.540141    0.902433
     11          1           0        3.533928    1.691664   -1.227828
     12          7           0        0.880799   -0.584297    1.793440
     13          8           0        0.847034    0.416515    2.506092
     14          8           0        0.323057   -1.650559    2.043732
     15          6           0       -2.837945    0.143138   -0.206544
     16          6           0       -2.805843   -1.194081   -0.947355
     17          6           0       -3.927311   -2.137945   -0.512353
     18          1           0       -2.765126   -0.041684    0.873957
     19          1           0       -3.810673    0.625179   -0.376342
     20          1           0       -1.832949   -1.672817   -0.777341
     21          1           0       -2.878554   -1.006042   -2.026229
     22          1           0       -4.906286   -1.684222   -0.697676
     23          1           0       -3.854739   -2.354784    0.558308
     24          1           0       -3.885511   -3.087798   -1.054471
     25          6           0       -1.722965    1.097498   -0.630511
     26          6           0       -1.755066    2.434716    0.110298
     27          6           0       -0.633600    3.378581   -0.324703
     28          1           0       -0.750237    0.615457   -0.460714
     29          1           0       -1.795784    1.282320   -1.711013
     30          1           0       -1.682355    2.246678    1.189173
     31          1           0       -2.727961    2.913452   -0.059716
     32          1           0       -0.706170    3.595420   -1.395364
     33          1           0        0.345376    2.924858   -0.139379
     34          1           0       -0.675399    4.328435    0.217414
 ---------------------------------------------------------------------

 SCF Done:  E(RHF) =  -669.534896526     A.U. after   15 cycles
 E2 =    -0.2095803139D+01 EUMP2 =    -0.67163069966457D+03

 The electronic state is 1-A.
 Alpha  occ. eigenvalues --  -20.60990 -20.60984 -15.86008 -11.31298 -11.27881
 Alpha  occ. eigenvalues --  -11.27862 -11.27605 -11.26893 -11.26883 -11.21228
 Alpha  occ. eigenvalues --  -11.21159 -11.21002 -11.20927 -11.20857 -11.20638
 Alpha  occ. eigenvalues --   -1.60046  -1.39600  -1.19504  -1.08904  -1.08026
 Alpha  occ. eigenvalues --   -1.04891  -1.03162  -0.95752  -0.95630  -0.86661
 Alpha  occ. eigenvalues --   -0.86289  -0.82572  -0.79235  -0.77861  -0.77625
 Alpha  occ. eigenvalues --   -0.72232  -0.71408  -0.70602  -0.65146  -0.64900
 Alpha  occ. eigenvalues --   -0.64619  -0.62266  -0.60542  -0.59005  -0.57251
 Alpha  occ. eigenvalues --   -0.55392  -0.54939  -0.53284  -0.52976  -0.52338
 Alpha  occ. eigenvalues --   -0.52068  -0.49589  -0.48995  -0.48986  -0.47564
 Alpha  occ. eigenvalues --   -0.46245  -0.45383  -0.45285  -0.44975  -0.43410
 Alpha  occ. eigenvalues --   -0.37382  -0.36445
 Alpha virt. eigenvalues --    0.04827   0.11020   0.16331   0.20909   0.23059
 Alpha virt. eigenvalues --    0.24362   0.26388   0.26706   0.27724   0.28068
 Alpha virt. eigenvalues --    0.29042   0.30781   0.31074   0.31938   0.32343

 Mulliken charges:
               1
     1  C   -0.170617
     2  C   -0.216747
     3  C   -0.172175
     4  C    0.154069
     5  C   -0.171454
     6  C   -0.216392
     7  H    0.226399
     8  H    0.224331
     9  H    0.276134
    10  H    0.276575
    11  H    0.224845
    12  N    0.493033
    13  O   -0.460176
    14  O   -0.460294
    15  C   -0.301522
    16  C   -0.298223
    17  C   -0.476415
    18  H    0.161602
    19  H    0.147747
    20  H    0.149395
    21  H    0.147319
    22  H    0.153632
    23  H    0.162287
    24  H    0.156555
    25  C   -0.302476
    26  C   -0.302596
    27  C   -0.475708
    28  H    0.148766
    29  H    0.145798
    30  H    0.165905
    31  H    0.150395
    32  H    0.151630
    33  H    0.147807
    34  H    0.160572
 Sum of Mulliken charges =  -0.00000

 Dipole moment (field-independent basis, Debye):
    X=              2.8033    Y=              0.2266    Z=             -4.2729  Tot=              5.1154
 Quadrupole moment (field-independent basis, Debye-Ang):
   XX=            -86.1384   YY=            -91.4348   ZZ=            -99.4611
   XY=             -0.4486   XZ=             -5.7412   YZ=              3.5695

 Normal termination of Gaussian 16 at Thu May  6 09:22:56 2021.
