 Gaussian 16, Revision A.03,
 Gaussian 16:  EM64L-G16RevA.03 25-Dec-2016

 -------------
 #p 6-31g* mp2
 -------------

 ------------------------------------------------------
 Input file generated by CHIRIPA (05-May-2021 14:53:12)
 ------------------------------------------------------
 Symbolic Z-matrix:
 Charge =  0 Multiplicity = 1

                         Standard orientation:
 ---------------------------------------------------------------------
 Center     Atomic      Atomic             Coordinates (Angstroms)
 Number     Number       Type             X           Y           Z
 ---------------------------------------------------------------------
      1          6           0        4.789795    0.075027   -0.364885
      2          6           0        6.253168    0.210042    0.057367
      3          6           0        7.175205    0.562779   -1.110202
      4          1           0        4.709086   -0.695786   -1.143523
      5          1           0        4.459061    1.017594   -0.822683
      6          1           0        6.580637   -0.732034    0.515486
      7          1           0        6.330375    0.980489    0.835227
      8          1           0        6.876106    1.513282   -1.563728
      9          1           0        7.127789   -0.208972   -1.885285
     10          1           0        8.216508    0.654408   -0.785933
     11          6           0        3.855669   -0.277366    0.791383
     12          6           0        2.392297   -0.412381    0.369131
     13          6           0        1.470260   -0.765118    1.536700
     14          1           0        4.186403   -1.219933    1.249181
     15          1           0        3.936378    0.493447    1.570021
     16          1           0        2.315089   -1.182828   -0.408729
     17          1           0        2.064827    0.529695   -0.088988
     18          1           0        1.517675    0.006633    2.311783
     19          1           0        1.769359   -1.715620    1.990226
     20          1           0        0.428956   -0.856746    1.212431
     21          6           0       -3.510129    2.585770    0.087430
     22          6           0       -2.265038    1.959014   -0.028518
     23          6           0       -2.179375    0.570753   -0.169724
     24          6           0       -3.364277   -0.163303   -0.191159
     25          6           0       -4.619707    0.431973   -0.077883
     26          6           0       -4.681425    1.821597    0.062422
     27          1           0       -3.567375    3.664735    0.196771
     28          1           0       -1.353737    2.549956   -0.009419
     29          1           0       -1.228627    0.059794   -0.261467
     30          1           0       -5.510681   -0.183722   -0.100313
     31          1           0       -5.649760    2.305645    0.152260
     32          7           0       -3.286264   -1.633714   -0.340170
     33          8           0       -4.344902   -2.257948   -0.356192
     34          8           0       -2.167957   -2.134147   -0.438120
 ---------------------------------------------------------------------

 SCF Done:  E(RHF) =  -669.535630887     A.U. after   15 cycles
 E2 =    -0.2091236925D+01 EUMP2 =    -0.67162686781202D+03

 The electronic state is 1-A.
 Alpha  occ. eigenvalues --  -20.60803 -20.60798 -15.85847 -11.31195 -11.27765
 Alpha  occ. eigenvalues --  -11.27744 -11.27508 -11.26783 -11.26771 -11.21763
 Alpha  occ. eigenvalues --  -11.21675 -11.21509 -11.21447 -11.21135 -11.21122
 Alpha  occ. eigenvalues --   -1.59871  -1.39426  -1.19369  -1.08768  -1.08534
 Alpha  occ. eigenvalues --   -1.04771  -1.03629  -0.96068  -0.95603  -0.87080
 Alpha  occ. eigenvalues --   -0.86170  -0.82436  -0.79690  -0.78348  -0.77490
 Alpha  occ. eigenvalues --   -0.72067  -0.71189  -0.70489  -0.65164  -0.65022
 Alpha  occ. eigenvalues --   -0.64788  -0.62169  -0.61018  -0.59418  -0.57682
 Alpha  occ. eigenvalues --   -0.55347  -0.55268  -0.53116  -0.52995  -0.52656
 Alpha  occ. eigenvalues --   -0.52411  -0.49996  -0.48825  -0.48823  -0.48003
 Alpha  occ. eigenvalues --   -0.46727  -0.45887  -0.45814  -0.44834  -0.43870
 Alpha  occ. eigenvalues --   -0.37351  -0.36366
 Alpha virt. eigenvalues --    0.05017   0.11231   0.16542   0.20324   0.22867
 Alpha virt. eigenvalues --    0.23825   0.26292   0.26618   0.27453   0.27817
 Alpha virt. eigenvalues --    0.29334   0.30107   0.31429   0.31562   0.31904

 Mulliken charges:
               1
     1  C   -0.298312
     2  C   -0.299765
     3  C   -0.475749
     4  H    0.151635
     5  H    0.147274
     6  H    0.153073
     7  H    0.151205
     8  H    0.154311
     9  H    0.156102
    10  H    0.160530
    11  C   -0.298102
    12  C   -0.300990
    13  C   -0.482340
    14  H    0.152293
    15  H    0.148203
    16  H    0.159197
    17  H    0.141759
    18  H    0.151496
    19  H    0.161818
    20  H    0.165341
    21  C   -0.170661
    22  C   -0.220192
    23  C   -0.175231
    24  C    0.157547
    25  C   -0.170563
    26  C   -0.218591
    27  H    0.225600
    28  H    0.223715
    29  H    0.284015
    30  H    0.275592
    31  H    0.223482
    32  N    0.488172
    33  O   -0.459814
    34  O   -0.462052
 Sum of Mulliken charges =  -0.00000

 Dipole moment (field-independent basis, Debye):
    X=             -0.2537    Y=              5.0835    Z=              0.5333  Tot=              5.1177
 Quadrupole moment (field-independent basis, Debye-Ang):
   XX=            -88.2204   YY=            -95.9821   ZZ=            -96.4007
   XY=            -17.9403   XZ=             -1.3836   YZ=             -0.7762

 Normal termination of Gaussian 16 at Wed May  5 15:30:02 2021.
