 Gaussian 16, Revision A.03,
 Gaussian 16:  EM64L-G16RevA.03 25-Dec-2016

 -------------
 #p 6-31g* mp2
 -------------

 ------------------------------------------------------
 Input file generated by CHIRIPA (05-May-2021 14:55:21)
 ------------------------------------------------------
 Symbolic Z-matrix:
 Charge =  0 Multiplicity = 1

                         Standard orientation:
 ---------------------------------------------------------------------
 Center     Atomic      Atomic             Coordinates (Angstroms)
 Number     Number       Type             X           Y           Z
 ---------------------------------------------------------------------
      1          6           0        2.817460    2.730987    0.299509
      2          6           0        3.295142    2.185740   -0.896755
      3          6           0        3.355105    0.799932   -1.071366
      4          6           0        2.927319   -0.014812   -0.024236
      5          6           0        2.446410    0.498192    1.179443
      6          6           0        2.395363    1.886961    1.331970
      7          1           0        2.774343    3.808666    0.426574
      8          1           0        3.623618    2.838800   -1.700285
      9          1           0        3.720513    0.351138   -1.987051
     10          1           0        2.126025   -0.178325    1.962447
     11          1           0        2.023928    2.307610    2.262096
     12          7           0        2.986079   -1.483471   -0.197400
     13          8           0        2.603242   -2.179721    0.740315
     14          8           0        3.413860   -1.910548   -1.267561
     15          6           0       -4.485697   -0.282182    0.132941
     16          6           0       -5.213070    0.881765   -0.540959
     17          6           0       -6.714998    0.885546   -0.254617
     18          1           0       -4.927657   -1.228693   -0.207255
     19          1           0       -4.652962   -0.231186    1.217753
     20          1           0       -5.043339    0.829382   -1.624039
     21          1           0       -4.769199    1.825609   -0.199265
     22          1           0       -6.901832    0.961496    0.821452
     23          1           0       -7.177529   -0.040392   -0.611416
     24          1           0       -7.215253    1.725900   -0.745954
     25          6           0       -2.983447   -0.299555   -0.143958
     26          6           0       -2.256073   -1.463503    0.529942
     27          6           0       -0.754145   -1.467284    0.243601
     28          1           0       -2.816181   -0.350552   -1.228769
     29          1           0       -2.541486    0.646955    0.196237
     30          1           0       -2.699944   -2.407347    0.188249
     31          1           0       -2.425804   -1.411119    1.613023
     32          1           0       -0.291615   -0.541345    0.600400
     33          1           0       -0.567312   -1.543233   -0.832469
     34          1           0       -0.253891   -2.307637    0.734938
 ---------------------------------------------------------------------

 SCF Done:  E(RHF) =  -669.535398235     A.U. after   15 cycles
 E2 =    -0.2092743083D+01 EUMP2 =    -0.67162814131814D+03

 The electronic state is 1-A.
 Alpha  occ. eigenvalues --  -20.60816 -20.60796 -15.85834 -11.31187 -11.27766
 Alpha  occ. eigenvalues --  -11.27755 -11.27516 -11.26788 -11.26775 -11.21561
 Alpha  occ. eigenvalues --  -11.21274 -11.21246 -11.21170 -11.21048 -11.20433
 Alpha  occ. eigenvalues --   -1.59861  -1.39420  -1.19373  -1.08766  -1.08254
 Alpha  occ. eigenvalues --   -1.04782  -1.03304  -0.95757  -0.95591  -0.86770
 Alpha  occ. eigenvalues --   -0.86169  -0.82444  -0.79394  -0.78078  -0.77480
 Alpha  occ. eigenvalues --   -0.72073  -0.71161  -0.70487  -0.65030  -0.64903
 Alpha  occ. eigenvalues --   -0.64776  -0.62134  -0.60715  -0.59097  -0.57350
 Alpha  occ. eigenvalues --   -0.55298  -0.55060  -0.53151  -0.52872  -0.52387
 Alpha  occ. eigenvalues --   -0.52121  -0.49707  -0.48826  -0.48818  -0.47688
 Alpha  occ. eigenvalues --   -0.46441  -0.45619  -0.45546  -0.44864  -0.43421
 Alpha  occ. eigenvalues --   -0.37328  -0.36353
 Alpha virt. eigenvalues --    0.05019   0.11223   0.16482   0.21336   0.23017
 Alpha virt. eigenvalues --    0.24520   0.26764   0.27155   0.27649   0.27840
 Alpha virt. eigenvalues --    0.28798   0.30927   0.31507   0.31931   0.32350

 Mulliken charges:
               1
     1  C   -0.170443
     2  C   -0.218508
     3  C   -0.170897
     4  C    0.161359
     5  C   -0.170756
     6  C   -0.220010
     7  H    0.225625
     8  H    0.223476
     9  H    0.275592
    10  H    0.276587
    11  H    0.223424
    12  N    0.489688
    13  O   -0.458836
    14  O   -0.460069
    15  C   -0.297919
    16  C   -0.299135
    17  C   -0.475522
    18  H    0.150597
    19  H    0.148386
    20  H    0.151944
    21  H    0.149754
    22  H    0.154683
    23  H    0.155849
    24  H    0.159405
    25  C   -0.297346
    26  C   -0.300580
    27  C   -0.485617
    28  H    0.149652
    29  H    0.145609
    30  H    0.153318
    31  H    0.148842
    32  H    0.146347
    33  H    0.154487
    34  H    0.181016
 Sum of Mulliken charges =  -0.00000

 Dipole moment (field-independent basis, Debye):
    X=             -0.0568    Y=              5.0630    Z=              0.6061  Tot=              5.0995
 Quadrupole moment (field-independent basis, Debye-Ang):
   XX=            -97.5211   YY=            -94.8516   ZZ=            -90.0029
   XY=             15.9024   XZ=              0.1065   YZ=             -0.3614

 Normal termination of Gaussian 16 at Thu May  6 10:53:47 2021.
