 Gaussian 16, Revision A.03,
 Gaussian 16:  EM64L-G16RevA.03 25-Dec-2016

 -------------
 #p 6-31g* mp2
 -------------

 ------------------------------------------------------
 Input file generated by CHIRIPA (05-May-2021 14:53:12)
 ------------------------------------------------------
 Symbolic Z-matrix:
 Charge =  0 Multiplicity = 1

                         Standard orientation:
 ---------------------------------------------------------------------
 Center     Atomic      Atomic             Coordinates (Angstroms)
 Number     Number       Type             X           Y           Z
 ---------------------------------------------------------------------
      1          6           0       -2.686045    0.908719   -0.339807
      2          6           0       -3.499873    1.991659    0.369354
      3          6           0       -2.908746    3.389922    0.187081
      4          1           0       -1.655567    0.925180    0.040707
      5          1           0       -2.627513    1.146289   -1.411035
      6          1           0       -3.558021    1.751385    1.438701
      7          1           0       -4.528582    1.972491   -0.012755
      8          1           0       -2.865904    3.654696   -0.874361
      9          1           0       -1.889829    3.432333    0.585341
     10          1           0       -3.506177    4.148631    0.702150
     11          6           0       -3.264432   -0.494589   -0.166821
     12          6           0       -2.450604   -1.577529   -0.875982
     13          6           0       -3.041731   -2.975792   -0.693709
     14          1           0       -3.322964   -0.732159    0.904407
     15          1           0       -4.294910   -0.511050   -0.547335
     16          1           0       -1.421895   -1.558361   -0.493873
     17          1           0       -2.392456   -1.337255   -1.945329
     18          1           0       -4.060648   -3.018204   -1.091969
     19          1           0       -3.084573   -3.240566    0.367733
     20          1           0       -2.444300   -3.734501   -1.208778
     21          6           0        1.099848   -1.277899    2.100699
     22          6           0        1.848959   -0.119889    2.333863
     23          6           0        2.531524    0.506949    1.287093
     24          6           0        2.442791   -0.053866    0.013946
     25          6           0        1.704669   -1.206570   -0.250138
     26          6           0        1.030217   -1.816594    0.811715
     27          1           0        0.572766   -1.758311    2.919714
     28          1           0        1.904825    0.300699    3.333878
     29          1           0        3.118727    1.404369    1.439561
     30          1           0        1.667844   -1.602345   -1.257821
     31          1           0        0.449210   -2.715824    0.627698
     32          7           0        3.161098    0.600839   -1.102206
     33          8           0        3.066996    0.086931   -2.214718
     34          8           0        3.804607    1.615508   -0.843402
 ---------------------------------------------------------------------

 SCF Done:  E(RHF) =  -669.534941583     A.U. after   15 cycles
 E2 =    -0.2093015852D+01 EUMP2 =    -0.67162795743566D+03

 The electronic state is 1-A.
 Alpha  occ. eigenvalues --  -20.60820 -20.60815 -15.85875 -11.31280 -11.27852
 Alpha  occ. eigenvalues --  -11.27849 -11.27603 -11.26878 -11.26860 -11.21989
 Alpha  occ. eigenvalues --  -11.21791 -11.21743 -11.21682 -11.21558 -11.21175
 Alpha  occ. eigenvalues --   -1.59894  -1.39446  -1.19467  -1.08857  -1.08730
 Alpha  occ. eigenvalues --   -1.04881  -1.03863  -0.96313  -0.95674  -0.87324
 Alpha  occ. eigenvalues --   -0.86266  -0.82515  -0.79935  -0.78535  -0.77541
 Alpha  occ. eigenvalues --   -0.72092  -0.71217  -0.70558  -0.65442  -0.65112
 Alpha  occ. eigenvalues --   -0.64839  -0.62254  -0.61237  -0.59695  -0.57916
 Alpha  occ. eigenvalues --   -0.55609  -0.55357  -0.53260  -0.52995  -0.52954
 Alpha  occ. eigenvalues --   -0.52726  -0.50249  -0.48856  -0.48844  -0.48241
 Alpha  occ. eigenvalues --   -0.46969  -0.46068  -0.45980  -0.44842  -0.44099
 Alpha  occ. eigenvalues --   -0.37436  -0.36393
 Alpha virt. eigenvalues --    0.04971   0.11122   0.16343   0.20544   0.22813
 Alpha virt. eigenvalues --    0.23851   0.26306   0.26730   0.27264   0.28297
 Alpha virt. eigenvalues --    0.28514   0.30922   0.31155   0.31417   0.31983

 Mulliken charges:
               1
     1  C   -0.300311
     2  C   -0.299632
     3  C   -0.475820
     4  H    0.152032
     5  H    0.152396
     6  H    0.149338
     7  H    0.152328
     8  H    0.157707
     9  H    0.155287
    10  H    0.160142
    11  C   -0.296343
    12  C   -0.309191
    13  C   -0.476856
    14  H    0.145470
    15  H    0.150964
    16  H    0.153351
    17  H    0.155576
    18  H    0.159629
    19  H    0.150707
    20  H    0.157609
    21  C   -0.172651
    22  C   -0.218908
    23  C   -0.171037
    24  C    0.158493
    25  C   -0.169116
    26  C   -0.219510
    27  H    0.226217
    28  H    0.223928
    29  H    0.276080
    30  H    0.276948
    31  H    0.227065
    32  N    0.488160
    33  O   -0.459860
    34  O   -0.460190
 Sum of Mulliken charges =  -0.00000

 Dipole moment (field-independent basis, Debye):
    X=             -2.4798    Y=             -2.2304    Z=              3.9010  Tot=              5.1324
 Quadrupole moment (field-independent basis, Debye-Ang):
   XX=           -107.0532   YY=            -93.6788   ZZ=            -92.2609
   XY=             -4.7261   XZ=             11.5508   YZ=              2.1452

 Normal termination of Gaussian 16 at Thu May  6 13:37:53 2021.
