 Gaussian 16, Revision A.03,
 Gaussian 16:  EM64L-G16RevA.03 25-Dec-2016

 -------------
 #p 6-31g* mp2
 -------------

 ------------------------------------------------------
 Input file generated by CHIRIPA (05-May-2021 14:55:22)
 ------------------------------------------------------
 Symbolic Z-matrix:
 Charge =  0 Multiplicity = 1

                         Standard orientation:
 ---------------------------------------------------------------------
 Center     Atomic      Atomic             Coordinates (Angstroms)
 Number     Number       Type             X           Y           Z
 ---------------------------------------------------------------------
      1          6           0       -1.939303   -2.360066   -1.057460
      2          6           0       -2.721942   -1.946625    0.025621
      3          6           0       -2.832019   -0.590045    0.345186
      4          6           0       -2.142834    0.330192   -0.443152
      5          6           0       -1.355230   -0.050462   -1.528542
      6          6           0       -1.259643   -1.412336   -1.829723
      7          1           0       -1.859420   -3.415946   -1.298565
      8          1           0       -3.250887   -2.680424    0.627119
      9          1           0       -3.430994   -0.242383    1.178120
     10          1           0       -0.839669    0.704425   -2.109714
     11          1           0       -0.651110   -1.730528   -2.671439
     12          7           0       -2.251698    1.769145   -0.114573
     13          8           0       -1.634632    2.560120   -0.824662
     14          8           0       -2.952030    2.078774    0.846833
     15          6           0        3.324140   -0.365919    0.239874
     16          6           0        4.102552    0.759575   -0.442271
     17          6           0        5.308578    0.249966   -1.231951
     18          1           0        3.998485   -0.914881    0.911323
     19          1           0        2.988436   -1.083777   -0.521296
     20          1           0        4.435502    1.475820    0.319801
     21          1           0        3.426228    1.306041   -1.112031
     22          1           0        4.990579   -0.448394   -2.012829
     23          1           0        6.005587   -0.277650   -0.572863
     24          1           0        5.850597    1.071080   -1.711375
     25          6           0        2.115584    0.127750    1.033228
     26          6           0        1.337171   -0.997745    1.715373
     27          6           0        0.131146   -0.488137    2.505053
     28          1           0        2.451287    0.845607    1.794397
     29          1           0        1.441238    0.676710    0.361779
     30          1           0        2.013496   -1.544211    2.385132
     31          1           0        1.004222   -1.713990    0.953301
     32          1           0       -0.565864    0.039481    1.845964
     33          1           0        0.449146    0.210225    3.285931
     34          1           0       -0.410873   -1.309250    2.984477
 ---------------------------------------------------------------------

 SCF Done:  E(RHF) =  -669.534141076     A.U. after   15 cycles
 E2 =    -0.2095136497D+01 EUMP2 =    -0.67162927757352D+03

 The electronic state is 1-A.
 Alpha  occ. eigenvalues --  -20.60892 -20.60872 -15.85920 -11.31257 -11.27895
 Alpha  occ. eigenvalues --  -11.27840 -11.27641 -11.26904 -11.26871 -11.21599
 Alpha  occ. eigenvalues --  -11.21552 -11.21432 -11.21284 -11.21133 -11.20901
 Alpha  occ. eigenvalues --   -1.59952  -1.39504  -1.19495  -1.08883  -1.08413
 Alpha  occ. eigenvalues --   -1.04889  -1.03508  -0.95966  -0.95704  -0.86988
 Alpha  occ. eigenvalues --   -0.86280  -0.82534  -0.79577  -0.78224  -0.77577
 Alpha  occ. eigenvalues --   -0.72142  -0.71301  -0.70591  -0.65138  -0.65064
 Alpha  occ. eigenvalues --   -0.64880  -0.62229  -0.60964  -0.59335  -0.57575
 Alpha  occ. eigenvalues --   -0.55434  -0.55364  -0.53145  -0.52973  -0.52643
 Alpha  occ. eigenvalues --   -0.52334  -0.49901  -0.48905  -0.48897  -0.47873
 Alpha  occ. eigenvalues --   -0.46636  -0.45746  -0.45710  -0.44884  -0.43772
 Alpha  occ. eigenvalues --   -0.37383  -0.36420
 Alpha virt. eigenvalues --    0.04927   0.11063   0.16403   0.21180   0.22749
 Alpha virt. eigenvalues --    0.24201   0.26244   0.27124   0.27188   0.28254
 Alpha virt. eigenvalues --    0.28377   0.30672   0.31443   0.31815   0.31946

 Mulliken charges:
               1
     1  C   -0.171137
     2  C   -0.214509
     3  C   -0.171313
     4  C    0.155350
     5  C   -0.171424
     6  C   -0.218467
     7  H    0.226475
     8  H    0.224194
     9  H    0.276337
    10  H    0.275922
    11  H    0.224061
    12  N    0.490924
    13  O   -0.460316
    14  O   -0.459288
    15  C   -0.297526
    16  C   -0.299821
    17  C   -0.475397
    18  H    0.149456
    19  H    0.143850
    20  H    0.154452
    21  H    0.152718
    22  H    0.152093
    23  H    0.155170
    24  H    0.161342
    25  C   -0.299735
    26  C   -0.300380
    27  C   -0.475241
    28  H    0.152481
    29  H    0.151047
    30  H    0.150171
    31  H    0.149087
    32  H    0.158231
    33  H    0.157727
    34  H    0.153464
 Sum of Mulliken charges =  -0.00000

 Dipole moment (field-independent basis, Debye):
    X=              0.2716    Y=             -5.0165    Z=             -1.1732  Tot=              5.1590
 Quadrupole moment (field-independent basis, Debye-Ang):
   XX=            -95.4738   YY=            -98.4874   ZZ=            -90.9227
   XY=             12.4432   XZ=              0.7432   YZ=              1.0463

 Normal termination of Gaussian 16 at Thu May  6 10:57:48 2021.
