 Gaussian 16, Revision A.03,
 Gaussian 16:  EM64L-G16RevA.03 25-Dec-2016

 -------------
 #p 6-31g* mp2
 -------------

 ------------------------------------------------------
 Input file generated by CHIRIPA (05-May-2021 14:53:15)
 ------------------------------------------------------
 Symbolic Z-matrix:
 Charge =  0 Multiplicity = 1

                         Standard orientation:
 ---------------------------------------------------------------------
 Center     Atomic      Atomic             Coordinates (Angstroms)
 Number     Number       Type             X           Y           Z
 ---------------------------------------------------------------------
      1          6           0        4.606231   -0.693123   -0.095018
      2          6           0        3.147110   -0.375737    0.233943
      3          6           0        2.214632   -1.562857   -0.009013
      4          1           0        4.678439   -1.009099   -1.144728
      5          1           0        4.934045   -1.548318    0.512085
      6          1           0        2.822564    0.479481   -0.372595
      7          1           0        3.078396   -0.060296    1.282939
      8          1           0        2.510865   -2.417854    0.607287
      9          1           0        2.253580   -1.875010   -1.057653
     10          1           0        1.176572   -1.313980    0.232544
     11          6           0        5.550691    0.483814    0.142767
     12          6           0        7.009812    0.166428   -0.186195
     13          6           0        7.942290    1.353547    0.056761
     14          1           0        5.222877    1.339009   -0.464337
     15          1           0        5.478484    0.799790    1.192476
     16          1           0        7.078527   -0.149013   -1.235190
     17          1           0        7.334358   -0.688790    0.420343
     18          1           0        7.903342    1.665701    1.105401
     19          1           0        7.646057    2.208545   -0.559539
     20          1           0        8.980351    1.104671   -0.184796
     21          6           0       -3.149468   -2.304990   -0.028153
     22          6           0       -2.236139   -1.251509   -0.140094
     23          6           0       -2.678126    0.074832   -0.135965
     24          6           0       -4.046637    0.312504   -0.017733
     25          6           0       -4.981316   -0.715530    0.095460
     26          6           0       -4.516731   -2.034115    0.089061
     27          1           0       -2.797344   -3.332310   -0.032242
     28          1           0       -1.173724   -1.458894   -0.231257
     29          1           0       -1.992858    0.909439   -0.221157
     30          1           0       -6.034271   -0.477408    0.184923
     31          1           0       -5.228319   -2.850265    0.176149
     32          7           0       -4.526510    1.712536   -0.012160
     33          8           0       -5.737331    1.895426    0.093195
     34          8           0       -3.682728    2.600482   -0.113251
 ---------------------------------------------------------------------

 SCF Done:  E(RHF) =  -669.535567356     A.U. after   15 cycles
 E2 =    -0.2090625696D+01 EUMP2 =    -0.67162619305161D+03

 The electronic state is 1-A.
 Alpha  occ. eigenvalues --  -20.60733 -20.60728 -15.85786 -11.31146 -11.27717
 Alpha  occ. eigenvalues --  -11.27708 -11.27452 -11.26731 -11.26696 -11.22266
 Alpha  occ. eigenvalues --  -11.22067 -11.21891 -11.21881 -11.21724 -11.21283
 Alpha  occ. eigenvalues --   -1.59809  -1.39362  -1.19317  -1.08897  -1.08712
 Alpha  occ. eigenvalues --   -1.04721  -1.04043  -0.96515  -0.95549  -0.87540
 Alpha  occ. eigenvalues --   -0.86117  -0.82383  -0.80109  -0.78670  -0.77432
 Alpha  occ. eigenvalues --   -0.72005  -0.71132  -0.70425  -0.65519  -0.64969
 Alpha  occ. eigenvalues --   -0.64750  -0.62107  -0.61427  -0.59909  -0.58106
 Alpha  occ. eigenvalues --   -0.55785  -0.55223  -0.53367  -0.53050  -0.52972
 Alpha  occ. eigenvalues --   -0.52640  -0.50436  -0.48764  -0.48760  -0.48420
 Alpha  occ. eigenvalues --   -0.47117  -0.46223  -0.46120  -0.44769  -0.44291
 Alpha  occ. eigenvalues --   -0.37298  -0.36323
 Alpha virt. eigenvalues --    0.05103   0.11319   0.16585   0.20074   0.22559
 Alpha virt. eigenvalues --    0.23758   0.25765   0.26236   0.27075   0.28352
 Alpha virt. eigenvalues --    0.28397   0.30020   0.30918   0.31590   0.32297

 Mulliken charges:
               1
     1  C   -0.299299
     2  C   -0.299167
     3  C   -0.482144
     4  H    0.150335
     5  H    0.150164
     6  H    0.153794
     7  H    0.154768
     8  H    0.158710
     9  H    0.157057
    10  H    0.152867
    11  C   -0.298910
    12  C   -0.300022
    13  C   -0.476034
    14  H    0.151025
    15  H    0.150813
    16  H    0.152241
    17  H    0.152043
    18  H    0.155822
    19  H    0.156103
    20  H    0.161055
    21  C   -0.172592
    22  C   -0.226625
    23  C   -0.173456
    24  C    0.158656
    25  C   -0.171165
    26  C   -0.218500
    27  H    0.226325
    28  H    0.235108
    29  H    0.275385
    30  H    0.275450
    31  H    0.223221
    32  N    0.488129
    33  O   -0.460647
    34  O   -0.460509
 Sum of Mulliken charges =  -0.00000

 Dipole moment (field-independent basis, Debye):
    X=              1.8968    Y=             -4.9293    Z=             -0.0140  Tot=              5.2817
 Quadrupole moment (field-independent basis, Debye-Ang):
   XX=           -103.8635   YY=            -98.3683   ZZ=            -94.6931
   XY=             21.8525   XZ=             -0.3937   YZ=             -0.5065

 Normal termination of Gaussian 16 at Thu May  6 02:39:39 2021.
