 Gaussian 16, Revision A.03,
 Gaussian 16:  EM64L-G16RevA.03 25-Dec-2016

 -------------
 #p 6-31g* mp2
 -------------

 ------------------------------------------------------
 Input file generated by CHIRIPA (05-May-2021 14:55:21)
 ------------------------------------------------------
 Symbolic Z-matrix:
 Charge =  0 Multiplicity = 1

                         Standard orientation:
 ---------------------------------------------------------------------
 Center     Atomic      Atomic             Coordinates (Angstroms)
 Number     Number       Type             X           Y           Z
 ---------------------------------------------------------------------
      1          6           0       -2.667077    2.057627    1.407913
      2          6           0       -3.814455    1.484380    0.849851
      3          6           0       -3.724290    0.320819    0.080083
      4          6           0       -2.465112   -0.245544   -0.112253
      5          6           0       -1.303595    0.301806    0.430498
      6          6           0       -1.417512    1.465554    1.196828
      7          1           0       -2.746346    2.961581    2.004553
      8          1           0       -4.786198    1.942015    1.012121
      9          1           0       -4.596355   -0.143960   -0.363652
     10          1           0       -0.348758   -0.177323    0.251222
     11          1           0       -0.524746    1.908544    1.629000
     12          7           0       -2.357085   -1.477453   -0.925352
     13          8           0       -1.236059   -1.957055   -1.080011
     14          8           0       -3.395485   -1.940094   -1.392605
     15          6           0        3.506351   -0.460564    0.430959
     16          6           0        2.744110   -1.784275    0.499964
     17          6           0        3.413109   -2.804306    1.421794
     18          1           0        4.531302   -0.652568    0.085192
     19          1           0        3.591305   -0.041200    1.443043
     20          1           0        2.659415   -2.200331   -0.512133
     21          1           0        1.720797   -1.589073    0.845423
     22          1           0        3.483762   -2.413429    2.442002
     23          1           0        4.427714   -3.028161    1.076732
     24          1           0        2.851632   -3.743142    1.456312
     25          6           0        2.849914    0.569390   -0.486654
     26          6           0        3.612154    1.893101   -0.555659
     27          6           0        2.943155    2.913132   -1.477489
     28          1           0        2.764959    0.150027   -1.498737
     29          1           0        1.824962    0.761394   -0.140887
     30          1           0        4.635467    1.697899   -0.901118
     31          1           0        3.696849    2.309158    0.456439
     32          1           0        1.928551    3.136987   -1.132427
     33          1           0        2.872502    2.522256   -2.497697
     34          1           0        3.504632    3.851968   -1.512006
 ---------------------------------------------------------------------

 SCF Done:  E(RHF) =  -669.535206472     A.U. after   15 cycles
 E2 =    -0.2092453578D+01 EUMP2 =    -0.67162766005087D+03

 The electronic state is 1-A.
 Alpha  occ. eigenvalues --  -20.60749 -20.60743 -15.85799 -11.31165 -11.27750
 Alpha  occ. eigenvalues --  -11.27708 -11.27500 -11.26771 -11.26761 -11.21952
 Alpha  occ. eigenvalues --  -11.21769 -11.21583 -11.21523 -11.21395 -11.20968
 Alpha  occ. eigenvalues --   -1.59822  -1.39375  -1.19349  -1.08744  -1.08668
 Alpha  occ. eigenvalues --   -1.04757  -1.03681  -0.96150  -0.95577  -0.87161
 Alpha  occ. eigenvalues --   -0.86155  -0.82412  -0.79751  -0.78498  -0.77431
 Alpha  occ. eigenvalues --   -0.72018  -0.71145  -0.70471  -0.65367  -0.64996
 Alpha  occ. eigenvalues --   -0.64745  -0.62101  -0.61087  -0.59510  -0.57737
 Alpha  occ. eigenvalues --   -0.55470  -0.55251  -0.53083  -0.52909  -0.52763
 Alpha  occ. eigenvalues --   -0.52557  -0.50107  -0.48780  -0.48778  -0.48051
 Alpha  occ. eigenvalues --   -0.46814  -0.45982  -0.45893  -0.44778  -0.43963
 Alpha  occ. eigenvalues --   -0.37333  -0.36353
 Alpha virt. eigenvalues --    0.05053   0.11271   0.16516   0.19511   0.23039
 Alpha virt. eigenvalues --    0.23780   0.24779   0.26766   0.27668   0.27960
 Alpha virt. eigenvalues --    0.29372   0.31074   0.31526   0.31784   0.32034

 Mulliken charges:
               1
     1  C   -0.170385
     2  C   -0.219056
     3  C   -0.169841
     4  C    0.158497
     5  C   -0.182484
     6  C   -0.223179
     7  H    0.225595
     8  H    0.223493
     9  H    0.275600
    10  H    0.292215
    11  H    0.223235
    12  N    0.486976
    13  O   -0.460520
    14  O   -0.460546
    15  C   -0.299597
    16  C   -0.302205
    17  C   -0.476279
    18  H    0.152141
    19  H    0.145738
    20  H    0.162326
    21  H    0.150246
    22  H    0.152065
    23  H    0.155263
    24  H    0.165417
    25  C   -0.300070
    26  C   -0.299711
    27  C   -0.475423
    28  H    0.158060
    29  H    0.137390
    30  H    0.155129
    31  H    0.148848
    32  H    0.151156
    33  H    0.159037
    34  H    0.160869
 Sum of Mulliken charges =  -0.00000

 Dipole moment (field-independent basis, Debye):
    X=             -0.2847    Y=              4.2101    Z=              2.7392  Tot=              5.0308
 Quadrupole moment (field-independent basis, Debye-Ang):
   XX=            -87.3727   YY=            -97.9518   ZZ=            -95.8279
   XY=            -10.9954   XZ=             -7.3745   YZ=             -0.2966

 Normal termination of Gaussian 16 at Thu May  6 09:20:38 2021.
