 Gaussian 16, Revision A.03,
 Gaussian 16:  EM64L-G16RevA.03 25-Dec-2016

 -------------
 #p 6-31g* mp2
 -------------

 ------------------------------------------------------
 Input file generated by CHIRIPA (05-May-2021 14:51:08)
 ------------------------------------------------------
 Symbolic Z-matrix:
 Charge =  0 Multiplicity = 1

                         Standard orientation:
 ---------------------------------------------------------------------
 Center     Atomic      Atomic             Coordinates (Angstroms)
 Number     Number       Type             X           Y           Z
 ---------------------------------------------------------------------
      1          6           0        3.212991    0.684565   -0.248292
      2          6           0        2.733813    2.044063    0.261745
      3          6           0        3.554035    3.207450   -0.296432
      4          1           0        4.270133    0.551463    0.019437
      5          1           0        3.164947    0.674873   -1.346014
      6          1           0        2.781437    2.050702    1.358241
      7          1           0        1.677635    2.173863   -0.007062
      8          1           0        3.497436    3.229185   -1.389558
      9          1           0        4.607510    3.105325   -0.016497
     10          1           0        3.194430    4.169745    0.081103
     11          6           0        2.402843   -0.488381    0.300877
     12          6           0        2.882021   -1.847879   -0.209160
     13          6           0        2.061799   -3.011266    0.349016
     14          1           0        2.450887   -0.478689    1.398598
     15          1           0        1.345701   -0.355279    0.033148
     16          1           0        3.938199   -1.977679    0.059647
     17          1           0        2.834397   -1.854518   -1.305656
     18          1           0        1.008324   -2.909141    0.069082
     19          1           0        2.118398   -3.033001    1.442143
     20          1           0        2.421404   -3.973561   -0.028519
     21          6           0       -2.918019   -0.822634   -0.241581
     22          6           0       -1.767492   -1.752002    0.146423
     23          6           0       -2.002432   -3.198097   -0.291078
     24          1           0       -3.849334   -1.195904    0.205930
     25          1           0       -3.058125   -0.858994   -1.330821
     26          1           0       -1.628695   -1.712843    1.234456
     27          1           0       -0.838775   -1.376368   -0.301906
     28          1           0       -2.119271   -3.257595   -1.378004
     29          1           0       -2.913681   -3.595981    0.167088
     30          1           0       -1.167805   -3.845127   -0.003659
     31          6           0       -2.697815    0.626449    0.188997
     32          6           0       -3.848342    1.555818   -0.199007
     33          6           0       -3.613402    3.001913    0.238493
     34          1           0       -2.557709    0.662809    1.278236
     35          1           0       -1.766500    0.999721   -0.258514
     36          1           0       -4.777059    1.180183    0.249321
     37          1           0       -3.987139    1.516660   -1.287042
     38          1           0       -2.702153    3.399798   -0.219672
     39          1           0       -3.496562    3.061411    1.325419
     40          1           0       -4.448029    3.648943   -0.048925
 ---------------------------------------------------------------------

 SCF Done:  E(RHF) =  -470.732159032     A.U. after   11 cycles
 E2 =    -0.1584420549D+01 EUMP2 =    -0.47231657958088D+03

 The electronic state is 1-A.
 Alpha  occ. eigenvalues --  -11.21632 -11.21629 -11.21597 -11.21569 -11.21446
 Alpha  occ. eigenvalues --  -11.21387 -11.21380 -11.21314 -11.21092 -11.21082
 Alpha  occ. eigenvalues --  -11.21068 -11.20962  -1.08487  -1.08398  -1.03609
 Alpha  occ. eigenvalues --   -1.03472  -0.96059  -0.95916  -0.87064  -0.86940
 Alpha  occ. eigenvalues --   -0.79694  -0.79533  -0.78391  -0.78116  -0.65231
 Alpha  occ. eigenvalues --   -0.64945  -0.61154  -0.60799  -0.59463  -0.59257
 Alpha  occ. eigenvalues --   -0.57821  -0.57407  -0.55351  -0.55167  -0.52779
 Alpha  occ. eigenvalues --   -0.52631  -0.52554  -0.52205  -0.49969  -0.49854
 Alpha  occ. eigenvalues --   -0.48022  -0.47835  -0.46878  -0.46476  -0.46167
 Alpha  occ. eigenvalues --   -0.45777  -0.45714  -0.45161  -0.43835  -0.43744
 Alpha virt. eigenvalues --    0.20908   0.22927   0.23402   0.24670   0.25100
 Alpha virt. eigenvalues --    0.26630   0.26922   0.27128   0.28995   0.30076
 Alpha virt. eigenvalues --    0.30263   0.30899   0.31594   0.31752   0.32023

 Mulliken charges:
               1
     1  C   -0.297801
     2  C   -0.299699
     3  C   -0.475722
     4  H    0.149724
     5  H    0.149000
     6  H    0.152193
     7  H    0.151631
     8  H    0.154982
     9  H    0.155256
    10  H    0.160319
    11  C   -0.304636
    12  C   -0.299003
    13  C   -0.486082
    14  H    0.149615
    15  H    0.155317
    16  H    0.151782
    17  H    0.151036
    18  H    0.167793
    19  H    0.154643
    20  H    0.159458
    21  C   -0.297438
    22  C   -0.307489
    23  C   -0.480307
    24  H    0.149994
    25  H    0.149292
    26  H    0.153344
    27  H    0.157481
    28  H    0.154994
    29  H    0.156092
    30  H    0.164404
    31  C   -0.298870
    32  C   -0.299720
    33  C   -0.475673
    34  H    0.150115
    35  H    0.149043
    36  H    0.152207
    37  H    0.151892
    38  H    0.155075
    39  H    0.155397
    40  H    0.160363
 Sum of Mulliken charges =  -0.00000

 Dipole moment (field-independent basis, Debye):
    X=             -0.0455    Y=             -0.0065    Z=              0.0196  Tot=              0.0500
 Quadrupole moment (field-independent basis, Debye-Ang):
   XX=            -84.4988   YY=            -86.8345   ZZ=            -83.5016
   XY=             -0.3655   XZ=              0.2312   YZ=             -0.2058

 Normal termination of Gaussian 16 at Thu May  6 05:17:12 2021.
