 Gaussian 16, Revision A.03,
 Gaussian 16:  EM64L-G16RevA.03 25-Dec-2016

 -------------
 #p 6-31g* mp2
 -------------

 ------------------------------------------------------
 Input file generated by CHIRIPA (05-May-2021 14:51:14)
 ------------------------------------------------------
 Symbolic Z-matrix:
 Charge =  0 Multiplicity = 1

                         Standard orientation:
 ---------------------------------------------------------------------
 Center     Atomic      Atomic             Coordinates (Angstroms)
 Number     Number       Type             X           Y           Z
 ---------------------------------------------------------------------
      1          6           0        2.600803   -1.013065   -0.204280
      2          6           0        1.445502   -1.150616    0.787862
      3          6           0        0.307943   -2.021408    0.253563
      4          1           0        2.220863   -0.587085   -1.142966
      5          1           0        2.986459   -2.012655   -0.448175
      6          1           0        1.063043   -0.150974    1.030876
      7          1           0        1.828272   -1.576141    1.724362
      8          1           0        0.668273   -3.030407    0.028430
      9          1           0       -0.101304   -1.597142   -0.668997
     10          1           0       -0.507341   -2.106266    0.978800
     11          6           0        3.745673   -0.145411    0.315505
     12          6           0        4.900973   -0.007860   -0.676637
     13          6           0        6.038532    0.862931   -0.142338
     14          1           0        3.360017    0.854178    0.559399
     15          1           0        4.125612   -0.571392    1.254191
     16          1           0        4.518204    0.417664   -1.613137
     17          1           0        5.283433   -1.007503   -0.919651
     18          1           0        6.447780    0.438666    0.780222
     19          1           0        5.678203    1.871930    0.082795
     20          1           0        6.853817    0.947790   -0.867576
     21          6           0       -3.178116   -0.156322    0.150200
     22          6           0       -4.271383   -0.972053   -0.540697
     23          6           0       -4.268338   -2.441644   -0.118691
     24          1           0       -2.199467   -0.601891   -0.074871
     25          1           0       -3.310586   -0.226459    1.238744
     26          1           0       -4.137713   -0.899269   -1.627642
     27          1           0       -5.247529   -0.524377   -0.314111
     28          1           0       -4.424615   -2.532710    0.961070
     29          1           0       -3.308493   -2.909732   -0.359925
     30          1           0       -5.057770   -3.006232   -0.624553
     31          6           0       -3.168359    1.314799   -0.261425
     32          6           0       -2.075093    2.130530    0.429472
     33          6           0       -2.078138    3.600120    0.007466
     34          1           0       -3.035889    1.384936   -1.349969
     35          1           0       -4.147009    1.760368   -0.036354
     36          1           0       -1.098947    1.682854    0.202886
     37          1           0       -2.208763    2.057745    1.516417
     38          1           0       -3.037983    4.068208    0.248700
     39          1           0       -1.921861    3.691187   -1.072295
     40          1           0       -1.288706    4.164709    0.513329
 ---------------------------------------------------------------------

 SCF Done:  E(RHF) =  -470.732591098     A.U. after   11 cycles
 E2 =    -0.1583723132D+01 EUMP2 =    -0.47231631423027D+03

 The electronic state is 1-A.
 Alpha  occ. eigenvalues --  -11.21648 -11.21624 -11.21613 -11.21532 -11.21441
 Alpha  occ. eigenvalues --  -11.21380 -11.21345 -11.21205 -11.21115 -11.21087
 Alpha  occ. eigenvalues --  -11.21085 -11.21010  -1.08474  -1.08375  -1.03574
 Alpha  occ. eigenvalues --   -1.03495  -0.96040  -0.95928  -0.87071  -0.86939
 Alpha  occ. eigenvalues --   -0.79689  -0.79517  -0.78282  -0.78189  -0.65203
 Alpha  occ. eigenvalues --   -0.64940  -0.60983  -0.60896  -0.59433  -0.59272
 Alpha  occ. eigenvalues --   -0.57639  -0.57547  -0.55447  -0.55124  -0.52771
 Alpha  occ. eigenvalues --   -0.52632  -0.52450  -0.52343  -0.50112  -0.49774
 Alpha  occ. eigenvalues --   -0.47987  -0.47850  -0.46794  -0.46485  -0.45880
 Alpha  occ. eigenvalues --   -0.45739  -0.45699  -0.45496  -0.43775  -0.43731
 Alpha virt. eigenvalues --    0.20664   0.23058   0.23838   0.24086   0.26114
 Alpha virt. eigenvalues --    0.26754   0.27167   0.27436   0.27757   0.29549
 Alpha virt. eigenvalues --    0.30534   0.31184   0.31722   0.31864   0.32265

 Mulliken charges:
               1
     1  C   -0.298500
     2  C   -0.303357
     3  C   -0.480308
     4  H    0.149424
     5  H    0.149762
     6  H    0.154936
     7  H    0.152618
     8  H    0.156020
     9  H    0.154815
    10  H    0.164838
    11  C   -0.298336
    12  C   -0.299671
    13  C   -0.475737
    14  H    0.149615
    15  H    0.149822
    16  H    0.151906
    17  H    0.151977
    18  H    0.155235
    19  H    0.155263
    20  H    0.160325
    21  C   -0.309256
    22  C   -0.298681
    23  C   -0.477413
    24  H    0.164031
    25  H    0.147805
    26  H    0.151143
    27  H    0.151382
    28  H    0.154614
    29  H    0.157277
    30  H    0.159985
    31  C   -0.297527
    32  C   -0.302187
    33  C   -0.475572
    34  H    0.148679
    35  H    0.149427
    36  H    0.153123
    37  H    0.152058
    38  H    0.155505
    39  H    0.155000
    40  H    0.159960
 Sum of Mulliken charges =  -0.00000

 Dipole moment (field-independent basis, Debye):
    X=              0.0464    Y=             -0.0306    Z=              0.0138  Tot=              0.0573
 Quadrupole moment (field-independent basis, Debye-Ang):
   XX=            -85.2150   YY=            -85.6105   ZZ=            -84.1421
   XY=             -1.1811   XZ=             -0.4952   YZ=             -0.1172

 Normal termination of Gaussian 16 at Thu May  6 05:35:36 2021.
