 Gaussian 16, Revision A.03,
 Gaussian 16:  EM64L-G16RevA.03 25-Dec-2016

 -------------
 #p 6-31g* mp2
 -------------

 ------------------------------------------------------
 Input file generated by CHIRIPA (05-May-2021 14:53:17)
 ------------------------------------------------------
 Symbolic Z-matrix:
 Charge =  0 Multiplicity = 1

                         Standard orientation:
 ---------------------------------------------------------------------
 Center     Atomic      Atomic             Coordinates (Angstroms)
 Number     Number       Type             X           Y           Z
 ---------------------------------------------------------------------
      1          6           0       -2.290854    0.951685   -0.963095
      2          6           0       -1.337180    2.078488   -0.564594
      3          6           0       -0.958106    2.976455   -1.742623
      4          1           0       -1.823718    0.346348   -1.751952
      5          1           0       -3.199787    1.387507   -1.400468
      6          1           0       -0.430902    1.640716   -0.126835
      7          1           0       -1.806562    2.681099    0.223541
      8          1           0       -1.850068    3.440193   -2.176159
      9          1           0       -0.466591    2.393899   -2.528525
     10          1           0       -0.275809    3.775142   -1.435329
     11          6           0       -2.679015    0.045433    0.203853
     12          6           0       -3.632690   -1.081370   -0.194648
     13          6           0       -4.011763   -1.979337    0.983381
     14          1           0       -1.770082   -0.390389    0.641226
     15          1           0       -3.146152    0.650770    0.992710
     16          1           0       -3.163307   -1.683981   -0.982783
     17          1           0       -4.538967   -0.643598   -0.632407
     18          1           0       -4.503278   -1.396781    1.769283
     19          1           0       -3.119802   -2.443075    1.416916
     20          1           0       -4.694060   -2.778024    0.676087
     21          6           0        1.599739    1.349336    2.092594
     22          6           0        2.605640    1.519629    1.135680
     23          6           0        2.803953    0.562634    0.135990
     24          6           0        1.974382   -0.557604    0.122947
     25          6           0        0.963649   -0.755728    1.062339
     26          6           0        0.783394    0.214203    2.052940
     27          1           0        1.452699    2.097777    2.865647
     28          1           0        3.241125    2.400197    1.164029
     29          1           0        3.575162    0.669358   -0.617179
     30          1           0        0.345980   -1.643973    1.008287
     31          1           0        0.001409    0.079320    2.794797
     32          7           0        2.174769   -1.577579   -0.930569
     33          8           0        1.430564   -2.555685   -0.920284
     34          8           0        3.072241   -1.379616   -1.746651
 ---------------------------------------------------------------------

 SCF Done:  E(RHF) =  -669.533351789     A.U. after   15 cycles
 E2 =    -0.2096143225D+01 EUMP2 =    -0.67162949501396D+03

 The electronic state is 1-A.
 Alpha  occ. eigenvalues --  -20.60890 -20.60884 -15.85944 -11.31336 -11.27898
 Alpha  occ. eigenvalues --  -11.27864 -11.27593 -11.26911 -11.26848 -11.21702
 Alpha  occ. eigenvalues --  -11.21591 -11.21559 -11.21427 -11.21300 -11.21135
 Alpha  occ. eigenvalues --   -1.59965  -1.39518  -1.19521  -1.08893  -1.08557
 Alpha  occ. eigenvalues --   -1.04916  -1.03640  -0.96121  -0.95720  -0.87133
 Alpha  occ. eigenvalues --   -0.86293  -0.82558  -0.79712  -0.78430  -0.77581
 Alpha  occ. eigenvalues --   -0.72159  -0.71294  -0.70601  -0.65309  -0.65104
 Alpha  occ. eigenvalues --   -0.64866  -0.62265  -0.61046  -0.59495  -0.57730
 Alpha  occ. eigenvalues --   -0.55447  -0.55354  -0.53431  -0.52982  -0.52741
 Alpha  occ. eigenvalues --   -0.52545  -0.50056  -0.48920  -0.48914  -0.48015
 Alpha  occ. eigenvalues --   -0.46716  -0.45901  -0.45770  -0.44911  -0.43899
 Alpha  occ. eigenvalues --   -0.37467  -0.36381
 Alpha virt. eigenvalues --    0.04894   0.11075   0.16301   0.20413   0.22966
 Alpha virt. eigenvalues --    0.23791   0.26031   0.26796   0.27770   0.28184
 Alpha virt. eigenvalues --    0.29385   0.30572   0.31270   0.31603   0.31815

 Mulliken charges:
               1
     1  C   -0.298380
     2  C   -0.308568
     3  C   -0.474859
     4  H    0.154279
     5  H    0.149713
     6  H    0.165011
     7  H    0.145326
     8  H    0.154862
     9  H    0.157870
    10  H    0.155992
    11  C   -0.301417
    12  C   -0.300878
    13  C   -0.474989
    14  H    0.145254
    15  H    0.145400
    16  H    0.159051
    17  H    0.152851
    18  H    0.153049
    19  H    0.150149
    20  H    0.163676
    21  C   -0.170937
    22  C   -0.217265
    23  C   -0.172159
    24  C    0.158897
    25  C   -0.173733
    26  C   -0.215463
    27  H    0.226649
    28  H    0.224413
    29  H    0.276346
    30  H    0.276177
    31  H    0.225836
    32  N    0.488025
    33  O   -0.460396
    34  O   -0.459783
 Sum of Mulliken charges =  -0.00000

 Dipole moment (field-independent basis, Debye):
    X=             -0.5958    Y=              3.5393    Z=              3.6771  Tot=              5.1384
 Quadrupole moment (field-independent basis, Debye-Ang):
   XX=            -94.5338   YY=            -98.2595   ZZ=            -94.1451
   XY=              9.4839   XZ=              6.0604   YZ=             -1.8474

 Normal termination of Gaussian 16 at Thu May  6 01:13:22 2021.
