 Gaussian 16, Revision A.03,
 Gaussian 16:  EM64L-G16RevA.03 25-Dec-2016

 -------------
 #p 6-31g* mp2
 -------------

 ------------------------------------------------------
 Input file generated by CHIRIPA (05-May-2021 14:57:21)
 ------------------------------------------------------
 Symbolic Z-matrix:
 Charge =  0 Multiplicity = 1

                         Standard orientation:
 ---------------------------------------------------------------------
 Center     Atomic      Atomic             Coordinates (Angstroms)
 Number     Number       Type             X           Y           Z
 ---------------------------------------------------------------------
      1          6           0       -4.152351   -1.993694    0.083801
      2          6           0       -4.963719   -0.916474    0.455017
      3          6           0       -4.473432    0.391848    0.405409
      4          6           0       -3.161116    0.587489   -0.022192
      5          6           0       -2.328119   -0.465016   -0.398539
      6          6           0       -2.839455   -1.764930   -0.341043
      7          1           0       -4.541394   -3.006764    0.125402
      8          1           0       -5.983723   -1.091150    0.785356
      9          1           0       -5.079848    1.244109    0.687060
     10          1           0       -1.315464   -0.259431   -0.723630
     11          1           0       -2.207060   -2.599594   -0.629935
     12          7           0       -2.630929    1.968101   -0.078885
     13          8           0       -1.471285    2.113901   -0.459155
     14          8           0       -3.385052    2.878282    0.258022
     15          6           0        5.146545    1.282995    0.265992
     16          6           0        4.572900    1.064368   -0.990852
     17          6           0        3.520755    0.156389   -1.142873
     18          6           0        3.065002   -0.518782   -0.011625
     19          6           0        3.615791   -0.322692    1.253867
     20          6           0        4.667005    0.589988    1.382372
     21          1           0        5.963515    1.990161    0.374951
     22          1           0        4.943280    1.601152   -1.859602
     23          1           0        3.058354   -0.032041   -2.104173
     24          1           0        3.225113   -0.872685    2.101391
     25          1           0        5.110585    0.757766    2.359680
     26          7           0        1.951635   -1.482507   -0.160115
     27          8           0        1.568238   -2.064753    0.852126
     28          8           0        1.483459   -1.637380   -1.285930
 ---------------------------------------------------------------------

 SCF Done:  E(RHF) =  -868.340913848     A.U. after   16 cycles
 E2 =    -0.2598321153D+01 EUMP2 =    -0.87093923500092D+03

 The electronic state is 1-A.
 Alpha  occ. eigenvalues --  -20.61269 -20.61255 -20.60147 -20.60141 -15.86268
 Alpha  occ. eigenvalues --  -15.85187 -11.31236 -11.30280 -11.27780 -11.27760
 Alpha  occ. eigenvalues --  -11.27463 -11.26893 -11.26717 -11.26693 -11.26672
 Alpha  occ. eigenvalues --  -11.26540 -11.25888 -11.25625  -1.60328  -1.59225
 Alpha  occ. eigenvalues --   -1.39887  -1.38785  -1.19379  -1.18431  -1.08856
 Alpha  occ. eigenvalues --   -1.07891  -1.04730  -1.03763  -0.95755  -0.94765
 Alpha  occ. eigenvalues --   -0.86152  -0.85193  -0.82605  -0.81586  -0.77689
 Alpha  occ. eigenvalues --   -0.76656  -0.72504  -0.71624  -0.71413  -0.70541
 Alpha  occ. eigenvalues --   -0.70504  -0.69548  -0.65046  -0.64745  -0.64076
 Alpha  occ. eigenvalues --   -0.63752  -0.62089  -0.61092  -0.55266  -0.54327
 Alpha  occ. eigenvalues --   -0.53065  -0.52830  -0.52151  -0.51833  -0.49281
 Alpha  occ. eigenvalues --   -0.49244  -0.48179  -0.48148  -0.45367  -0.44250
 Alpha  occ. eigenvalues --   -0.37335  -0.36440  -0.36302  -0.35356
 Alpha virt. eigenvalues --    0.04799   0.05826   0.11356   0.12277   0.16362
 Alpha virt. eigenvalues --    0.17376   0.21462   0.22458   0.27404   0.28148
 Alpha virt. eigenvalues --    0.28567   0.29199   0.31077   0.32003   0.32532

 Mulliken charges:
               1
     1  C   -0.171669
     2  C   -0.219250
     3  C   -0.172718
     4  C    0.157450
     5  C   -0.172774
     6  C   -0.219238
     7  H    0.223578
     8  H    0.219621
     9  H    0.271681
    10  H    0.282413
    11  H    0.236579
    12  N    0.488241
    13  O   -0.463616
    14  O   -0.463940
    15  C   -0.168834
    16  C   -0.217656
    17  C   -0.167260
    18  C    0.159199
    19  C   -0.169337
    20  C   -0.218186
    21  H    0.226803
    22  H    0.224972
    23  H    0.275814
    24  H    0.274811
    25  H    0.224015
    26  N    0.488103
    27  O   -0.461018
    28  O   -0.467783
 Sum of Mulliken charges =  -0.00000

 Dipole moment (field-independent basis, Debye):
    X=              2.4674    Y=             -1.5601    Z=              0.6961  Tot=              3.0010
 Quadrupole moment (field-independent basis, Debye-Ang):
   XX=            -66.2683   YY=           -114.6279   ZZ=           -100.2512
   XY=             22.0206   XZ=             -0.2745   YZ=             -0.5421

 Normal termination of Gaussian 16 at Thu May  6 16:06:53 2021.
