 Gaussian 16, Revision A.03,
 Gaussian 16:  EM64L-G16RevA.03 25-Dec-2016

 -------------
 #p 6-31g* mp2
 -------------

 ------------------------------------------------------
 Input file generated by CHIRIPA (05-May-2021 14:55:25)
 ------------------------------------------------------
 Symbolic Z-matrix:
 Charge =  0 Multiplicity = 1

                         Standard orientation:
 ---------------------------------------------------------------------
 Center     Atomic      Atomic             Coordinates (Angstroms)
 Number     Number       Type             X           Y           Z
 ---------------------------------------------------------------------
      1          6           0        4.898971    0.465690    1.255707
      2          6           0        3.617920    0.574293    1.806738
      3          6           0        2.495755    0.163296    1.081220
      4          6           0        2.692095   -0.353975   -0.198300
      5          6           0        3.955583   -0.474891   -0.774726
      6          6           0        5.063424   -0.057633   -0.030998
      7          1           0        5.765131    0.787395    1.826380
      8          1           0        3.487198    0.980330    2.805783
      9          1           0        1.492666    0.236155    1.483615
     10          1           0        4.054228   -0.883674   -1.773017
     11          1           0        6.057116   -0.143151   -0.461471
     12          7           0        1.511691   -0.792393   -0.976013
     13          8           0        1.711400   -1.244712   -2.101251
     14          8           0        0.409133   -0.675405   -0.445620
     15          6           0       -4.145143   -0.088152    0.513236
     16          6           0       -4.065961   -1.565209    0.125915
     17          6           0       -4.972316   -2.450262    0.982067
     18          1           0       -3.873341    0.021796    1.572000
     19          1           0       -5.185628    0.252742    0.420613
     20          1           0       -3.025697   -1.902853    0.217913
     21          1           0       -4.337797   -1.671631   -0.932099
     22          1           0       -6.017874   -2.141164    0.882716
     23          1           0       -4.698318   -2.373700    2.039264
     24          1           0       -4.900094   -3.502060    0.688191
     25          6           0       -3.244654    0.809351   -0.333720
     26          6           0       -3.323836    2.286408    0.053601
     27          6           0       -2.417481    3.171460   -0.802550
     28          1           0       -2.204169    0.468457   -0.241096
     29          1           0       -3.516455    0.699402   -1.392483
     30          1           0       -3.052000    2.392830    1.111616
     31          1           0       -4.364100    2.624052   -0.038397
     32          1           0       -2.691479    3.094898   -1.859747
     33          1           0       -1.371924    2.862362   -0.703200
     34          1           0       -2.489702    4.223259   -0.508674
 ---------------------------------------------------------------------

 SCF Done:  E(RHF) =  -669.536204552     A.U. after   15 cycles
 E2 =    -0.2091114145D+01 EUMP2 =    -0.67162731869628D+03

 The electronic state is 1-A.
 Alpha  occ. eigenvalues --  -20.60999 -20.60984 -15.86034 -11.31334 -11.27899
 Alpha  occ. eigenvalues --  -11.27889 -11.27627 -11.26898 -11.26888 -11.20765
 Alpha  occ. eigenvalues --  -11.20520 -11.20391 -11.20344 -11.20263 -11.20081
 Alpha  occ. eigenvalues --   -1.60053  -1.39611  -1.19500  -1.08907  -1.07404
 Alpha  occ. eigenvalues --   -1.04894  -1.02625  -0.95753  -0.95078  -0.86296
 Alpha  occ. eigenvalues --   -0.86103  -0.82590  -0.78670  -0.77653  -0.77164
 Alpha  occ. eigenvalues --   -0.72257  -0.71366  -0.70609  -0.65160  -0.64897
 Alpha  occ. eigenvalues --   -0.64031  -0.62243  -0.60034  -0.58449  -0.56680
 Alpha  occ. eigenvalues --   -0.55398  -0.54371  -0.53226  -0.52986  -0.51824
 Alpha  occ. eigenvalues --   -0.51504  -0.49072  -0.49013  -0.48967  -0.46997
 Alpha  occ. eigenvalues --   -0.45708  -0.45070  -0.44757  -0.44496  -0.42834
 Alpha  occ. eigenvalues --   -0.37477  -0.36495
 Alpha virt. eigenvalues --    0.04870   0.11160   0.16357   0.21234   0.23799
 Alpha virt. eigenvalues --    0.25123   0.27128   0.27442   0.28061   0.28667
 Alpha virt. eigenvalues --    0.29021   0.30912   0.32100   0.32456   0.32695

 Mulliken charges:
               1
     1  C   -0.170544
     2  C   -0.218422
     3  C   -0.170642
     4  C    0.157572
     5  C   -0.170524
     6  C   -0.218528
     7  H    0.226182
     8  H    0.223993
     9  H    0.275023
    10  H    0.276014
    11  H    0.223996
    12  N    0.494568
    13  O   -0.458067
    14  O   -0.467094
    15  C   -0.296695
    16  C   -0.301453
    17  C   -0.475127
    18  H    0.144327
    19  H    0.144579
    20  H    0.163295
    21  H    0.151709
    22  H    0.152111
    23  H    0.151794
    24  H    0.158710
    25  C   -0.310530
    26  C   -0.298119
    27  C   -0.474609
    28  H    0.177314
    29  H    0.148393
    30  H    0.146103
    31  H    0.148208
    32  H    0.155829
    33  H    0.155938
    34  H    0.154697
 Sum of Mulliken charges =  -0.00000

 Dipole moment (field-independent basis, Debye):
    X=              4.5026    Y=              1.4204    Z=              2.6366  Tot=              5.4076
 Quadrupole moment (field-independent basis, Debye-Ang):
   XX=            -71.8716   YY=            -97.5635   ZZ=            -93.1470
   XY=              1.5539   XZ=              5.3101   YZ=              0.3565

 Normal termination of Gaussian 16 at Wed May  5 22:27:05 2021.
