 Gaussian 16, Revision A.03,
 Gaussian 16:  EM64L-G16RevA.03 25-Dec-2016

 -------------
 #p 6-31g* mp2
 -------------

 ------------------------------------------------------
 Input file generated by CHIRIPA (05-May-2021 14:53:18)
 ------------------------------------------------------
 Symbolic Z-matrix:
 Charge =  0 Multiplicity = 1

                         Standard orientation:
 ---------------------------------------------------------------------
 Center     Atomic      Atomic             Coordinates (Angstroms)
 Number     Number       Type             X           Y           Z
 ---------------------------------------------------------------------
      1          6           0        4.043864   -0.167877    0.149395
      2          6           0        5.210005   -0.959986   -0.442773
      3          6           0        5.964279   -1.775881    0.607551
      4          1           0        4.424210    0.502143    0.932565
      5          1           0        3.350367   -0.863082    0.642493
      6          1           0        5.900390   -0.263636   -0.935805
      7          1           0        4.826865   -1.628059   -1.224757
      8          1           0        5.294083   -2.492889    1.092667
      9          1           0        6.373707   -1.120713    1.383260
     10          1           0        6.793755   -2.334268    0.162542
     11          6           0        3.280063    0.652835   -0.888279
     12          6           0        2.113922    1.444945   -0.296111
     13          6           0        1.359648    2.260839   -1.346436
     14          1           0        3.973560    1.348041   -1.381377
     15          1           0        2.899716   -0.017185   -1.671450
     16          1           0        2.497061    2.113017    0.485872
     17          1           0        1.423537    0.748594    0.196920
     18          1           0        0.950220    1.605671   -2.122145
     19          1           0        2.029844    2.977847   -1.831551
     20          1           0        0.530172    2.819226   -0.901427
     21          6           0       -1.021472    0.987602    1.552342
     22          6           0       -2.159995    1.695216    1.152882
     23          6           0       -3.185425    1.053285    0.452192
     24          6           0       -3.038739   -0.303229    0.166456
     25          6           0       -1.916591   -1.035552    0.550872
     26          6           0       -0.903611   -0.373126    1.250594
     27          1           0       -0.229729    1.494230    2.096278
     28          1           0       -2.254233    2.752048    1.385845
     29          1           0       -4.077588    1.576999    0.130966
     30          1           0       -1.851164   -2.088288    0.304120
     31          1           0       -0.020547   -0.925194    1.559563
     32          7           0       -4.117725   -0.993662   -0.574821
     33          8           0       -3.964422   -2.189399   -0.814294
     34          8           0       -5.096307   -0.326013   -0.902323
 ---------------------------------------------------------------------

 SCF Done:  E(RHF) =  -669.534185252     A.U. after   15 cycles
 E2 =    -0.2093632142D+01 EUMP2 =    -0.67162781739370D+03

 The electronic state is 1-A.
 Alpha  occ. eigenvalues --  -20.60795 -20.60790 -15.85851 -11.31228 -11.27822
 Alpha  occ. eigenvalues --  -11.27817 -11.27544 -11.26820 -11.26807 -11.22229
 Alpha  occ. eigenvalues --  -11.22127 -11.22054 -11.21952 -11.21588 -11.21544
 Alpha  occ. eigenvalues --   -1.59871  -1.39424  -1.19422  -1.09058  -1.08800
 Alpha  occ. eigenvalues --   -1.04833  -1.04096  -0.96534  -0.95638  -0.87546
 Alpha  occ. eigenvalues --   -0.86236  -0.82472  -0.80191  -0.78888  -0.77513
 Alpha  occ. eigenvalues --   -0.72071  -0.71195  -0.70525  -0.65715  -0.65070
 Alpha  occ. eigenvalues --   -0.64825  -0.62189  -0.61487  -0.59926  -0.58181
 Alpha  occ. eigenvalues --   -0.55822  -0.55307  -0.53319  -0.53053  -0.52933
 Alpha  occ. eigenvalues --   -0.52911  -0.50464  -0.48831  -0.48824  -0.48492
 Alpha  occ. eigenvalues --   -0.47220  -0.46411  -0.46342  -0.44828  -0.44361
 Alpha  occ. eigenvalues --   -0.37294  -0.36402
 Alpha virt. eigenvalues --    0.05015   0.11036   0.16458   0.20287   0.22583
 Alpha virt. eigenvalues --    0.23832   0.24978   0.26280   0.26978   0.28333
 Alpha virt. eigenvalues --    0.28970   0.30495   0.31111   0.31309   0.32015

 Mulliken charges:
               1
     1  C   -0.297462
     2  C   -0.300120
     3  C   -0.475940
     4  H    0.149274
     5  H    0.142464
     6  H    0.153889
     7  H    0.153701
     8  H    0.154173
     9  H    0.155252
    10  H    0.162562
    11  C   -0.298003
    12  C   -0.307326
    13  C   -0.474075
    14  H    0.151716
    15  H    0.152301
    16  H    0.146434
    17  H    0.152815
    18  H    0.159601
    19  H    0.156376
    20  H    0.156801
    21  C   -0.165768
    22  C   -0.220487
    23  C   -0.170209
    24  C    0.158149
    25  C   -0.172178
    26  C   -0.220399
    27  H    0.229131
    28  H    0.223753
    29  H    0.275989
    30  H    0.275763
    31  H    0.224438
    32  N    0.488131
    33  O   -0.460463
    34  O   -0.460284
 Sum of Mulliken charges =  -0.00000

 Dipole moment (field-independent basis, Debye):
    X=              3.8153    Y=              2.4274    Z=              2.5518  Tot=              5.1923
 Quadrupole moment (field-independent basis, Debye-Ang):
   XX=           -116.7737   YY=            -92.6232   ZZ=            -94.9403
   XY=            -10.4256   XZ=             -7.7884   YZ=             -0.0035

 Normal termination of Gaussian 16 at Thu May  6 15:40:45 2021.
