 Gaussian 16, Revision A.03,
 Gaussian 16:  EM64L-G16RevA.03 25-Dec-2016

 -------------
 #p 6-31g* mp2
 -------------

 ------------------------------------------------------
 Input file generated by CHIRIPA (05-May-2021 14:57:23)
 ------------------------------------------------------
 Symbolic Z-matrix:
 Charge =  0 Multiplicity = 1

                         Standard orientation:
 ---------------------------------------------------------------------
 Center     Atomic      Atomic             Coordinates (Angstroms)
 Number     Number       Type             X           Y           Z
 ---------------------------------------------------------------------
      1          6           0        5.182923    1.261534    0.580460
      2          6           0        5.338130   -0.059168    0.146667
      3          6           0        4.237348   -0.790944   -0.308672
      4          6           0        2.990272   -0.168027   -0.316716
      5          6           0        2.803465    1.146163    0.109075
      6          6           0        3.918316    1.858932    0.560315
      7          1           0        6.043501    1.822613    0.932585
      8          1           0        6.319049   -0.525678    0.161199
      9          1           0        4.329118   -1.814851   -0.650154
     10          1           0        1.813081    1.584193    0.082867
     11          1           0        3.794805    2.884453    0.896611
     12          7           0        1.817477   -0.932664   -0.796593
     13          8           0        0.729401   -0.361070   -0.793784
     14          8           0        2.008523   -2.089102   -1.166443
     15          6           0       -2.377716   -2.185049    1.107548
     16          6           0       -3.472654   -2.127455    0.239035
     17          6           0       -3.927797   -0.899029   -0.249190
     18          6           0       -3.261469    0.257309    0.153525
     19          6           0       -2.167797    0.232630    1.017564
     20          6           0       -1.729924   -1.006900    1.493360
     21          1           0       -2.030858   -3.143632    1.481985
     22          1           0       -3.977673   -3.040804   -0.062286
     23          1           0       -4.773028   -0.825585   -0.922694
     24          1           0       -1.684754    1.160139    1.300082
     25          1           0       -0.879325   -1.048603    2.167740
     26          7           0       -3.734166    1.563666   -0.356758
     27          8           0       -3.129921    2.568018    0.013110
     28          8           0       -4.699961    1.558500   -1.116923
 ---------------------------------------------------------------------

 SCF Done:  E(RHF) =  -868.337923389     A.U. after   16 cycles
 E2 =    -0.2600268426D+01 EUMP2 =    -0.87093819181586D+03

 The electronic state is 1-A.
 Alpha  occ. eigenvalues --  -20.61247 -20.61210 -20.59958 -20.59942 -15.86255
 Alpha  occ. eigenvalues --  -15.84998 -11.31563 -11.30093 -11.28118 -11.28108
 Alpha  occ. eigenvalues --  -11.27826 -11.27110 -11.27089 -11.26680 -11.26661
 Alpha  occ. eigenvalues --  -11.26363 -11.25651 -11.25641  -1.60305  -1.59027
 Alpha  occ. eigenvalues --   -1.39861  -1.38592  -1.19724  -1.18240  -1.09130
 Alpha  occ. eigenvalues --   -1.07698  -1.05109  -1.03637  -0.95976  -0.94584
 Alpha  occ. eigenvalues --   -0.86511  -0.85073  -0.82809  -0.81448  -0.77871
 Alpha  occ. eigenvalues --   -0.76526  -0.72488  -0.71638  -0.71239  -0.70820
 Alpha  occ. eigenvalues --   -0.70330  -0.69417  -0.65372  -0.65101  -0.63936
 Alpha  occ. eigenvalues --   -0.63710  -0.62454  -0.61047  -0.55603  -0.54187
 Alpha  occ. eigenvalues --   -0.53454  -0.53193  -0.51920  -0.51796  -0.49251
 Alpha  occ. eigenvalues --   -0.49220  -0.47998  -0.47965  -0.45280  -0.44059
 Alpha  occ. eigenvalues --   -0.37706  -0.36715  -0.36178  -0.35105
 Alpha virt. eigenvalues --    0.04613   0.06066   0.10936   0.12462   0.16128
 Alpha virt. eigenvalues --    0.17639   0.21005   0.22302   0.26670   0.27528
 Alpha virt. eigenvalues --    0.28451   0.29242   0.30811   0.31622   0.32307

 Mulliken charges:
               1
     1  C   -0.170613
     2  C   -0.218463
     3  C   -0.171465
     4  C    0.157036
     5  C   -0.173324
     6  C   -0.218522
     7  H    0.227153
     8  H    0.224378
     9  H    0.275415
    10  H    0.276412
    11  H    0.226163
    12  N    0.488007
    13  O   -0.459679
    14  O   -0.461528
    15  C   -0.166578
    16  C   -0.217059
    17  C   -0.170837
    18  C    0.158782
    19  C   -0.157399
    20  C   -0.203907
    21  H    0.222820
    22  H    0.219978
    23  H    0.271972
    24  H    0.266284
    25  H    0.215239
    26  N    0.488736
    27  O   -0.466113
    28  O   -0.462886
 Sum of Mulliken charges =  -0.00000

 Dipole moment (field-independent basis, Debye):
    X=              6.0675    Y=             -1.9623    Z=              3.4375  Tot=              7.2444
 Quadrupole moment (field-independent basis, Debye-Ang):
   XX=            -87.8364   YY=           -104.7955   ZZ=           -105.4694
   XY=             22.7303   XZ=             -0.0537   YZ=              0.8342

 Normal termination of Gaussian 16 at Fri May  7 03:21:03 2021.
