 Gaussian 16, Revision A.03,
 Gaussian 16:  EM64L-G16RevA.03 25-Dec-2016

 -------------
 #p 6-31g* mp2
 -------------

 ------------------------------------------------------
 Input file generated by CHIRIPA (05-May-2021 14:57:24)
 ------------------------------------------------------
 Symbolic Z-matrix:
 Charge =  0 Multiplicity = 1

                         Standard orientation:
 ---------------------------------------------------------------------
 Center     Atomic      Atomic             Coordinates (Angstroms)
 Number     Number       Type             X           Y           Z
 ---------------------------------------------------------------------
      1          6           0       -2.319479    2.444853    0.867358
      2          6           0       -2.116496    1.344370    1.706558
      3          6           0       -2.462268    0.056913    1.285316
      4          6           0       -3.011264   -0.094369    0.012913
      5          6           0       -3.225742    0.982206   -0.846317
      6          6           0       -2.872479    2.260583   -0.404159
      7          1           0       -2.047966    3.441454    1.202713
      8          1           0       -1.687211    1.484488    2.694549
      9          1           0       -2.315927   -0.812571    1.914600
     10          1           0       -3.655597    0.811041   -1.825779
     11          1           0       -3.031251    3.113396   -1.058030
     12          7           0       -3.381282   -1.452536   -0.444108
     13          8           0       -3.863325   -1.559231   -1.569670
     14          8           0       -3.182253   -2.384655    0.331893
     15          6           0        5.467668    0.023604   -0.160681
     16          6           0        4.692808    0.831962   -0.998936
     17          6           0        3.297204    0.755574   -0.967301
     18          6           0        2.706908   -0.144272   -0.081232
     19          6           0        3.451596   -0.962942    0.766418
     20          6           0        4.845685   -0.869693    0.717773
     21          1           0        6.551218    0.089492   -0.191862
     22          1           0        5.173129    1.526617   -1.682157
     23          1           0        2.673222    1.369657   -1.605241
     24          1           0        2.944134   -1.645825    1.436918
     25          1           0        5.444924   -1.498702    1.369926
     26          7           0        1.230246   -0.234065   -0.038738
     27          8           0        0.734387   -1.034922    0.750813
     28          8           0        0.596659    0.498112   -0.795784
 ---------------------------------------------------------------------

 SCF Done:  E(RHF) =  -868.338122541     A.U. after   16 cycles
 E2 =    -0.2601358889D+01 EUMP2 =    -0.87093948142966D+03

 The electronic state is 1-A.
 Alpha  occ. eigenvalues --  -20.61111 -20.61099 -20.59236 -20.59207 -15.86123
 Alpha  occ. eigenvalues --  -15.84272 -11.31447 -11.29374 -11.28015 -11.27995
 Alpha  occ. eigenvalues --  -11.27736 -11.27013 -11.26995 -11.26102 -11.26000
 Alpha  occ. eigenvalues --  -11.25919 -11.25105 -11.25043  -1.60158  -1.58294
 Alpha  occ. eigenvalues --   -1.39716  -1.37858  -1.19612  -1.17599  -1.09016
 Alpha  occ. eigenvalues --   -1.07086  -1.05006  -1.03031  -0.95860  -0.93953
 Alpha  occ. eigenvalues --   -0.86406  -0.84479  -0.82693  -0.80825  -0.77748
 Alpha  occ. eigenvalues --   -0.75856  -0.72351  -0.71475  -0.70717  -0.70530
 Alpha  occ. eigenvalues --   -0.69583  -0.68864  -0.65265  -0.65008  -0.63338
 Alpha  occ. eigenvalues --   -0.63143  -0.62354  -0.60433  -0.55516  -0.53680
 Alpha  occ. eigenvalues --   -0.53343  -0.53097  -0.51509  -0.51215  -0.49111
 Alpha  occ. eigenvalues --   -0.48852  -0.47277  -0.47257  -0.45130  -0.43323
 Alpha  occ. eigenvalues --   -0.37593  -0.36609  -0.35587  -0.34517
 Alpha virt. eigenvalues --    0.04772   0.06735   0.11047   0.13085   0.16286
 Alpha virt. eigenvalues --    0.18204   0.21201   0.22818   0.27109   0.28087
 Alpha virt. eigenvalues --    0.28697   0.29713   0.30764   0.32248   0.32312

 Mulliken charges:
               1
     1  C   -0.167011
     2  C   -0.220733
     3  C   -0.146563
     4  C    0.163735
     5  C   -0.165170
     6  C   -0.215782
     7  H    0.216488
     8  H    0.214903
     9  H    0.274135
    10  H    0.269513
    11  H    0.214830
    12  N    0.488602
    13  O   -0.467908
    14  O   -0.461880
    15  C   -0.170581
    16  C   -0.218549
    17  C   -0.171142
    18  C    0.158587
    19  C   -0.170961
    20  C   -0.218518
    21  H    0.226403
    22  H    0.223743
    23  H    0.274794
    24  H    0.276472
    25  H    0.224497
    26  N    0.488850
    27  O   -0.461359
    28  O   -0.459396
 Sum of Mulliken charges =  -0.00000

 Dipole moment (field-independent basis, Debye):
    X=              6.8525    Y=              4.9181    Z=              1.4689  Tot=              8.5617
 Quadrupole moment (field-independent basis, Debye-Ang):
   XX=            -86.1369   YY=           -104.3481   ZZ=            -99.3553
   XY=            -15.1240   XZ=             -3.9934   YZ=             -5.2204

 Normal termination of Gaussian 16 at Fri May  7 11:05:58 2021.
