 Gaussian 16, Revision A.03,
 Gaussian 16:  EM64L-G16RevA.03 25-Dec-2016

 -------------
 #p 6-31g* mp2
 -------------

 ------------------------------------------------------
 Input file generated by CHIRIPA (05-May-2021 14:51:11)
 ------------------------------------------------------
 Symbolic Z-matrix:
 Charge =  0 Multiplicity = 1

                         Standard orientation:
 ---------------------------------------------------------------------
 Center     Atomic      Atomic             Coordinates (Angstroms)
 Number     Number       Type             X           Y           Z
 ---------------------------------------------------------------------
      1          6           0       -3.264612   -0.637757   -0.327784
      2          6           0       -2.086775   -1.487433   -0.806045
      3          6           0       -2.486363   -2.930156   -1.116967
      4          1           0       -3.701971   -1.099747    0.567888
      5          1           0       -4.048809   -0.644256   -1.097451
      6          1           0       -1.304459   -1.478204   -0.036296
      7          1           0       -1.652049   -1.023263   -1.700570
      8          1           0       -3.250007   -2.957957   -1.900980
      9          1           0       -2.900442   -3.415483   -0.227250
     10          1           0       -1.629283   -3.519701   -1.457128
     11          6           0       -2.880977    0.807040   -0.012962
     12          6           0       -4.058814    1.656717    0.465298
     13          6           0       -3.659225    3.099440    0.776221
     14          1           0       -2.096779    0.813540    0.756705
     15          1           0       -2.443618    1.269030   -0.908634
     16          1           0       -4.493540    1.192547    1.359824
     17          1           0       -4.841130    1.647487   -0.304451
     18          1           0       -3.245147    3.584767   -0.113497
     19          1           0       -2.895582    3.127241    1.560234
     20          1           0       -4.516306    3.688985    1.116382
     21          6           0        3.144055   -0.831221    0.315192
     22          6           0        1.866910   -1.466717    0.865676
     23          6           0        2.025232   -2.960586    1.150428
     24          1           0        3.437670   -1.352482   -0.606232
     25          1           0        3.960660   -0.983817    1.034404
     26          1           0        1.052630   -1.311763    0.146265
     27          1           0        1.576196   -0.943759    1.785794
     28          1           0        2.818781   -3.130713    1.885232
     29          1           0        2.292241   -3.500808    0.236388
     30          1           0        1.100454   -3.394635    1.543171
     31          6           0        3.001534    0.661938    0.025555
     32          6           0        4.278678    1.297434   -0.524930
     33          6           0        4.120357    2.791303   -0.809681
     34          1           0        2.184929    0.814533   -0.693658
     35          1           0        2.707918    1.183198    0.946979
     36          1           0        4.569394    0.774476   -1.445047
     37          1           0        5.092960    1.142479    0.194481
     38          1           0        3.853349    3.331524    0.104358
     39          1           0        3.326808    2.961429   -1.544485
     40          1           0        5.045135    3.225351   -1.202425
 ---------------------------------------------------------------------

 SCF Done:  E(RHF) =  -470.733278045     A.U. after   11 cycles
 E2 =    -0.1582816777D+01 EUMP2 =    -0.47231609482151D+03

 The electronic state is 1-A.
 Alpha  occ. eigenvalues --  -11.21597 -11.21590 -11.21590 -11.21565 -11.21402
 Alpha  occ. eigenvalues --  -11.21389 -11.21342 -11.21330 -11.21080 -11.21076
 Alpha  occ. eigenvalues --  -11.21064 -11.21060  -1.08440  -1.08408  -1.03554
 Alpha  occ. eigenvalues --   -1.03500  -0.95985  -0.95963  -0.87003  -0.86978
 Alpha  occ. eigenvalues --   -0.79692  -0.79508  -0.78319  -0.78153  -0.65115
 Alpha  occ. eigenvalues --   -0.65002  -0.61034  -0.60835  -0.59417  -0.59269
 Alpha  occ. eigenvalues --   -0.57644  -0.57525  -0.55285  -0.55235  -0.52686
 Alpha  occ. eigenvalues --   -0.52652  -0.52416  -0.52384  -0.49965  -0.49880
 Alpha  occ. eigenvalues --   -0.48119  -0.47780  -0.46814  -0.46471  -0.45972
 Alpha  occ. eigenvalues --   -0.45759  -0.45722  -0.45344  -0.43791  -0.43760
 Alpha virt. eigenvalues --    0.21644   0.23146   0.23529   0.24934   0.25870
 Alpha virt. eigenvalues --    0.26516   0.27004   0.27586   0.28330   0.28959
 Alpha virt. eigenvalues --    0.30731   0.31085   0.31643   0.31770   0.32201

 Mulliken charges:
               1
     1  C   -0.297541
     2  C   -0.307387
     3  C   -0.475494
     4  H    0.149552
     5  H    0.149435
     6  H    0.160331
     7  H    0.150804
     8  H    0.155206
     9  H    0.155103
    10  H    0.160357
    11  C   -0.298565
    12  C   -0.299646
    13  C   -0.475677
    14  H    0.150149
    15  H    0.149332
    16  H    0.151905
    17  H    0.151884
    18  H    0.155194
    19  H    0.155263
    20  H    0.160199
    21  C   -0.297549
    22  C   -0.307145
    23  C   -0.475909
    24  H    0.149522
    25  H    0.149328
    26  H    0.159883
    27  H    0.150836
    28  H    0.155300
    29  H    0.155134
    30  H    0.160160
    31  C   -0.298422
    32  C   -0.299651
    33  C   -0.475668
    34  H    0.150018
    35  H    0.149450
    36  H    0.151872
    37  H    0.151869
    38  H    0.155202
    39  H    0.155185
    40  H    0.160179
 Sum of Mulliken charges =  -0.00000

 Dipole moment (field-independent basis, Debye):
    X=             -0.0068    Y=              0.0006    Z=             -0.0005  Tot=              0.0068
 Quadrupole moment (field-independent basis, Debye-Ang):
   XX=            -84.7715   YY=            -87.0302   ZZ=            -83.0736
   XY=             -0.1687   XZ=              0.4233   YZ=             -0.0543

 Normal termination of Gaussian 16 at Thu May  6 07:02:45 2021.
