 Gaussian 16, Revision A.03,
 Gaussian 16:  EM64L-G16RevA.03 25-Dec-2016

 -------------
 #p 6-31g* mp2
 -------------

 ------------------------------------------------------
 Input file generated by CHIRIPA (05-May-2021 14:51:07)
 ------------------------------------------------------
 Symbolic Z-matrix:
 Charge =  0 Multiplicity = 1

                         Standard orientation:
 ---------------------------------------------------------------------
 Center     Atomic      Atomic             Coordinates (Angstroms)
 Number     Number       Type             X           Y           Z
 ---------------------------------------------------------------------
      1          6           0       -3.707310    0.127317    0.182024
      2          6           0       -4.983228   -0.088485   -0.632500
      3          6           0       -5.933433    1.107796   -0.570715
      4          1           0       -3.977170    0.329425    1.227621
      5          1           0       -3.192459    1.025148   -0.187060
      6          1           0       -5.494805   -0.986427   -0.262899
      7          1           0       -4.710291   -0.290293   -1.676241
      8          1           0       -5.445464    2.007801   -0.958631
      9          1           0       -6.234435    1.307711    0.462742
     10          1           0       -6.838919    0.932115   -1.159860
     11          6           0       -2.747362   -1.059920    0.130102
     12          6           0       -1.471444   -0.844119    0.944626
     13          6           0       -0.521239   -2.040399    0.882841
     14          1           0       -3.262213   -1.957751    0.499186
     15          1           0       -2.477502   -1.262029   -0.915495
     16          1           0       -1.744381   -0.642311    1.988367
     17          1           0       -0.959868    0.053824    0.575025
     18          1           0       -0.220238   -2.240314   -0.150616
     19          1           0       -1.009209   -2.940404    1.270757
     20          1           0        0.384247   -1.864719    1.471986
     21          6           0        2.702419    1.014883   -0.072685
     22          6           0        3.304965    2.409886    0.097287
     23          6           0        2.242291    3.496658    0.262957
     24          1           0        2.035961    1.014209   -0.946057
     25          1           0        2.074820    0.785394    0.799582
     26          1           0        3.932346    2.636117   -0.774394
     27          1           0        3.970213    2.407188    0.970243
     28          1           0        1.622256    3.298181    1.143165
     29          1           0        1.584173    3.528411   -0.611385
     30          1           0        2.694997    4.485861    0.382934
     31          6           0        3.752253   -0.082280   -0.239441
     32          6           0        3.149708   -1.477283   -0.409413
     33          6           0        4.212381   -2.564054   -0.575083
     34          1           0        4.379852    0.147209   -1.111707
     35          1           0        4.418711   -0.081606    0.633932
     36          1           0        2.484459   -1.474585   -1.282369
     37          1           0        2.522326   -1.703514    0.462268
     38          1           0        4.870499   -2.595808    0.299259
     39          1           0        4.832417   -2.365577   -1.455290
     40          1           0        3.759675   -3.553257   -0.695059
 ---------------------------------------------------------------------

 SCF Done:  E(RHF) =  -470.732821592     A.U. after   11 cycles
 E2 =    -0.1583301914D+01 EUMP2 =    -0.47231612350619D+03

 The electronic state is 1-A.
 Alpha  occ. eigenvalues --  -11.21612 -11.21589 -11.21560 -11.21503 -11.21403
 Alpha  occ. eigenvalues --  -11.21386 -11.21334 -11.21326 -11.21086 -11.21060
 Alpha  occ. eigenvalues --  -11.21023 -11.21011  -1.08433  -1.08393  -1.03536
 Alpha  occ. eigenvalues --   -1.03480  -0.95971  -0.95953  -0.87025  -0.86936
 Alpha  occ. eigenvalues --   -0.79683  -0.79466  -0.78232  -0.78219  -0.65077
 Alpha  occ. eigenvalues --   -0.65021  -0.60943  -0.60891  -0.59434  -0.59234
 Alpha  occ. eigenvalues --   -0.57589  -0.57559  -0.55257  -0.55244  -0.52758
 Alpha  occ. eigenvalues --   -0.52606  -0.52388  -0.52369  -0.49937  -0.49881
 Alpha  occ. eigenvalues --   -0.47941  -0.47844  -0.46636  -0.46533  -0.45842
 Alpha  occ. eigenvalues --   -0.45703  -0.45694  -0.45633  -0.43782  -0.43687
 Alpha virt. eigenvalues --    0.21217   0.23164   0.23863   0.24197   0.25637
 Alpha virt. eigenvalues --    0.26298   0.27280   0.27513   0.27939   0.29500
 Alpha virt. eigenvalues --    0.30121   0.31059   0.31705   0.32058   0.32252

 Mulliken charges:
               1
     1  C   -0.298317
     2  C   -0.299618
     3  C   -0.475691
     4  H    0.149574
     5  H    0.149697
     6  H    0.151879
     7  H    0.151835
     8  H    0.155211
     9  H    0.155168
    10  H    0.160184
    11  C   -0.298465
    12  C   -0.301766
    13  C   -0.477650
    14  H    0.149429
    15  H    0.149503
    16  H    0.151238
    17  H    0.154379
    18  H    0.157557
    19  H    0.154281
    20  H    0.161523
    21  C   -0.300251
    22  C   -0.299581
    23  C   -0.475834
    24  H    0.149191
    25  H    0.151361
    26  H    0.152059
    27  H    0.152018
    28  H    0.155390
    29  H    0.154786
    30  H    0.160397
    31  C   -0.298215
    32  C   -0.304438
    33  C   -0.475521
    34  H    0.149235
    35  H    0.149262
    36  H    0.150906
    37  H    0.159519
    38  H    0.154731
    39  H    0.154679
    40  H    0.160352
 Sum of Mulliken charges =  -0.00000

 Dipole moment (field-independent basis, Debye):
    X=              0.0001    Y=             -0.0050    Z=              0.0071  Tot=              0.0087
 Quadrupole moment (field-independent basis, Debye-Ang):
   XX=            -85.7883   YY=            -86.0484   ZZ=            -83.0951
   XY=              1.3821   XZ=             -0.2497   YZ=             -0.5500

 Normal termination of Gaussian 16 at Wed May  5 19:38:25 2021.
