 Gaussian 16, Revision A.03,
 Gaussian 16:  EM64L-G16RevA.03 25-Dec-2016

 -------------
 #p 6-31g* mp2
 -------------

 ------------------------------------------------------
 Input file generated by CHIRIPA (05-May-2021 14:57:24)
 ------------------------------------------------------
 Symbolic Z-matrix:
 Charge =  0 Multiplicity = 1

                         Standard orientation:
 ---------------------------------------------------------------------
 Center     Atomic      Atomic             Coordinates (Angstroms)
 Number     Number       Type             X           Y           Z
 ---------------------------------------------------------------------
      1          6           0        5.529629    1.377925    0.079303
      2          6           0        4.892170    1.032999   -1.117021
      3          6           0        3.868147    0.081251   -1.127116
      4          6           0        3.505285   -0.508422    0.082804
      5          6           0        4.121307   -0.185941    1.291031
      6          6           0        5.142845    0.768429    1.277399
      7          1           0        6.324150    2.118284    0.077929
      8          1           0        5.190470    1.504715   -2.048979
      9          1           0        3.357798   -0.204465   -2.038888
     10          1           0        3.802018   -0.673307    2.204238
     11          1           0        5.636139    1.034344    2.207988
     12          7           0        2.422513   -1.517383    0.084677
     13          8           0        2.121344   -2.022419    1.163970
     14          8           0        1.895508   -1.784065   -0.993183
     15          6           0       -1.423176    1.346342   -0.579835
     16          6           0       -1.715865    0.042206   -0.992249
     17          6           0       -2.965095   -0.524372   -0.722135
     18          6           0       -3.902282    0.245050   -0.034415
     19          6           0       -3.640682    1.547009    0.389564
     20          6           0       -2.384824    2.093264    0.108542
     21          1           0       -0.450170    1.778579   -0.793902
     22          1           0       -0.970972   -0.540198   -1.527025
     23          1           0       -3.218167   -1.531681   -1.029871
     24          1           0       -4.403622    2.102975    0.920830
     25          1           0       -2.160293    3.106314    0.430039
     26          7           0       -5.228294   -0.344003    0.257317
     27          8           0       -6.036739    0.354631    0.864741
     28          8           0       -5.434068   -1.493184   -0.126972
 ---------------------------------------------------------------------

 SCF Done:  E(RHF) =  -868.339137198     A.U. after   16 cycles
 E2 =    -0.2598832702D+01 EUMP2 =    -0.87093796990011D+03

 The electronic state is 1-A.
 Alpha  occ. eigenvalues --  -20.61752 -20.61680 -20.60185 -20.60171 -15.86749
 Alpha  occ. eigenvalues --  -15.85227 -11.31999 -11.30509 -11.28571 -11.28513
 Alpha  occ. eigenvalues --  -11.28239 -11.27533 -11.27495 -11.27097 -11.26963
 Alpha  occ. eigenvalues --  -11.26807 -11.26155 -11.25887  -1.60779  -1.59256
 Alpha  occ. eigenvalues --   -1.40337  -1.38812  -1.20154  -1.18658  -1.09564
 Alpha  occ. eigenvalues --   -1.08084  -1.05532  -1.04028  -0.96419  -0.94938
 Alpha  occ. eigenvalues --   -0.86933  -0.85438  -0.83251  -0.81754  -0.78321
 Alpha  occ. eigenvalues --   -0.76803  -0.72966  -0.72097  -0.71450  -0.71243
 Alpha  occ. eigenvalues --   -0.70575  -0.69810  -0.65801  -0.65520  -0.64311
 Alpha  occ. eigenvalues --   -0.64005  -0.62876  -0.61359  -0.56018  -0.54591
 Alpha  occ. eigenvalues --   -0.53876  -0.53612  -0.52387  -0.52101  -0.49737
 Alpha  occ. eigenvalues --   -0.49704  -0.48209  -0.48199  -0.45757  -0.44235
 Alpha  occ. eigenvalues --   -0.38123  -0.37137  -0.36668  -0.35616
 Alpha virt. eigenvalues --    0.04168   0.05696   0.10514   0.12022   0.15668
 Alpha virt. eigenvalues --    0.17213   0.20699   0.22158   0.26632   0.27464
 Alpha virt. eigenvalues --    0.28291   0.28836   0.30355   0.31626   0.31920

 Mulliken charges:
               1
     1  C   -0.170497
     2  C   -0.218747
     3  C   -0.174127
     4  C    0.157029
     5  C   -0.170662
     6  C   -0.218558
     7  H    0.228126
     8  H    0.225135
     9  H    0.273834
    10  H    0.277940
    11  H    0.226251
    12  N    0.488572
    13  O   -0.453398
    14  O   -0.468166
    15  C   -0.173245
    16  C   -0.221091
    17  C   -0.171074
    18  C    0.158654
    19  C   -0.172708
    20  C   -0.218233
    21  H    0.219941
    22  H    0.240704
    23  H    0.277398
    24  H    0.272877
    25  H    0.219027
    26  N    0.488068
    27  O   -0.463078
    28  O   -0.459970
 Sum of Mulliken charges =  -0.00000

 Dipole moment (field-independent basis, Debye):
    X=              8.8437    Y=              5.4828    Z=             -0.9775  Tot=             10.4512
 Quadrupole moment (field-independent basis, Debye-Ang):
   XX=           -115.1503   YY=           -104.8438   ZZ=            -99.3556
   XY=              2.9407   XZ=              4.5193   YZ=              1.5042

 Normal termination of Gaussian 16 at Fri May  7 01:54:56 2021.
