 Gaussian 16, Revision A.03,
 Gaussian 16:  EM64L-G16RevA.03 25-Dec-2016

 -------------
 #p 6-31g* mp2
 -------------

 ------------------------------------------------------
 Input file generated by CHIRIPA (05-May-2021 14:53:18)
 ------------------------------------------------------
 Symbolic Z-matrix:
 Charge =  0 Multiplicity = 1

                         Standard orientation:
 ---------------------------------------------------------------------
 Center     Atomic      Atomic             Coordinates (Angstroms)
 Number     Number       Type             X           Y           Z
 ---------------------------------------------------------------------
      1          6           0        4.547553   -0.410588   -0.178553
      2          6           0        4.159634   -1.869543    0.064255
      3          6           0        5.208636   -2.854157   -0.453357
      4          1           0        4.700990   -0.252878   -1.254903
      5          1           0        5.512218   -0.209184    0.307506
      6          1           0        3.195319   -2.067762   -0.420949
      7          1           0        4.006915   -2.023751    1.140132
      8          1           0        6.171793   -2.685021    0.038905
      9          1           0        5.355585   -2.729282   -1.531045
     10          1           0        4.911125   -3.891232   -0.269445
     11          6           0        3.508805    0.585723    0.333397
     12          6           0        3.896724    2.044677    0.090589
     13          6           0        2.847722    3.029292    0.608201
     14          1           0        2.544140    0.384319   -0.152662
     15          1           0        3.355368    0.428013    1.409747
     16          1           0        4.049443    2.198886   -0.985288
     17          1           0        4.861039    2.242897    0.575793
     18          1           0        2.700772    2.904416    1.685889
     19          1           0        1.884565    2.860156    0.115938
     20          1           0        3.145233    4.066367    0.424289
     21          6           0       -0.765129    0.712596   -0.347834
     22          6           0       -1.824573    1.540037   -0.734411
     23          6           0       -3.148290    1.117638   -0.579816
     24          6           0       -3.377287   -0.143917   -0.032706
     25          6           0       -2.343158   -0.991301    0.362021
     26          6           0       -1.027340   -0.548209    0.198185
     27          1           0        0.260098    1.048762   -0.471516
     28          1           0       -1.623918    2.519693   -1.158743
     29          1           0       -3.987377    1.737936   -0.870644
     30          1           0       -2.574611   -1.962622    0.781998
     31          1           0       -0.206543   -1.192937    0.499291
     32          7           0       -4.774465   -0.602044    0.135848
     33          8           0       -4.949676   -1.717906    0.620401
     34          8           0       -5.667909    0.163412   -0.219783
 ---------------------------------------------------------------------

 SCF Done:  E(RHF) =  -669.535186747     A.U. after   15 cycles
 E2 =    -0.2091891690D+01 EUMP2 =    -0.67162707843704D+03

 The electronic state is 1-A.
 Alpha  occ. eigenvalues --  -20.60712 -20.60707 -15.85765 -11.31118 -11.27688
 Alpha  occ. eigenvalues --  -11.27684 -11.27384 -11.26697 -11.26679 -11.22705
 Alpha  occ. eigenvalues --  -11.22631 -11.22520 -11.22343 -11.22252 -11.21779
 Alpha  occ. eigenvalues --   -1.59788  -1.39341  -1.19288  -1.09499  -1.08683
 Alpha  occ. eigenvalues --   -1.04690  -1.04530  -0.96981  -0.95525  -0.87991
 Alpha  occ. eigenvalues --   -0.86086  -0.82364  -0.80600  -0.79329  -0.77405
 Alpha  occ. eigenvalues --   -0.71983  -0.71111  -0.70438  -0.66129  -0.64939
 Alpha  occ. eigenvalues --   -0.64688  -0.62040  -0.61925  -0.60356  -0.58591
 Alpha  occ. eigenvalues --   -0.56288  -0.55223  -0.53634  -0.53408  -0.53017
 Alpha  occ. eigenvalues --   -0.52779  -0.50931  -0.48902  -0.48739  -0.48736
 Alpha  occ. eigenvalues --   -0.47622  -0.46835  -0.46755  -0.44796  -0.44750
 Alpha  occ. eigenvalues --   -0.37260  -0.36297
 Alpha virt. eigenvalues --    0.05122   0.11350   0.16588   0.18693   0.22424
 Alpha virt. eigenvalues --    0.23018   0.24957   0.25646   0.26360   0.27988
 Alpha virt. eigenvalues --    0.29458   0.30388   0.30855   0.31055   0.31497

 Mulliken charges:
               1
     1  C   -0.298139
     2  C   -0.300750
     3  C   -0.476215
     4  H    0.151942
     5  H    0.153746
     6  H    0.147905
     7  H    0.152880
     8  H    0.157426
     9  H    0.156920
    10  H    0.162616
    11  C   -0.303130
    12  C   -0.301300
    13  C   -0.477491
    14  H    0.139941
    15  H    0.153065
    16  H    0.153814
    17  H    0.157451
    18  H    0.159956
    19  H    0.145202
    20  H    0.165862
    21  C   -0.178613
    22  C   -0.220645
    23  C   -0.170724
    24  C    0.158164
    25  C   -0.170766
    26  C   -0.222741
    27  H    0.238490
    28  H    0.223191
    29  H    0.275323
    30  H    0.275365
    31  H    0.224521
    32  N    0.487981
    33  O   -0.460634
    34  O   -0.460612
 Sum of Mulliken charges =  -0.00000

 Dipole moment (field-independent basis, Debye):
    X=              5.2483    Y=              1.6295    Z=             -0.5439  Tot=              5.5223
 Quadrupole moment (field-independent basis, Debye-Ang):
   XX=           -126.9134   YY=            -91.9762   ZZ=            -93.9410
   XY=             -7.1837   XZ=              3.3619   YZ=             -2.0457

 Normal termination of Gaussian 16 at Thu May  6 19:01:54 2021.
