 Gaussian 16, Revision A.03,
 Gaussian 16:  EM64L-G16RevA.03 25-Dec-2016

 -------------
 #p 6-31g* mp2
 -------------

 ------------------------------------------------------
 Input file generated by CHIRIPA (05-May-2021 14:55:23)
 ------------------------------------------------------
 Symbolic Z-matrix:
 Charge =  0 Multiplicity = 1

                         Standard orientation:
 ---------------------------------------------------------------------
 Center     Atomic      Atomic             Coordinates (Angstroms)
 Number     Number       Type             X           Y           Z
 ---------------------------------------------------------------------
      1          6           0        1.125419   -2.150962    0.772858
      2          6           0        2.459593   -2.180717    1.191923
      3          6           0        3.365859   -1.214484    0.745132
      4          6           0        2.901800   -0.228416   -0.124125
      5          6           0        1.578760   -0.172007   -0.559641
      6          6           0        0.690028   -1.148469   -0.100048
      7          1           0        0.428220   -2.905528    1.124908
      8          1           0        2.800523   -2.958088    1.869792
      9          1           0        4.404230   -1.213905    1.053684
     10          1           0        1.268404    0.615332   -1.235803
     11          1           0       -0.345532   -1.122885   -0.427163
     12          7           0        3.851942    0.799907   -0.603899
     13          8           0        3.418199    1.658151   -1.369353
     14          8           0        5.012415    0.728190   -0.205406
     15          6           0       -3.539783    1.266574    0.154136
     16          6           0       -2.251955    1.847811    0.738644
     17          6           0       -2.319225    3.363811    0.925767
     18          1           0       -3.746510    1.747842   -0.811570
     19          1           0       -4.380587    1.518406    0.815214
     20          1           0       -1.413621    1.593775    0.077374
     21          1           0       -2.048167    1.364966    1.702981
     22          1           0       -3.136654    3.632522    1.602675
     23          1           0       -2.498502    3.862631   -0.032168
     24          1           0       -1.388245    3.758316    1.344697
     25          6           0       -3.487941   -0.247962   -0.038803
     26          6           0       -4.775768   -0.829199   -0.623310
     27          6           0       -4.708499   -2.345198   -0.810432
     28          1           0       -2.647136   -0.499793   -0.699880
     29          1           0       -3.281214   -0.729229    0.926904
     30          1           0       -4.979557   -0.346354   -1.587647
     31          1           0       -5.614103   -0.575163    0.037960
     32          1           0       -4.529222   -2.844019    0.147502
     33          1           0       -3.891070   -2.613909   -1.487341
     34          1           0       -5.639479   -2.739703   -1.229362
 ---------------------------------------------------------------------

 SCF Done:  E(RHF) =  -669.535482170     A.U. after   15 cycles
 E2 =    -0.2091968924D+01 EUMP2 =    -0.67162745109382D+03

 The electronic state is 1-A.
 Alpha  occ. eigenvalues --  -20.60726 -20.60721 -15.85778 -11.31131 -11.27697
 Alpha  occ. eigenvalues --  -11.27688 -11.27420 -11.26716 -11.26652 -11.22409
 Alpha  occ. eigenvalues --  -11.22348 -11.22206 -11.22057 -11.21856 -11.21422
 Alpha  occ. eigenvalues --   -1.59802  -1.39355  -1.19297  -1.09200  -1.08692
 Alpha  occ. eigenvalues --   -1.04698  -1.04190  -0.96647  -0.95532  -0.87655
 Alpha  occ. eigenvalues --   -0.86096  -0.82370  -0.80271  -0.79054  -0.77407
 Alpha  occ. eigenvalues --   -0.71997  -0.71124  -0.70406  -0.65858  -0.64948
 Alpha  occ. eigenvalues --   -0.64689  -0.62054  -0.61578  -0.60014  -0.58259
 Alpha  occ. eigenvalues --   -0.55945  -0.55197  -0.53302  -0.53109  -0.53020
 Alpha  occ. eigenvalues --   -0.52760  -0.50582  -0.48763  -0.48753  -0.48574
 Alpha  occ. eigenvalues --   -0.47316  -0.46529  -0.46478  -0.44764  -0.44476
 Alpha  occ. eigenvalues --   -0.37274  -0.36284
 Alpha virt. eigenvalues --    0.05093   0.11340   0.16523   0.19564   0.22737
 Alpha virt. eigenvalues --    0.23481   0.24558   0.26225   0.27178   0.27881
 Alpha virt. eigenvalues --    0.29300   0.30747   0.31233   0.31260   0.31818

 Mulliken charges:
               1
     1  C   -0.173930
     2  C   -0.218403
     3  C   -0.171388
     4  C    0.158630
     5  C   -0.174212
     6  C   -0.223053
     7  H    0.226128
     8  H    0.223103
     9  H    0.275318
    10  H    0.275103
    11  H    0.234790
    12  N    0.488150
    13  O   -0.460679
    14  O   -0.460674
    15  C   -0.298649
    16  C   -0.300330
    17  C   -0.476536
    18  H    0.152305
    19  H    0.152892
    20  H    0.146591
    21  H    0.152943
    22  H    0.156094
    23  H    0.157223
    24  H    0.164944
    25  C   -0.303383
    26  C   -0.299119
    27  C   -0.476537
    28  H    0.142483
    29  H    0.148878
    30  H    0.155014
    31  H    0.155468
    32  H    0.153883
    33  H    0.152639
    34  H    0.164316
 Sum of Mulliken charges =  -0.00000

 Dipole moment (field-independent basis, Debye):
    X=             -3.5485    Y=             -3.5301    Z=              1.7389  Tot=              5.2989
 Quadrupole moment (field-independent basis, Debye-Ang):
   XX=           -110.9318   YY=            -93.5965   ZZ=            -93.4638
   XY=            -11.8468   XZ=              7.2625   YZ=             -1.5694

 Normal termination of Gaussian 16 at Thu May  6 07:54:19 2021.
