 Gaussian 16, Revision A.03,
 Gaussian 16:  EM64L-G16RevA.03 25-Dec-2016

 -------------
 #p 6-31g* mp2
 -------------

 ------------------------------------------------------
 Input file generated by CHIRIPA (05-May-2021 14:51:09)
 ------------------------------------------------------
 Symbolic Z-matrix:
 Charge =  0 Multiplicity = 1

                         Standard orientation:
 ---------------------------------------------------------------------
 Center     Atomic      Atomic             Coordinates (Angstroms)
 Number     Number       Type             X           Y           Z
 ---------------------------------------------------------------------
      1          6           0       -3.804556   -0.399911   -0.201854
      2          6           0       -2.802464   -1.547732   -0.329546
      3          6           0       -3.479967   -2.907495   -0.502255
      4          1           0       -4.466263   -0.592774    0.653653
      5          1           0       -4.445166   -0.380697   -1.094403
      6          1           0       -2.163030   -1.563915    0.562350
      7          1           0       -2.142943   -1.352019   -1.184732
      8          1           0       -4.103726   -2.915611   -1.401955
      9          1           0       -4.123928   -3.128710    0.355054
     10          1           0       -2.745167   -3.713690   -0.591586
     11          6           0       -3.142465    0.965865   -0.028592
     12          6           0       -4.144557    2.113686    0.099100
     13          6           0       -3.467054    3.473450    0.271809
     14          1           0       -2.501855    0.946651    0.863957
     15          1           0       -2.480758    1.158729   -0.884099
     16          1           0       -4.804078    1.917973    0.954286
     17          1           0       -4.783991    2.129869   -0.792796
     18          1           0       -2.823093    3.694665   -0.585500
     19          1           0       -2.843295    3.481565    1.171509
     20          1           0       -4.201854    4.279644    0.361140
     21          6           0        3.164371   -0.979920    0.161438
     22          6           0        1.695285   -0.964744    0.585161
     23          6           0        1.090894   -2.366446    0.673115
     24          1           0        3.253402   -1.480918   -0.812225
     25          1           0        3.739030   -1.583751    0.877364
     26          1           0        1.123803   -0.359980   -0.130579
     27          1           0        1.609718   -0.463554    1.557839
     28          1           0        1.635616   -2.975836    1.401485
     29          1           0        1.146941   -2.871674   -0.296527
     30          1           0        0.040190   -2.332215    0.977600
     31          6           0        3.782650    0.413965    0.069008
     32          6           0        5.251736    0.398789   -0.354715
     33          6           0        5.856127    1.800492   -0.442669
     34          1           0        3.207990    1.017796   -0.646918
     35          1           0        3.693619    0.914963    1.042672
     36          1           0        5.337303   -0.102401   -1.327393
     37          1           0        5.823218   -0.205974    0.361026
     38          1           0        5.800081    2.305718    0.526973
     39          1           0        5.311405    2.409881   -1.171040
     40          1           0        6.906831    1.766260   -0.747153
 ---------------------------------------------------------------------

 SCF Done:  E(RHF) =  -470.733211252     A.U. after   11 cycles
 E2 =    -0.1582705513D+01 EUMP2 =    -0.47231591676448D+03

 The electronic state is 1-A.
 Alpha  occ. eigenvalues --  -11.21604 -11.21598 -11.21587 -11.21559 -11.21408
 Alpha  occ. eigenvalues --  -11.21382 -11.21348 -11.21322 -11.21071 -11.21067
 Alpha  occ. eigenvalues --  -11.21060 -11.20994  -1.08439  -1.08400  -1.03550
 Alpha  occ. eigenvalues --   -1.03483  -0.95992  -0.95937  -0.87006  -0.86957
 Alpha  occ. eigenvalues --   -0.79629  -0.79532  -0.78255  -0.78212  -0.65072
 Alpha  occ. eigenvalues --   -0.65034  -0.60953  -0.60897  -0.59506  -0.59184
 Alpha  occ. eigenvalues --   -0.57681  -0.57462  -0.55267  -0.55233  -0.52717
 Alpha  occ. eigenvalues --   -0.52615  -0.52428  -0.52352  -0.49919  -0.49889
 Alpha  occ. eigenvalues --   -0.48007  -0.47782  -0.46619  -0.46594  -0.45800
 Alpha  occ. eigenvalues --   -0.45753  -0.45706  -0.45668  -0.43804  -0.43703
 Alpha virt. eigenvalues --    0.21532   0.23118   0.23511   0.24898   0.25988
 Alpha virt. eigenvalues --    0.26422   0.27039   0.27293   0.28226   0.29036
 Alpha virt. eigenvalues --    0.30165   0.31311   0.31638   0.31764   0.32241

 Mulliken charges:
               1
     1  C   -0.297795
     2  C   -0.303648
     3  C   -0.476447
     4  H    0.149560
     5  H    0.149482
     6  H    0.155607
     7  H    0.152322
     8  H    0.155240
     9  H    0.155024
    10  H    0.161276
    11  C   -0.298370
    12  C   -0.299647
    13  C   -0.475686
    14  H    0.149840
    15  H    0.149322
    16  H    0.151957
    17  H    0.151913
    18  H    0.155114
    19  H    0.155317
    20  H    0.160240
    21  C   -0.298251
    22  C   -0.299866
    23  C   -0.480466
    24  H    0.149498
    25  H    0.149426
    26  H    0.152910
    27  H    0.151215
    28  H    0.154341
    29  H    0.154659
    30  H    0.166084
    31  C   -0.298202
    32  C   -0.299631
    33  C   -0.475680
    34  H    0.149496
    35  H    0.149581
    36  H    0.151866
    37  H    0.151887
    38  H    0.155170
    39  H    0.155154
    40  H    0.160188
 Sum of Mulliken charges =  -0.00000

 Dipole moment (field-independent basis, Debye):
    X=             -0.0230    Y=             -0.0008    Z=             -0.0022  Tot=              0.0231
 Quadrupole moment (field-independent basis, Debye-Ang):
   XX=            -85.2538   YY=            -86.8031   ZZ=            -82.7803
   XY=             -0.8720   XZ=              0.2694   YZ=             -0.2065

 Normal termination of Gaussian 16 at Wed May  5 21:20:36 2021.
