 Gaussian 16, Revision A.03,
 Gaussian 16:  EM64L-G16RevA.03 25-Dec-2016

 -------------
 #p 6-31g* mp2
 -------------

 ------------------------------------------------------
 Input file generated by CHIRIPA (05-May-2021 14:55:20)
 ------------------------------------------------------
 Symbolic Z-matrix:
 Charge =  0 Multiplicity = 1

                         Standard orientation:
 ---------------------------------------------------------------------
 Center     Atomic      Atomic             Coordinates (Angstroms)
 Number     Number       Type             X           Y           Z
 ---------------------------------------------------------------------
      1          6           0       -2.095878    2.285503    0.761896
      2          6           0       -3.294714    2.015432    0.093784
      3          6           0       -3.629404    0.705679   -0.262695
      4          6           0       -2.737986   -0.314437    0.065983
      5          6           0       -1.536074   -0.077336    0.731173
      6          6           0       -1.221924    1.240100    1.077901
      7          1           0       -1.843861    3.305935    1.035029
      8          1           0       -3.975350    2.825322   -0.152909
      9          1           0       -4.550901    0.468383   -0.780335
     10          1           0       -0.877732   -0.905574    0.963607
     11          1           0       -0.290200    1.446883    1.596721
     12          7           0       -3.081435   -1.705081   -0.306244
     13          8           0       -2.279083   -2.586160   -0.005296
     14          8           0       -4.146477   -1.887657   -0.891895
     15          6           0        3.250357   -0.631819   -0.125554
     16          6           0        4.432614   -1.528370    0.243835
     17          6           0        4.053094   -3.007806    0.314757
     18          1           0        2.448230   -0.771105    0.612102
     19          1           0        2.843587   -0.953807   -1.094191
     20          1           0        4.837902   -1.203909    1.210832
     21          1           0        5.232094   -1.386791   -0.494679
     22          1           0        3.668730   -3.353605   -0.650275
     23          1           0        3.272299   -3.169684    1.064926
     24          1           0        4.913034   -3.630586    0.580294
     25          6           0        3.613981    0.850040   -0.200410
     26          6           0        2.431724    1.746591   -0.569800
     27          6           0        2.811243    3.226026   -0.640722
     28          1           0        4.020752    1.172027    0.768227
     29          1           0        4.416108    0.989325   -0.938067
     30          1           0        1.632244    1.605012    0.168713
     31          1           0        2.026436    1.422130   -1.536797
     32          1           0        3.592040    3.387905   -1.390891
     33          1           0        3.195608    3.571826    0.324310
     34          1           0        1.951305    3.848808   -0.906259
 ---------------------------------------------------------------------

 SCF Done:  E(RHF) =  -669.535154606     A.U. after   15 cycles
 E2 =    -0.2091905992D+01 EUMP2 =    -0.67162706059767D+03

 The electronic state is 1-A.
 Alpha  occ. eigenvalues --  -20.60757 -20.60752 -15.85811 -11.31184 -11.27758
 Alpha  occ. eigenvalues --  -11.27754 -11.27502 -11.26774 -11.26761 -11.22196
 Alpha  occ. eigenvalues --  -11.21866 -11.21837 -11.21760 -11.21698 -11.21132
 Alpha  occ. eigenvalues --   -1.59832  -1.39385  -1.19361  -1.08865  -1.08752
 Alpha  occ. eigenvalues --   -1.04770  -1.03925  -0.96364  -0.95586  -0.87378
 Alpha  occ. eigenvalues --   -0.86167  -0.82425  -0.80003  -0.78666  -0.77460
 Alpha  occ. eigenvalues --   -0.72029  -0.71155  -0.70465  -0.65546  -0.65013
 Alpha  occ. eigenvalues --   -0.64769  -0.62146  -0.61302  -0.59750  -0.57970
 Alpha  occ. eigenvalues --   -0.55650  -0.55268  -0.53131  -0.53031  -0.52911
 Alpha  occ. eigenvalues --   -0.52739  -0.50299  -0.48795  -0.48783  -0.48290
 Alpha  occ. eigenvalues --   -0.47034  -0.46203  -0.46110  -0.44789  -0.44187
 Alpha  occ. eigenvalues --   -0.37333  -0.36337
 Alpha virt. eigenvalues --    0.05064   0.11207   0.16465   0.19750   0.22922
 Alpha virt. eigenvalues --    0.23774   0.24942   0.26692   0.27364   0.28168
 Alpha virt. eigenvalues --    0.29642   0.29970   0.31312   0.31395   0.32081

 Mulliken charges:
               1
     1  C   -0.171998
     2  C   -0.218679
     3  C   -0.170653
     4  C    0.158348
     5  C   -0.171616
     6  C   -0.215652
     7  H    0.225814
     8  H    0.223438
     9  H    0.275616
    10  H    0.276371
    11  H    0.223754
    12  N    0.488072
    13  O   -0.460230
    14  O   -0.460555
    15  C   -0.297145
    16  C   -0.300233
    17  C   -0.476087
    18  H    0.141979
    19  H    0.154167
    20  H    0.151082
    21  H    0.153121
    22  H    0.158538
    23  H    0.156095
    24  H    0.161121
    25  C   -0.298733
    26  C   -0.301877
    27  C   -0.476145
    28  H    0.148280
    29  H    0.152409
    30  H    0.143980
    31  H    0.156811
    32  H    0.158967
    33  H    0.153762
    34  H    0.157879
 Sum of Mulliken charges =  -0.00000

 Dipole moment (field-independent basis, Debye):
    X=              1.2821    Y=              4.8393    Z=              1.2183  Tot=              5.1524
 Quadrupole moment (field-independent basis, Debye-Ang):
   XX=            -97.5201   YY=            -99.0159   ZZ=            -93.4539
   XY=            -15.8988   XZ=             -2.0043   YZ=             -0.6483

 Normal termination of Gaussian 16 at Wed May  5 15:51:38 2021.
