 Gaussian 16, Revision A.03,
 Gaussian 16:  EM64L-G16RevA.03 25-Dec-2016

 -------------
 #p 6-31g* mp2
 -------------

 ------------------------------------------------------
 Input file generated by CHIRIPA (05-May-2021 14:51:10)
 ------------------------------------------------------
 Symbolic Z-matrix:
 Charge =  0 Multiplicity = 1

                         Standard orientation:
 ---------------------------------------------------------------------
 Center     Atomic      Atomic             Coordinates (Angstroms)
 Number     Number       Type             X           Y           Z
 ---------------------------------------------------------------------
      1          6           0       -2.156519    1.282507   -0.354053
      2          6           0       -2.116954    2.346084    0.743774
      3          6           0       -1.167067    3.498600    0.416333
      4          1           0       -1.142628    0.890211   -0.512400
      5          1           0       -2.460998    1.752521   -1.299449
      6          1           0       -1.813980    1.873941    1.687121
      7          1           0       -3.131089    2.735757    0.899660
      8          1           0       -1.469960    3.995911   -0.510779
      9          1           0       -0.145368    3.129198    0.281156
     10          1           0       -1.154271    4.247408    1.214445
     11          6           0       -3.101691    0.123834   -0.041236
     12          6           0       -3.141257   -0.939743   -1.139063
     13          6           0       -4.091143   -2.092259   -0.811622
     14          1           0       -2.797213   -0.346180    0.904161
     15          1           0       -4.115582    0.516130    0.117112
     16          1           0       -2.127122   -1.329416   -1.294948
     17          1           0       -3.444231   -0.467600   -2.082410
     18          1           0       -5.112843   -1.722857   -0.676445
     19          1           0       -3.788250   -2.589571    0.115491
     20          1           0       -4.103939   -2.841067   -1.609734
     21          6           0        1.924027   -0.681947    0.490640
     22          6           0        1.350009   -2.067094    0.790399
     23          6           0       -0.061125   -2.008126    1.376075
     24          1           0        1.933613   -0.088139    1.414894
     25          1           0        1.257024   -0.159927   -0.209358
     26          1           0        2.018614   -2.586875    1.488548
     27          1           0        1.341967   -2.657738   -0.134637
     28          1           0       -0.746504   -1.513015    0.680576
     29          1           0       -0.066012   -1.441749    2.312982
     30          1           0       -0.452158   -3.009238    1.582789
     31          6           0        3.334184   -0.724394   -0.095351
     32          6           0        3.908202    0.660753   -0.395110
     33          6           0        5.319336    0.601786   -0.980787
     34          1           0        4.001186   -1.246413    0.604647
     35          1           0        3.324597   -1.318201   -1.019605
     36          1           0        3.916244    1.251397    0.529926
     37          1           0        3.239597    1.180534   -1.093258
     38          1           0        5.324223    0.035408   -1.917694
     39          1           0        6.004715    0.106674   -0.285287
     40          1           0        5.710368    1.602897   -1.187500
 ---------------------------------------------------------------------

 SCF Done:  E(RHF) =  -470.732369389     A.U. after   11 cycles
 E2 =    -0.1584944395D+01 EUMP2 =    -0.47231731378401D+03

 The electronic state is 1-A.
 Alpha  occ. eigenvalues --  -11.21670 -11.21642 -11.21608 -11.21569 -11.21478
 Alpha  occ. eigenvalues --  -11.21411 -11.21375 -11.21306 -11.21097 -11.21097
 Alpha  occ. eigenvalues --  -11.21054 -11.21036  -1.08517  -1.08403  -1.03597
 Alpha  occ. eigenvalues --   -1.03503  -0.96050  -0.95949  -0.87091  -0.86947
 Alpha  occ. eigenvalues --   -0.79660  -0.79577  -0.78341  -0.78210  -0.65399
 Alpha  occ. eigenvalues --   -0.64886  -0.61149  -0.60760  -0.59404  -0.59325
 Alpha  occ. eigenvalues --   -0.57652  -0.57562  -0.55363  -0.55204  -0.52725
 Alpha  occ. eigenvalues --   -0.52655  -0.52468  -0.52380  -0.50160  -0.49703
 Alpha  occ. eigenvalues --   -0.47989  -0.47864  -0.46734  -0.46633  -0.46128
 Alpha  occ. eigenvalues --   -0.45841  -0.45654  -0.45308  -0.43840  -0.43764
 Alpha virt. eigenvalues --    0.19948   0.22880   0.23700   0.24577   0.25376
 Alpha virt. eigenvalues --    0.26152   0.27118   0.27726   0.28734   0.30086
 Alpha virt. eigenvalues --    0.30776   0.30941   0.31566   0.31846   0.32458

 Mulliken charges:
               1
     1  C   -0.304220
     2  C   -0.299061
     3  C   -0.476393
     4  H    0.154216
     5  H    0.149529
     6  H    0.152516
     7  H    0.151817
     8  H    0.154837
     9  H    0.156051
    10  H    0.160063
    11  C   -0.304491
    12  C   -0.301997
    13  C   -0.475901
    14  H    0.153955
    15  H    0.151207
    16  H    0.151635
    17  H    0.152579
    18  H    0.155296
    19  H    0.156324
    20  H    0.160016
    21  C   -0.303715
    22  C   -0.299475
    23  C   -0.486400
    24  H    0.149813
    25  H    0.153325
    26  H    0.152351
    27  H    0.151893
    28  H    0.167924
    29  H    0.154632
    30  H    0.160399
    31  C   -0.298003
    32  C   -0.299933
    33  C   -0.475744
    34  H    0.149936
    35  H    0.149871
    36  H    0.152059
    37  H    0.151996
    38  H    0.155304
    39  H    0.155263
    40  H    0.160524
 Sum of Mulliken charges =  -0.00000

 Dipole moment (field-independent basis, Debye):
    X=              0.0101    Y=             -0.0099    Z=              0.0105  Tot=              0.0176
 Quadrupole moment (field-independent basis, Debye-Ang):
   XX=            -85.4238   YY=            -85.4042   ZZ=            -83.8933
   XY=             -1.0379   XZ=              1.1685   YZ=             -0.0420

 Normal termination of Gaussian 16 at Thu May  6 06:56:33 2021.
