 Gaussian 16, Revision A.03,
 Gaussian 16:  EM64L-G16RevA.03 25-Dec-2016

 -------------
 #p 6-31g* mp2
 -------------

 ------------------------------------------------------
 Input file generated by CHIRIPA (05-May-2021 14:53:13)
 ------------------------------------------------------
 Symbolic Z-matrix:
 Charge =  0 Multiplicity = 1

                         Standard orientation:
 ---------------------------------------------------------------------
 Center     Atomic      Atomic             Coordinates (Angstroms)
 Number     Number       Type             X           Y           Z
 ---------------------------------------------------------------------
      1          6           0       -3.759547    0.901839   -0.247289
      2          6           0       -3.011884    2.121480    0.292581
      3          6           0       -3.526624    3.437050   -0.292323
      4          1           0       -3.668323    0.878685   -1.341861
      5          1           0       -4.830319    1.008899   -0.025072
      6          1           0       -1.942652    2.011494    0.070631
      7          1           0       -3.104737    2.141627    1.386010
      8          1           0       -4.587536    3.573440   -0.058945
      9          1           0       -3.418847    3.442568   -1.381798
     10          1           0       -2.978235    4.295836    0.107196
     11          6           0       -3.256356   -0.420825    0.328113
     12          6           0       -4.004020   -1.640467   -0.211757
     13          6           0       -3.489279   -2.956036    0.373147
     14          1           0       -2.185584   -0.527886    0.105897
     15          1           0       -3.347580   -0.397672    1.422685
     16          1           0       -3.911166   -1.660613   -1.305186
     17          1           0       -5.073252   -1.530480    0.010193
     18          1           0       -3.597056   -2.961554    1.462622
     19          1           0       -2.428368   -3.092426    0.139769
     20          1           0       -4.037669   -3.814822   -0.026372
     21          6           0        4.209974    1.853410    0.168166
     22          6           0        4.786156    0.581483    0.086077
     23          6           0        3.981739   -0.556566   -0.024859
     24          6           0        2.598532   -0.385242   -0.050882
     25          6           0        1.994549    0.868596    0.029018
     26          6           0        2.818463    1.992662    0.139425
     27          1           0        4.842438    2.732042    0.254138
     28          1           0        5.866527    0.470325    0.108155
     29          1           0        4.401398   -1.553086   -0.090076
     30          1           0        0.914471    0.947649    0.004462
     31          1           0        2.368226    2.979216    0.203001
     32          7           0        1.736612   -1.582641   -0.168045
     33          8           0        0.520630   -1.404895   -0.188821
     34          8           0        2.293341   -2.676237   -0.236883
 ---------------------------------------------------------------------

 SCF Done:  E(RHF) =  -669.536401242     A.U. after   15 cycles
 E2 =    -0.2091670804D+01 EUMP2 =    -0.67162807204652D+03

 The electronic state is 1-A.
 Alpha  occ. eigenvalues --  -20.60985 -20.60980 -15.86023 -11.31308 -11.27869
 Alpha  occ. eigenvalues --  -11.27865 -11.27599 -11.26868 -11.26857 -11.21504
 Alpha  occ. eigenvalues --  -11.21049 -11.20881 -11.20634 -11.20379 -11.19834
 Alpha  occ. eigenvalues --   -1.60044  -1.39602  -1.19473  -1.08883  -1.07802
 Alpha  occ. eigenvalues --   -1.04865  -1.02912  -0.95732  -0.95336  -0.86358
 Alpha  occ. eigenvalues --   -0.86267  -0.82570  -0.79060  -0.77688  -0.77448
 Alpha  occ. eigenvalues --   -0.72250  -0.71355  -0.70584  -0.65135  -0.64869
 Alpha  occ. eigenvalues --   -0.64424  -0.62213  -0.60301  -0.58795  -0.56934
 Alpha  occ. eigenvalues --   -0.55371  -0.54602  -0.53198  -0.52957  -0.52095
 Alpha  occ. eigenvalues --   -0.51745  -0.49310  -0.48997  -0.48957  -0.47343
 Alpha  occ. eigenvalues --   -0.46111  -0.45100  -0.45022  -0.44844  -0.43141
 Alpha  occ. eigenvalues --   -0.37451  -0.36464
 Alpha virt. eigenvalues --    0.04910   0.11191   0.16416   0.19898   0.22978
 Alpha virt. eigenvalues --    0.24713   0.25194   0.27476   0.27652   0.28630
 Alpha virt. eigenvalues --    0.29474   0.31268   0.31623   0.32110   0.32307

 Mulliken charges:
               1
     1  C   -0.297344
     2  C   -0.298716
     3  C   -0.475201
     4  H    0.149049
     5  H    0.147748
     6  H    0.143475
     7  H    0.152051
     8  H    0.156841
     9  H    0.155022
    10  H    0.155619
    11  C   -0.310757
    12  C   -0.297389
    13  C   -0.481209
    14  H    0.174827
    15  H    0.145210
    16  H    0.150870
    17  H    0.146055
    18  H    0.150539
    19  H    0.175405
    20  H    0.155133
    21  C   -0.170376
    22  C   -0.218772
    23  C   -0.170355
    24  C    0.157154
    25  C   -0.173332
    26  C   -0.219597
    27  H    0.226106
    28  H    0.223872
    29  H    0.275834
    30  H    0.279731
    31  H    0.224323
    32  N    0.496799
    33  O   -0.469935
    34  O   -0.458682
 Sum of Mulliken charges =  -0.00000

 Dipole moment (field-independent basis, Debye):
    X=              3.2913    Y=              4.0834    Z=              0.3858  Tot=              5.2589
 Quadrupole moment (field-independent basis, Debye-Ang):
   XX=            -76.1833   YY=            -98.0191   ZZ=            -95.3464
   XY=              7.4878   XZ=              0.3570   YZ=              0.1784

 Normal termination of Gaussian 16 at Wed May  5 17:01:44 2021.
