 Gaussian 16, Revision A.03,
 Gaussian 16:  EM64L-G16RevA.03 25-Dec-2016

 -------------
 #p 6-31g* mp2
 -------------

 ------------------------------------------------------
 Input file generated by CHIRIPA (05-May-2021 14:51:14)
 ------------------------------------------------------
 Symbolic Z-matrix:
 Charge =  0 Multiplicity = 1

                         Standard orientation:
 ---------------------------------------------------------------------
 Center     Atomic      Atomic             Coordinates (Angstroms)
 Number     Number       Type             X           Y           Z
 ---------------------------------------------------------------------
      1          6           0       -4.410874   -0.172881    0.346281
      2          6           0       -5.425988   -0.019543   -0.786863
      3          6           0       -6.872951   -0.087553   -0.297512
      4          1           0       -4.582277   -1.130636    0.856448
      5          1           0       -4.583742    0.614392    1.093082
      6          1           0       -5.250369   -0.806033   -1.531985
      7          1           0       -5.252025    0.937872   -1.294515
      8          1           0       -7.071399    0.706398    0.429717
      9          1           0       -7.069733   -1.047416    0.190896
     10          1           0       -7.581879    0.024292   -1.123812
     11          6           0       -2.959924   -0.107035   -0.127152
     12          6           0       -1.944810   -0.260373    1.005992
     13          6           0       -0.497846   -0.192362    0.516641
     14          1           0       -2.787056   -0.894308   -0.873953
     15          1           0       -2.788521    0.850720   -0.637319
     16          1           0       -2.118773   -1.217788    1.513644
     17          1           0       -2.120429    0.526117    1.751114
     18          1           0       -0.301064    0.767500    0.028233
     19          1           0       -0.299398   -0.986314   -0.210587
     20          1           0        0.211081   -0.304208    1.342941
     21          6           0        3.876176    0.858584   -0.284528
     22          6           0        2.861176    1.891851    0.205495
     23          6           0        3.256756    3.324829   -0.152113
     24          1           0        4.860237    1.087373    0.147009
     25          1           0        3.984073    0.949062   -1.374283
     26          1           0        2.754195    1.798522    1.293824
     27          1           0        1.879376    1.660463   -0.227107
     28          1           0        3.344478    3.440867   -1.237212
     29          1           0        4.224269    3.579709    0.292360
     30          1           0        2.517317    4.047095    0.207641
     31          6           0        3.494622   -0.578669    0.065399
     32          6           0        4.509621   -1.611935   -0.424624
     33          6           0        4.114042   -3.044913   -0.067016
     34          1           0        3.386725   -0.669147    1.155155
     35          1           0        2.510560   -0.807457   -0.366137
     36          1           0        5.491422   -1.380548    0.007977
     37          1           0        4.616602   -1.518606   -1.512953
     38          1           0        3.146529   -3.299793   -0.511489
     39          1           0        4.026319   -3.160951    1.018084
     40          1           0        4.853480   -3.767179   -0.426770
 ---------------------------------------------------------------------

 SCF Done:  E(RHF) =  -470.732627694     A.U. after   11 cycles
 E2 =    -0.1583417989D+01 EUMP2 =    -0.47231604568321D+03

 The electronic state is 1-A.
 Alpha  occ. eigenvalues --  -11.21608 -11.21587 -11.21541 -11.21474 -11.21411
 Alpha  occ. eigenvalues --  -11.21352 -11.21312 -11.21246 -11.21076 -11.21040
 Alpha  occ. eigenvalues --  -11.21034 -11.21013  -1.08439  -1.08347  -1.03537
 Alpha  occ. eigenvalues --   -1.03458  -0.95990  -0.95911  -0.87013  -0.86930
 Alpha  occ. eigenvalues --   -0.79660  -0.79497  -0.78290  -0.78092  -0.65072
 Alpha  occ. eigenvalues --   -0.64983  -0.61019  -0.60796  -0.59362  -0.59273
 Alpha  occ. eigenvalues --   -0.57609  -0.57513  -0.55334  -0.55156  -0.52774
 Alpha  occ. eigenvalues --   -0.52539  -0.52425  -0.52334  -0.50058  -0.49767
 Alpha  occ. eigenvalues --   -0.47996  -0.47795  -0.46758  -0.46386  -0.45933
 Alpha  occ. eigenvalues --   -0.45710  -0.45670  -0.45435  -0.43764  -0.43670
 Alpha virt. eigenvalues --    0.22042   0.22995   0.24064   0.24340   0.25354
 Alpha virt. eigenvalues --    0.26233   0.26560   0.27636   0.27894   0.29543
 Alpha virt. eigenvalues --    0.29847   0.31265   0.31784   0.31899   0.32168

 Mulliken charges:
               1
     1  C   -0.298217
     2  C   -0.299628
     3  C   -0.475706
     4  H    0.149709
     5  H    0.149560
     6  H    0.151874
     7  H    0.151893
     8  H    0.155202
     9  H    0.155203
    10  H    0.160255
    11  C   -0.298514
    12  C   -0.300901
    13  C   -0.477867
    14  H    0.149302
    15  H    0.149475
    16  H    0.151869
    17  H    0.151932
    18  H    0.157164
    19  H    0.153740
    20  H    0.163686
    21  C   -0.297811
    22  C   -0.304998
    23  C   -0.475432
    24  H    0.149009
    25  H    0.148832
    26  H    0.150910
    27  H    0.159701
    28  H    0.154725
    29  H    0.154859
    30  H    0.159481
    31  C   -0.302685
    32  C   -0.299582
    33  C   -0.475440
    34  H    0.148334
    35  H    0.157089
    36  H    0.151619
    37  H    0.151589
    38  H    0.154793
    39  H    0.154978
    40  H    0.159999
 Sum of Mulliken charges =  -0.00000

 Dipole moment (field-independent basis, Debye):
    X=             -0.0326    Y=             -0.0083    Z=              0.0031  Tot=              0.0338
 Quadrupole moment (field-independent basis, Debye-Ang):
   XX=            -86.0490   YY=            -85.0556   ZZ=            -84.0620
   XY=             -0.2033   XZ=              0.6915   YZ=              0.4165

 Normal termination of Gaussian 16 at Wed May  5 21:39:25 2021.
