 Gaussian 16, Revision A.03,
 Gaussian 16:  EM64L-G16RevA.03 25-Dec-2016

 -------------
 #p 6-31g* mp2
 -------------

 ------------------------------------------------------
 Input file generated by CHIRIPA (05-May-2021 14:53:15)
 ------------------------------------------------------
 Symbolic Z-matrix:
 Charge =  0 Multiplicity = 1

                         Standard orientation:
 ---------------------------------------------------------------------
 Center     Atomic      Atomic             Coordinates (Angstroms)
 Number     Number       Type             X           Y           Z
 ---------------------------------------------------------------------
      1          6           0       -3.916649   -0.511004   -0.144306
      2          6           0       -3.086817   -1.794415   -0.191411
      3          6           0       -3.920596   -3.047664    0.076866
      4          1           0       -4.398086   -0.429119    0.839797
      5          1           0       -4.726541   -0.578954   -0.883801
      6          1           0       -2.277897   -1.723489    0.546990
      7          1           0       -2.607145   -1.873157   -1.175449
      8          1           0       -4.718413   -3.145979   -0.666386
      9          1           0       -4.387295   -2.995462    1.065840
     10          1           0       -3.307580   -3.953529    0.038400
     11          6           0       -3.097118    0.750425   -0.410569
     12          6           0       -3.926951    2.033836   -0.363464
     13          6           0       -3.093171    3.287085   -0.631741
     14          1           0       -2.287227    0.818374    0.328926
     15          1           0       -2.615681    0.668540   -1.394672
     16          1           0       -4.406622    2.112577    0.620574
     17          1           0       -4.735870    1.962910   -1.101865
     18          1           0       -2.626473    3.234882   -1.620715
     19          1           0       -2.295354    3.385400    0.111511
     20          1           0       -3.706187    4.192950   -0.593275
     21          6           0        4.868145   -0.037465   -1.137034
     22          6           0        4.649482    0.915491   -0.136743
     23          6           0        3.473856    0.894027    0.619557
     24          6           0        2.533988   -0.098943    0.347627
     25          6           0        2.722815   -1.062185   -0.642221
     26          6           0        3.905809   -1.021527   -1.386142
     27          1           0        5.784261   -0.013336   -1.719738
     28          1           0        5.395094    1.680885    0.058912
     29          1           0        3.278959    1.619607    1.399920
     30          1           0        1.961105   -1.812961   -0.814125
     31          1           0        4.072941   -1.762881   -2.162355
     32          7           0        1.285505   -0.131826    1.141736
     33          8           0        0.473054   -1.016939    0.882632
     34          8           0        1.143035    0.728136    2.008224
 ---------------------------------------------------------------------

 SCF Done:  E(RHF) =  -669.536431138     A.U. after   15 cycles
 E2 =    -0.2091342793D+01 EUMP2 =    -0.67162777393078D+03

 The electronic state is 1-A.
 Alpha  occ. eigenvalues --  -20.61012 -20.60988 -15.86028 -11.31316 -11.27875
 Alpha  occ. eigenvalues --  -11.27870 -11.27610 -11.26876 -11.26866 -11.20703
 Alpha  occ. eigenvalues --  -11.20320 -11.20269 -11.20198 -11.20164 -11.20040
 Alpha  occ. eigenvalues --   -1.60058  -1.39614  -1.19481  -1.08892  -1.07310
 Alpha  occ. eigenvalues --   -1.04872  -1.02484  -0.95739  -0.94976  -0.86274
 Alpha  occ. eigenvalues --   -0.85998  -0.82576  -0.78537  -0.77632  -0.77088
 Alpha  occ. eigenvalues --   -0.72249  -0.71364  -0.70590  -0.65138  -0.64877
 Alpha  occ. eigenvalues --   -0.63933  -0.62219  -0.59878  -0.58346  -0.56574
 Alpha  occ. eigenvalues --   -0.55380  -0.54271  -0.53206  -0.52964  -0.51702
 Alpha  occ. eigenvalues --   -0.51401  -0.49055  -0.49003  -0.48910  -0.46859
 Alpha  occ. eigenvalues --   -0.45539  -0.45109  -0.44665  -0.44380  -0.42725
 Alpha  occ. eigenvalues --   -0.37458  -0.36472
 Alpha virt. eigenvalues --    0.04885   0.11184   0.16384   0.21305   0.23967
 Alpha virt. eigenvalues --    0.25271   0.27229   0.27769   0.28013   0.28778
 Alpha virt. eigenvalues --    0.29030   0.30932   0.32318   0.32353   0.32848

 Mulliken charges:
               1
     1  C   -0.297021
     2  C   -0.308730
     3  C   -0.474790
     4  H    0.148497
     5  H    0.143058
     6  H    0.181711
     7  H    0.143825
     8  H    0.149479
     9  H    0.153848
    10  H    0.156854
    11  C   -0.301698
    12  C   -0.298461
    13  C   -0.475954
    14  H    0.165379
    15  H    0.143302
    16  H    0.151796
    17  H    0.147882
    18  H    0.151237
    19  H    0.158683
    20  H    0.156760
    21  C   -0.170464
    22  C   -0.218627
    23  C   -0.170358
    24  C    0.157811
    25  C   -0.170639
    26  C   -0.218608
    27  H    0.226093
    28  H    0.223902
    29  H    0.275846
    30  H    0.276172
    31  H    0.223936
    32  N    0.492483
    33  O   -0.463211
    34  O   -0.459995
 Sum of Mulliken charges =  -0.00000

 Dipole moment (field-independent basis, Debye):
    X=              4.7521    Y=              0.1061    Z=             -2.6211  Tot=              5.4281
 Quadrupole moment (field-independent basis, Debye-Ang):
   XX=            -73.9643   YY=            -93.5354   ZZ=            -95.1124
   XY=              0.7538   XZ=             -5.1991   YZ=              3.0643

 Normal termination of Gaussian 16 at Thu May  6 02:42:21 2021.
