 Gaussian 16, Revision A.03,
 Gaussian 16:  EM64L-G16RevA.03 25-Dec-2016

 -------------
 #p 6-31g* mp2
 -------------

 ------------------------------------------------------
 Input file generated by CHIRIPA (05-May-2021 14:53:13)
 ------------------------------------------------------
 Symbolic Z-matrix:
 Charge =  0 Multiplicity = 1

                         Standard orientation:
 ---------------------------------------------------------------------
 Center     Atomic      Atomic             Coordinates (Angstroms)
 Number     Number       Type             X           Y           Z
 ---------------------------------------------------------------------
      1          6           0       -4.010455   -0.312267   -0.619903
      2          6           0       -3.571943   -1.748404   -0.331451
      3          6           0       -4.280311   -2.772340   -1.218898
      4          1           0       -5.097066   -0.232150   -0.479183
      5          1           0       -3.814206   -0.081497   -1.676136
      6          1           0       -3.767685   -1.975937    0.724262
      7          1           0       -2.486222   -1.825065   -0.472688
      8          1           0       -4.075447   -2.573309   -2.275789
      9          1           0       -5.364191   -2.725038   -1.072037
     10          1           0       -3.951926   -3.792287   -0.995888
     11          6           0       -3.311076    0.722885    0.259334
     12          6           0       -3.749588    2.159021   -0.029119
     13          6           0       -3.041220    3.182958    0.858328
     14          1           0       -3.507325    0.492115    1.315566
     15          1           0       -2.224465    0.642768    0.118613
     16          1           0       -4.835309    2.235683    0.112119
     17          1           0       -3.553846    2.386555   -1.084832
     18          1           0       -1.957340    3.135656    0.711467
     19          1           0       -3.246084    2.983927    1.915219
     20          1           0       -3.369605    4.202904    0.635318
     21          6           0        1.142833   -1.371648    1.537352
     22          6           0        2.383391   -1.965602    1.282882
     23          6           0        3.342405   -1.303682    0.510417
     24          6           0        3.025980   -0.043298    0.005839
     25          6           0        1.798947    0.574753    0.241833
     26          6           0        0.855077   -0.105598    1.016933
     27          1           0        0.403730   -1.893003    2.138445
     28          1           0        2.609615   -2.948739    1.685757
     29          1           0        4.310715   -1.740312    0.297937
     30          1           0        1.602407    1.555781   -0.173348
     31          1           0       -0.107527    0.358105    1.212935
     32          7           0        4.033229    0.667203   -0.813330
     33          8           0        3.729999    1.776768   -1.246404
     34          8           0        5.106869    0.101075   -1.006809
 ---------------------------------------------------------------------

 SCF Done:  E(RHF) =  -669.535715466     A.U. after   15 cycles
 E2 =    -0.2091443456D+01 EUMP2 =    -0.67162715892192D+03

 The electronic state is 1-A.
 Alpha  occ. eigenvalues --  -20.60754 -20.60749 -15.85807 -11.31171 -11.27743
 Alpha  occ. eigenvalues --  -11.27737 -11.27472 -11.26752 -11.26706 -11.22344
 Alpha  occ. eigenvalues --  -11.22323 -11.22284 -11.22085 -11.21805 -11.21636
 Alpha  occ. eigenvalues --   -1.59829  -1.39383  -1.19342  -1.09203  -1.08733
 Alpha  occ. eigenvalues --   -1.04745  -1.04236  -0.96688  -0.95570  -0.87700
 Alpha  occ. eigenvalues --   -0.86141  -0.82405  -0.80305  -0.79060  -0.77448
 Alpha  occ. eigenvalues --   -0.72025  -0.71153  -0.70444  -0.65858  -0.64991
 Alpha  occ. eigenvalues --   -0.64728  -0.62108  -0.61611  -0.60055  -0.58306
 Alpha  occ. eigenvalues --   -0.55980  -0.55236  -0.53352  -0.53162  -0.53067
 Alpha  occ. eigenvalues --   -0.52806  -0.50621  -0.48793  -0.48781  -0.48612
 Alpha  occ. eigenvalues --   -0.47333  -0.46555  -0.46483  -0.44789  -0.44510
 Alpha  occ. eigenvalues --   -0.37316  -0.36343
 Alpha virt. eigenvalues --    0.05076   0.11223   0.16523   0.19761   0.22638
 Alpha virt. eigenvalues --    0.23380   0.25163   0.26250   0.27116   0.28194
 Alpha virt. eigenvalues --    0.29295   0.30250   0.31105   0.31234   0.31761

 Mulliken charges:
               1
     1  C   -0.297795
     2  C   -0.301656
     3  C   -0.475861
     4  H    0.152540
     5  H    0.153209
     6  H    0.149282
     7  H    0.150994
     8  H    0.157932
     9  H    0.156769
    10  H    0.160626
    11  C   -0.304500
    12  C   -0.300053
    13  C   -0.476182
    14  H    0.147981
    15  H    0.145418
    16  H    0.155241
    17  H    0.155623
    18  H    0.149870
    19  H    0.155327
    20  H    0.165594
    21  C   -0.172303
    22  C   -0.218551
    23  C   -0.170979
    24  C    0.158670
    25  C   -0.172702
    26  C   -0.224425
    27  H    0.226622
    28  H    0.223348
    29  H    0.275559
    30  H    0.275000
    31  H    0.232333
    32  N    0.488105
    33  O   -0.460527
    34  O   -0.460507
 Sum of Mulliken charges =  -0.00000

 Dipole moment (field-independent basis, Debye):
    X=             -3.7369    Y=             -2.4867    Z=              2.8202  Tot=              5.3011
 Quadrupole moment (field-independent basis, Debye-Ang):
   XX=           -113.5492   YY=            -92.2701   ZZ=            -95.2329
   XY=            -10.8039   XZ=              8.6823   YZ=             -1.2180

 Normal termination of Gaussian 16 at Thu May  6 20:19:04 2021.
