 Gaussian 16, Revision A.03,
 Gaussian 16:  EM64L-G16RevA.03 25-Dec-2016

 -------------
 #p 6-31g* mp2
 -------------

 ------------------------------------------------------
 Input file generated by CHIRIPA (05-May-2021 14:55:21)
 ------------------------------------------------------
 Symbolic Z-matrix:
 Charge =  0 Multiplicity = 1

                         Standard orientation:
 ---------------------------------------------------------------------
 Center     Atomic      Atomic             Coordinates (Angstroms)
 Number     Number       Type             X           Y           Z
 ---------------------------------------------------------------------
      1          6           0       -3.477199   -1.728488   -1.593427
      2          6           0       -2.689545   -0.632461   -1.960640
      3          6           0       -2.233144    0.269302   -0.994685
      4          6           0       -2.584886    0.043629    0.335217
      5          6           0       -3.368111   -1.038963    0.732511
      6          6           0       -3.813376   -1.927890   -0.250391
      7          1           0       -3.827417   -2.424014   -2.350386
      8          1           0       -2.426912   -0.475106   -3.002901
      9          1           0       -1.622015    1.126111   -1.251236
     10          1           0       -3.613543   -1.169504    1.779478
     11          1           0       -4.424937   -2.778209    0.037699
     12          7           0       -2.107609    0.991490    1.366801
     13          8           0       -2.431317    0.770452    2.531701
     14          8           0       -1.418849    1.937515    0.990923
     15          6           0        2.737568    0.504416   -0.259799
     16          6           0        2.807413    1.814810   -1.044641
     17          6           0        1.455685    2.523952   -1.132629
     18          1           0        2.003050   -0.160872   -0.733949
     19          1           0        2.364263    0.711047    0.752794
     20          1           0        3.181786    1.605964   -2.055009
     21          1           0        3.541990    2.476983   -0.568678
     22          1           0        1.079141    2.760931   -0.132301
     23          1           0        0.716891    1.884964   -1.627077
     24          1           0        1.528561    3.458333   -1.697855
     25          6           0        4.081112   -0.216186   -0.163111
     26          6           0        4.011266   -1.526578    0.621731
     27          6           0        5.362994   -2.235721    0.709719
     28          1           0        4.454416   -0.422816   -1.175703
     29          1           0        4.815629    0.449103    0.311039
     30          1           0        3.276689   -2.188751    0.145768
     31          1           0        3.636893   -1.317733    1.632099
     32          1           0        6.101788   -1.596733    1.204166
     33          1           0        5.739538   -2.472700   -0.290609
     34          1           0        5.290118   -3.170102    1.274945
 ---------------------------------------------------------------------

 SCF Done:  E(RHF) =  -669.535569573     A.U. after   15 cycles
 E2 =    -0.2091887037D+01 EUMP2 =    -0.67162745660955D+03

 The electronic state is 1-A.
 Alpha  occ. eigenvalues --  -20.60822 -20.60816 -15.85864 -11.31201 -11.27775
 Alpha  occ. eigenvalues --  -11.27744 -11.27519 -11.26789 -11.26777 -11.21375
 Alpha  occ. eigenvalues --  -11.21199 -11.21108 -11.20989 -11.20898 -11.20483
 Alpha  occ. eigenvalues --   -1.59891  -1.39445  -1.19375  -1.08778  -1.08105
 Alpha  occ. eigenvalues --   -1.04776  -1.03192  -0.95677  -0.95574  -0.86652
 Alpha  occ. eigenvalues --   -0.86173  -0.82453  -0.79270  -0.77930  -0.77473
 Alpha  occ. eigenvalues --   -0.72094  -0.71207  -0.70492  -0.65034  -0.64810
 Alpha  occ. eigenvalues --   -0.64715  -0.62143  -0.60585  -0.59012  -0.57238
 Alpha  occ. eigenvalues --   -0.55300  -0.54906  -0.53105  -0.52892  -0.52335
 Alpha  occ. eigenvalues --   -0.52019  -0.49570  -0.48853  -0.48837  -0.47549
 Alpha  occ. eigenvalues --   -0.46296  -0.45484  -0.45379  -0.44782  -0.43454
 Alpha  occ. eigenvalues --   -0.37358  -0.36375
 Alpha virt. eigenvalues --    0.05007   0.11239   0.16493   0.20920   0.23196
 Alpha virt. eigenvalues --    0.24378   0.25931   0.27204   0.27705   0.27933
 Alpha virt. eigenvalues --    0.29403   0.30771   0.31475   0.32059   0.32369

 Mulliken charges:
               1
     1  C   -0.170512
     2  C   -0.220673
     3  C   -0.175434
     4  C    0.156894
     5  C   -0.170386
     6  C   -0.218769
     7  H    0.225631
     8  H    0.223529
     9  H    0.285154
    10  H    0.275562
    11  H    0.223479
    12  N    0.490405
    13  O   -0.460211
    14  O   -0.462798
    15  C   -0.298442
    16  C   -0.299977
    17  C   -0.479623
    18  H    0.143995
    19  H    0.157305
    20  H    0.146970
    21  H    0.152798
    22  H    0.182661
    23  H    0.138577
    24  H    0.156625
    25  C   -0.297956
    26  C   -0.299533
    27  C   -0.475469
    28  H    0.147103
    29  H    0.150338
    30  H    0.149562
    31  H    0.154275
    32  H    0.155713
    33  H    0.153813
    34  H    0.159394
 Sum of Mulliken charges =  -0.00000

 Dipole moment (field-independent basis, Debye):
    X=             -1.7574    Y=             -3.2461    Z=             -3.4592  Tot=              5.0588
 Quadrupole moment (field-independent basis, Debye-Ang):
   XX=            -86.7002   YY=            -94.1205   ZZ=            -94.5728
   XY=             11.0825   XZ=              7.4663   YZ=             -2.5611

 Normal termination of Gaussian 16 at Thu May  6 17:30:04 2021.
