 Gaussian 16, Revision A.03,
 Gaussian 16:  EM64L-G16RevA.03 25-Dec-2016

 -------------
 #p 6-31g* mp2
 -------------

 ------------------------------------------------------
 Input file generated by CHIRIPA (05-May-2021 14:57:22)
 ------------------------------------------------------
 Symbolic Z-matrix:
 Charge =  0 Multiplicity = 1

                         Standard orientation:
 ---------------------------------------------------------------------
 Center     Atomic      Atomic             Coordinates (Angstroms)
 Number     Number       Type             X           Y           Z
 ---------------------------------------------------------------------
      1          6           0       -1.027801   -1.031139    1.886231
      2          6           0       -2.129475   -1.834597    1.574314
      3          6           0       -3.105211   -1.385389    0.679496
      4          6           0       -2.946948   -0.121772    0.112472
      5          6           0       -1.860669    0.702115    0.403161
      6          6           0       -0.897145    0.232424    1.300691
      7          1           0       -0.274569   -1.388050    2.582400
      8          1           0       -2.233543   -2.816331    2.027538
      9          1           0       -3.968102   -1.986767    0.420301
     10          1           0       -1.784302    1.676179   -0.064584
     11          1           0       -0.042620    0.858563    1.541072
     12          7           0       -3.973452    0.364626   -0.836267
     13          8           0       -3.810912    1.481739   -1.322350
     14          8           0       -4.921129   -0.380458   -1.075841
     15          6           0        2.131244    2.417996    0.749500
     16          6           0        1.760600    2.117046   -0.565251
     17          6           0        2.113379    0.892270   -1.139726
     18          6           0        2.840271   -0.012304   -0.367285
     19          6           0        3.224308    0.258308    0.945184
     20          6           0        2.860629    1.489304    1.499201
     21          1           0        1.852963    3.371846    1.187820
     22          1           0        1.194133    2.836365   -1.149836
     23          1           0        1.839459    0.633491   -2.155314
     24          1           0        3.788809   -0.478923    1.503079
     25          1           0        3.149841    1.720323    2.520490
     26          7           0        3.219513   -1.312211   -0.964626
     27          8           0        3.860059   -2.092108   -0.263128
     28          8           0        2.869033   -1.526570   -2.123010
 ---------------------------------------------------------------------

 SCF Done:  E(RHF) =  -868.337199728     A.U. after   16 cycles
 E2 =    -0.2603041048D+01 EUMP2 =    -0.87094024077593D+03

 The electronic state is 1-A.
 Alpha  occ. eigenvalues --  -20.61500 -20.61476 -20.60885 -20.60862 -15.86550
 Alpha  occ. eigenvalues --  -15.85924 -11.32148 -11.31232 -11.28775 -11.28673
 Alpha  occ. eigenvalues --  -11.28493 -11.27827 -11.27792 -11.27735 -11.27723
 Alpha  occ. eigenvalues --  -11.27450 -11.26755 -11.26626  -1.60561  -1.59950
 Alpha  occ. eigenvalues --   -1.40108  -1.39508  -1.20365  -1.19367  -1.09720
 Alpha  occ. eigenvalues --   -1.08771  -1.05767  -1.04755  -0.96494  -0.95630
 Alpha  occ. eigenvalues --   -0.87142  -0.86162  -0.83300  -0.82464  -0.78306
 Alpha  occ. eigenvalues --   -0.77536  -0.72761  -0.72146  -0.71887  -0.71417
 Alpha  occ. eigenvalues --   -0.71270  -0.70494  -0.65980  -0.65731  -0.65015
 Alpha  occ. eigenvalues --   -0.64801  -0.63069  -0.62182  -0.56242  -0.55320
 Alpha  occ. eigenvalues --   -0.54294  -0.53816  -0.53069  -0.52532  -0.49540
 Alpha  occ. eigenvalues --   -0.49503  -0.48910  -0.48885  -0.45462  -0.44927
 Alpha  occ. eigenvalues --   -0.38371  -0.37496  -0.37332  -0.36242
 Alpha virt. eigenvalues --    0.04160   0.05017   0.10178   0.11275   0.15573
 Alpha virt. eigenvalues --    0.16541   0.20270   0.21771   0.25877   0.27347
 Alpha virt. eigenvalues --    0.27948   0.28363   0.30145   0.31324   0.31740

 Mulliken charges:
               1
     1  C   -0.174537
     2  C   -0.216838
     3  C   -0.171456
     4  C    0.159829
     5  C   -0.176397
     6  C   -0.220508
     7  H    0.224846
     8  H    0.224720
     9  H    0.275989
    10  H    0.267191
    11  H    0.231346
    12  N    0.488369
    13  O   -0.463965
    14  O   -0.458809
    15  C   -0.186189
    16  C   -0.220591
    17  C   -0.166303
    18  C    0.161607
    19  C   -0.173719
    20  C   -0.223813
    21  H    0.230166
    22  H    0.230467
    23  H    0.282021
    24  H    0.277469
    25  H    0.226536
    26  N    0.487919
    27  O   -0.460162
    28  O   -0.455187
 Sum of Mulliken charges =  -0.00000

 Dipole moment (field-independent basis, Debye):
    X=              2.5434    Y=              2.7674    Z=              5.2712  Tot=              6.4741
 Quadrupole moment (field-independent basis, Debye-Ang):
   XX=           -132.2948   YY=           -101.1230   ZZ=           -102.7017
   XY=             19.8458   XZ=             -1.3647   YZ=             -4.2562

 Normal termination of Gaussian 16 at Wed May  5 17:49:19 2021.
