 Gaussian 16, Revision A.03,
 Gaussian 16:  EM64L-G16RevA.03 25-Dec-2016

 -------------
 #p 6-31g* mp2
 -------------

 ------------------------------------------------------
 Input file generated by CHIRIPA (05-May-2021 14:51:09)
 ------------------------------------------------------
 Symbolic Z-matrix:
 Charge =  0 Multiplicity = 1

                         Standard orientation:
 ---------------------------------------------------------------------
 Center     Atomic      Atomic             Coordinates (Angstroms)
 Number     Number       Type             X           Y           Z
 ---------------------------------------------------------------------
      1          6           0        2.427995   -0.738641   -0.358226
      2          6           0        1.719316   -2.079899   -0.166432
      3          6           0        0.318635   -2.101358   -0.779155
      4          1           0        1.818280    0.058263    0.089141
      5          1           0        2.493224   -0.516620   -1.432398
      6          1           0        1.656674   -2.299982    0.906999
      7          1           0        2.330881   -2.873727   -0.614139
      8          1           0        0.365976   -1.906856   -1.855504
      9          1           0       -0.312061   -1.329851   -0.325723
     10          1           0       -0.169802   -3.069444   -0.630498
     11          6           0        3.829329   -0.701612    0.248914
     12          6           0        4.538008    0.639647    0.057121
     13          6           0        5.938688    0.661106    0.669843
     14          1           0        3.764100   -0.923633    1.323087
     15          1           0        4.439044   -1.498516   -0.198453
     16          1           0        3.926443    1.433475    0.504828
     17          1           0        4.600649    0.859730   -1.016311
     18          1           0        6.569384   -0.110401    0.216411
     19          1           0        5.891347    0.466604    1.746193
     20          1           0        6.427126    1.629192    0.521187
     21          6           0       -3.621978    0.355098    0.509436
     22          6           0       -4.362141   -0.785276   -0.190343
     23          6           0       -5.345479   -1.505923    0.732430
     24          1           0       -3.084259   -0.044943    1.379935
     25          1           0       -4.355527    1.074637    0.898751
     26          1           0       -3.627361   -1.501745   -0.579427
     27          1           0       -4.898006   -0.382505   -1.059389
     28          1           0       -6.100275   -0.808945    1.110720
     29          1           0       -4.822410   -1.934543    1.593410
     30          1           0       -5.863577   -2.317353    0.211840
     31          6           0       -2.635344    1.085154   -0.400124
     32          6           0       -1.895183    2.225529    0.299655
     33          6           0       -0.911846    2.946176   -0.623119
     34          1           0       -1.901797    0.365615   -0.789439
     35          1           0       -3.173064    1.485196   -1.270623
     36          1           0       -1.359317    1.822759    1.168701
     37          1           0       -2.629963    2.941997    0.688739
     38          1           0       -1.434914    3.374796   -1.484098
     39          1           0       -0.157049    2.249197   -1.001408
     40          1           0       -0.393746    3.757606   -0.102527
 ---------------------------------------------------------------------

 SCF Done:  E(RHF) =  -470.733369682     A.U. after   11 cycles
 E2 =    -0.1583179687D+01 EUMP2 =    -0.47231654936844D+03

 The electronic state is 1-A.
 Alpha  occ. eigenvalues --  -11.21679 -11.21623 -11.21595 -11.21555 -11.21465
 Alpha  occ. eigenvalues --  -11.21400 -11.21366 -11.21297 -11.21161 -11.21087
 Alpha  occ. eigenvalues --  -11.21049 -11.21039  -1.08488  -1.08401  -1.03586
 Alpha  occ. eigenvalues --   -1.03501  -0.96046  -0.95944  -0.87063  -0.86961
 Alpha  occ. eigenvalues --   -0.79660  -0.79557  -0.78318  -0.78191  -0.65197
 Alpha  occ. eigenvalues --   -0.64979  -0.61007  -0.60876  -0.59406  -0.59313
 Alpha  occ. eigenvalues --   -0.57685  -0.57535  -0.55449  -0.55132  -0.52731
 Alpha  occ. eigenvalues --   -0.52648  -0.52520  -0.52319  -0.50055  -0.49819
 Alpha  occ. eigenvalues --   -0.48037  -0.47853  -0.46748  -0.46576  -0.45967
 Alpha  occ. eigenvalues --   -0.45775  -0.45731  -0.45411  -0.43839  -0.43754
 Alpha virt. eigenvalues --    0.20038   0.22957   0.23820   0.24754   0.25749
 Alpha virt. eigenvalues --    0.26591   0.26911   0.27278   0.28484   0.29410
 Alpha virt. eigenvalues --    0.30918   0.31638   0.31669   0.31840   0.32036

 Mulliken charges:
               1
     1  C   -0.300360
     2  C   -0.299455
     3  C   -0.482355
     4  H    0.150935
     5  H    0.149806
     6  H    0.152007
     7  H    0.152477
     8  H    0.155764
     9  H    0.160700
    10  H    0.160761
    11  C   -0.298295
    12  C   -0.299820
    13  C   -0.475759
    14  H    0.149598
    15  H    0.149894
    16  H    0.152343
    17  H    0.152103
    18  H    0.155187
    19  H    0.155185
    20  H    0.160451
    21  C   -0.298022
    22  C   -0.300614
    23  C   -0.475665
    24  H    0.148976
    25  H    0.149465
    26  H    0.153563
    27  H    0.151836
    28  H    0.154992
    29  H    0.155056
    30  H    0.160182
    31  C   -0.305905
    32  C   -0.299441
    33  C   -0.477702
    34  H    0.156937
    35  H    0.149903
    36  H    0.150636
    37  H    0.152071
    38  H    0.155307
    39  H    0.157330
    40  H    0.159928
 Sum of Mulliken charges =  -0.00000

 Dipole moment (field-independent basis, Debye):
    X=              0.0326    Y=             -0.0214    Z=             -0.0201  Tot=              0.0439
 Quadrupole moment (field-independent basis, Debye-Ang):
   XX=            -85.6990   YY=            -84.6744   ZZ=            -84.3627
   XY=             -1.2483   XZ=             -0.0996   YZ=              0.3805

 Normal termination of Gaussian 16 at Thu May  6 05:21:23 2021.
