 Gaussian 16, Revision A.03,
 Gaussian 16:  EM64L-G16RevA.03 25-Dec-2016

 -------------
 #p 6-31g* mp2
 -------------

 ------------------------------------------------------
 Input file generated by CHIRIPA (05-May-2021 14:55:20)
 ------------------------------------------------------
 Symbolic Z-matrix:
 Charge =  0 Multiplicity = 1

                         Standard orientation:
 ---------------------------------------------------------------------
 Center     Atomic      Atomic             Coordinates (Angstroms)
 Number     Number       Type             X           Y           Z
 ---------------------------------------------------------------------
      1          6           0       -3.623591    1.672487   -1.250371
      2          6           0       -2.263317    1.838482   -0.969976
      3          6           0       -1.585446    0.914244   -0.169461
      4          6           0       -2.302033   -0.169210    0.336426
      5          6           0       -3.657667   -0.362100    0.075007
      6          6           0       -4.315205    0.574662   -0.727906
      7          1           0       -4.142280    2.395322   -1.873162
      8          1           0       -1.723656    2.690112   -1.374373
      9          1           0       -0.532685    1.018482    0.063447
     10          1           0       -4.168813   -1.221121    0.492416
     11          1           0       -5.371645    0.443204   -0.944005
     12          7           0       -1.595163   -1.154288    1.185164
     13          8           0       -2.249115   -2.100307    1.618790
     14          8           0       -0.400552   -0.961720    1.400708
     15          6           0        3.270282   -0.734304   -0.279723
     16          6           0        2.412643   -1.521518   -1.271051
     17          6           0        2.773761   -3.006566   -1.315999
     18          1           0        4.329089   -0.847635   -0.549965
     19          1           0        3.154848   -1.171155    0.721891
     20          1           0        2.528586   -1.082454   -2.270250
     21          1           0        1.355743   -1.406143   -0.998532
     22          1           0        2.640401   -3.465441   -0.330986
     23          1           0        3.819908   -3.139914   -1.609928
     24          1           0        2.148514   -3.550308   -2.031030
     25          6           0        2.921163    0.751857   -0.223427
     26          6           0        3.778802    1.539072    0.767901
     27          6           0        3.417685    3.024120    0.812847
     28          1           0        3.036597    1.188708   -1.225042
     29          1           0        1.862356    0.865188    0.046814
     30          1           0        4.835702    1.423697    0.495382
     31          1           0        3.662859    1.100007    1.767099
     32          1           0        2.371537    3.157467    1.106777
     33          1           0        3.551044    3.482995   -0.172165
     34          1           0        4.042930    3.567863    1.527880
 ---------------------------------------------------------------------

 SCF Done:  E(RHF) =  -669.536151963     A.U. after   15 cycles
 E2 =    -0.2092639541D+01 EUMP2 =    -0.67162879150319D+03

 The electronic state is 1-A.
 Alpha  occ. eigenvalues --  -20.60980 -20.60971 -15.85997 -11.31276 -11.27836
 Alpha  occ. eigenvalues --  -11.27818 -11.27566 -11.26839 -11.26821 -11.21340
 Alpha  occ. eigenvalues --  -11.21122 -11.21037 -11.20902 -11.20739 -11.20373
 Alpha  occ. eigenvalues --   -1.60032  -1.39590  -1.19443  -1.08855  -1.07975
 Alpha  occ. eigenvalues --   -1.04832  -1.03086  -0.95707  -0.95563  -0.86584
 Alpha  occ. eigenvalues --   -0.86238  -0.82539  -0.79184  -0.77866  -0.77536
 Alpha  occ. eigenvalues --   -0.72229  -0.71339  -0.70559  -0.65110  -0.64888
 Alpha  occ. eigenvalues --   -0.64519  -0.62182  -0.60455  -0.58960  -0.57183
 Alpha  occ. eigenvalues --   -0.55349  -0.54843  -0.53165  -0.52938  -0.52267
 Alpha  occ. eigenvalues --   -0.52000  -0.49494  -0.49000  -0.48970  -0.47513
 Alpha  occ. eigenvalues --   -0.46220  -0.45440  -0.45238  -0.44785  -0.43345
 Alpha  occ. eigenvalues --   -0.37421  -0.36428
 Alpha virt. eigenvalues --    0.04899   0.11186   0.16386   0.20293   0.23179
 Alpha virt. eigenvalues --    0.24617   0.25270   0.27492   0.27757   0.28291
 Alpha virt. eigenvalues --    0.29469   0.31347   0.31671   0.32099   0.32428

 Mulliken charges:
               1
     1  C   -0.170089
     2  C   -0.223543
     3  C   -0.176720
     4  C    0.154606
     5  C   -0.169521
     6  C   -0.219144
     7  H    0.226076
     8  H    0.225042
     9  H    0.291577
    10  H    0.275754
    11  H    0.223765
    12  N    0.487306
    13  O   -0.458163
    14  O   -0.463610
    15  C   -0.295965
    16  C   -0.302795
    17  C   -0.476244
    18  H    0.145989
    19  H    0.161113
    20  H    0.144138
    21  H    0.159786
    22  H    0.162485
    23  H    0.151397
    24  H    0.157308
    25  C   -0.307018
    26  C   -0.299109
    27  C   -0.475305
    28  H    0.143971
    29  H    0.153453
    30  H    0.151797
    31  H    0.158005
    32  H    0.150220
    33  H    0.152218
    34  H    0.161220
 Sum of Mulliken charges =  -0.00000

 Dipole moment (field-independent basis, Debye):
    X=             -2.6023    Y=              3.3519    Z=             -2.8228  Tot=              5.0966
 Quadrupole moment (field-independent basis, Debye-Ang):
   XX=            -79.3756   YY=            -96.4084   ZZ=            -97.1881
   XY=             -5.0899   XZ=              5.8117   YZ=              0.7409

 Normal termination of Gaussian 16 at Wed May  5 18:56:33 2021.
