 Gaussian 16, Revision A.03,
 Gaussian 16:  EM64L-G16RevA.03 25-Dec-2016

 -------------
 #p 6-31g* mp2
 -------------

 ------------------------------------------------------
 Input file generated by CHIRIPA (05-May-2021 14:51:07)
 ------------------------------------------------------
 Symbolic Z-matrix:
 Charge =  0 Multiplicity = 1

                         Standard orientation:
 ---------------------------------------------------------------------
 Center     Atomic      Atomic             Coordinates (Angstroms)
 Number     Number       Type             X           Y           Z
 ---------------------------------------------------------------------
      1          6           0        2.398089   -0.695695   -0.596522
      2          6           0        1.368584   -1.147906   -1.632673
      3          6           0        1.353313   -2.664277   -1.828067
      4          1           0        3.395255   -1.036930   -0.906628
      5          1           0        2.183515   -1.187727    0.362257
      6          1           0        1.584208   -0.654101   -2.588853
      7          1           0        0.373780   -0.805390   -1.320162
      8          1           0        1.115871   -3.171541   -0.887373
      9          1           0        2.333176   -3.019393   -2.163272
     10          1           0        0.610223   -2.965613   -2.572966
     11          6           0        2.425318    0.817700   -0.390075
     12          6           0        3.454823    1.269911    0.646077
     13          6           0        3.470095    2.786282    0.841471
     14          1           0        2.639893    1.309732   -1.348854
     15          1           0        1.428153    1.158935   -0.079969
     16          1           0        4.449628    0.927395    0.333566
     17          1           0        3.239200    0.776106    1.602256
     18          1           0        2.490232    3.141398    1.176675
     19          1           0        3.707537    3.293546   -0.099224
     20          1           0        4.213185    3.087618    1.586369
     21          6           0       -1.780649   -0.479518    0.593536
     22          6           0       -1.747142   -1.214649    1.933851
     23          6           0       -0.478512   -2.047621    2.119663
     24          1           0       -1.698527   -1.211856   -0.221255
     25          1           0       -0.898920    0.171865    0.518385
     26          1           0       -2.629394   -1.863409    2.007041
     27          1           0       -1.829546   -0.480491    2.745541
     28          1           0        0.410774   -1.410755    2.073045
     29          1           0       -0.393618   -2.801530    1.330349
     30          1           0       -0.475382   -2.564584    3.084339
     31          6           0       -3.042758    0.357513    0.393061
     32          6           0       -3.076266    1.092643   -0.947255
     33          6           0       -4.344897    1.925616   -1.133066
     34          1           0       -3.924487   -0.293871    0.468212
     35          1           0       -3.124880    1.089851    1.207851
     36          1           0       -2.993861    0.358487   -1.758944
     37          1           0       -2.194014    1.741405   -1.020444
     38          1           0       -4.429789    2.679524   -0.343752
     39          1           0       -5.234182    1.288750   -1.086449
     40          1           0       -4.348025    2.442579   -2.097742
 ---------------------------------------------------------------------

 SCF Done:  E(RHF) =  -470.731654989     A.U. after   11 cycles
 E2 =    -0.1585979788D+01 EUMP2 =    -0.47231763477709D+03

 The electronic state is 1-A.
 Alpha  occ. eigenvalues --  -11.21710 -11.21661 -11.21604 -11.21493 -11.21431
 Alpha  occ. eigenvalues --  -11.21370 -11.21354 -11.21240 -11.21184 -11.21113
 Alpha  occ. eigenvalues --  -11.21085 -11.20977  -1.08562  -1.08341  -1.03632
 Alpha  occ. eigenvalues --   -1.03450  -0.96078  -0.95930  -0.87098  -0.86943
 Alpha  occ. eigenvalues --   -0.79695  -0.79544  -0.78488  -0.78073  -0.65245
 Alpha  occ. eigenvalues --   -0.64948  -0.61045  -0.60878  -0.59403  -0.59306
 Alpha  occ. eigenvalues --   -0.57707  -0.57544  -0.55416  -0.55188  -0.52765
 Alpha  occ. eigenvalues --   -0.52655  -0.52532  -0.52343  -0.50158  -0.49745
 Alpha  occ. eigenvalues --   -0.48140  -0.47779  -0.46717  -0.46685  -0.46313
 Alpha  occ. eigenvalues --   -0.45744  -0.45586  -0.45012  -0.43871  -0.43712
 Alpha virt. eigenvalues --    0.19944   0.22586   0.23156   0.24761   0.25097
 Alpha virt. eigenvalues --    0.25779   0.26248   0.27880   0.29240   0.29863
 Alpha virt. eigenvalues --    0.30781   0.31297   0.31644   0.32189   0.32490

 Mulliken charges:
               1
     1  C   -0.302714
     2  C   -0.307897
     3  C   -0.478768
     4  H    0.149315
     5  H    0.154476
     6  H    0.150504
     7  H    0.163313
     8  H    0.157188
     9  H    0.154936
    10  H    0.158825
    11  C   -0.302866
    12  C   -0.299420
    13  C   -0.475582
    14  H    0.149930
    15  H    0.151450
    16  H    0.152443
    17  H    0.151067
    18  H    0.154493
    19  H    0.155372
    20  H    0.160332
    21  C   -0.308780
    22  C   -0.298691
    23  C   -0.482561
    24  H    0.153425
    25  H    0.156140
    26  H    0.152477
    27  H    0.152070
    28  H    0.158325
    29  H    0.158181
    30  H    0.161184
    31  C   -0.297068
    32  C   -0.300677
    33  C   -0.475639
    34  H    0.149822
    35  H    0.149626
    36  H    0.152310
    37  H    0.152210
    38  H    0.155282
    39  H    0.155314
    40  H    0.160653
 Sum of Mulliken charges =  -0.00000

 Dipole moment (field-independent basis, Debye):
    X=             -0.0763    Y=              0.0020    Z=              0.0360  Tot=              0.0844
 Quadrupole moment (field-independent basis, Debye-Ang):
   XX=            -84.8233   YY=            -85.7570   ZZ=            -84.2746
   XY=              0.9013   XZ=             -0.5292   YZ=              0.0817

 Normal termination of Gaussian 16 at Thu May  6 00:29:35 2021.
