 Gaussian 16, Revision A.03,
 Gaussian 16:  EM64L-G16RevA.03 25-Dec-2016

 -------------
 #p 6-31g* mp2
 -------------

 ------------------------------------------------------
 Input file generated by CHIRIPA (05-May-2021 14:57:25)
 ------------------------------------------------------
 Symbolic Z-matrix:
 Charge =  0 Multiplicity = 1

                         Standard orientation:
 ---------------------------------------------------------------------
 Center     Atomic      Atomic             Coordinates (Angstroms)
 Number     Number       Type             X           Y           Z
 ---------------------------------------------------------------------
      1          6           0        0.483776   -0.878120    1.560425
      2          6           0        1.199186    0.258369    1.951705
      3          6           0        2.375363    0.620260    1.288236
      4          6           0        2.809238   -0.180676    0.232989
      5          6           0        2.118621   -1.318865   -0.180368
      6          6           0        0.944963   -1.661728    0.497511
      7          1           0       -0.428929   -1.151855    2.081420
      8          1           0        0.843392    0.868799    2.776830
      9          1           0        2.948768    1.494907    1.570403
     10          1           0        2.498261   -1.907678   -1.006558
     11          1           0        0.391415   -2.544884    0.191463
     12          7           0        4.053071    0.192370   -0.477023
     13          8           0        4.414236   -0.529881   -1.403602
     14          8           0        4.643268    1.199951   -0.093507
     15          6           0       -3.062149   -2.237780   -0.271590
     16          6           0       -2.127263   -1.726886   -1.177954
     17          6           0       -1.865536   -0.354544   -1.230170
     18          6           0       -2.559970    0.481909   -0.357589
     19          6           0       -3.497236    0.003241    0.556576
     20          6           0       -3.742953   -1.372611    0.591262
     21          1           0       -3.259246   -3.305212   -0.237836
     22          1           0       -1.597051   -2.396425   -1.849248
     23          1           0       -1.146910    0.067750   -1.922022
     24          1           0       -4.010055    0.695557    1.213184
     25          1           0       -4.469535   -1.766571    1.296185
     26          7           0       -2.291367    1.936604   -0.403588
     27          8           0       -2.916438    2.652511    0.375771
     28          8           0       -1.460850    2.333342   -1.218130
 ---------------------------------------------------------------------

 SCF Done:  E(RHF) =  -868.335964964     A.U. after   16 cycles
 E2 =    -0.2604132974D+01 EUMP2 =    -0.87094009793868D+03

 The electronic state is 1-A.
 Alpha  occ. eigenvalues --  -20.61384 -20.61356 -20.60707 -20.60688 -15.86433
 Alpha  occ. eigenvalues --  -15.85756 -11.31963 -11.31171 -11.28616 -11.28534
 Alpha  occ. eigenvalues --  -11.28408 -11.27786 -11.27690 -11.27668 -11.27616
 Alpha  occ. eigenvalues --  -11.27466 -11.26811 -11.26716  -1.60447  -1.59773
 Alpha  occ. eigenvalues --   -1.39994  -1.39327  -1.20214  -1.19347  -1.09570
 Alpha  occ. eigenvalues --   -1.08735  -1.05640  -1.04763  -0.96357  -0.95559
 Alpha  occ. eigenvalues --   -0.87019  -0.86161  -0.83184  -0.82396  -0.78192
 Alpha  occ. eigenvalues --   -0.77439  -0.72645  -0.71976  -0.71782  -0.71291
 Alpha  occ. eigenvalues --   -0.71093  -0.70451  -0.65844  -0.65650  -0.65003
 Alpha  occ. eigenvalues --   -0.64786  -0.62953  -0.62122  -0.56125  -0.55289
 Alpha  occ. eigenvalues --   -0.54242  -0.53712  -0.52908  -0.52745  -0.49424
 Alpha  occ. eigenvalues --   -0.49388  -0.48742  -0.48724  -0.45360  -0.44723
 Alpha  occ. eigenvalues --   -0.38323  -0.37901  -0.36906  -0.35951
 Alpha virt. eigenvalues --    0.04303   0.05095   0.10279   0.11296   0.15642
 Alpha virt. eigenvalues --    0.16746   0.20150   0.21660   0.25781   0.27470
 Alpha virt. eigenvalues --    0.27957   0.28149   0.30014   0.30950   0.32159

 Mulliken charges:
               1
     1  C   -0.171758
     2  C   -0.219416
     3  C   -0.166885
     4  C    0.160241
     5  C   -0.176665
     6  C   -0.215483
     7  H    0.225516
     8  H    0.226479
     9  H    0.278231
    10  H    0.272181
    11  H    0.215320
    12  N    0.488354
    13  O   -0.462535
    14  O   -0.457812
    15  C   -0.176524
    16  C   -0.225187
    17  C   -0.160925
    18  C    0.158799
    19  C   -0.175396
    20  C   -0.222278
    21  H    0.227174
    22  H    0.223659
    23  H    0.280695
    24  H    0.277246
    25  H    0.225554
    26  N    0.487730
    27  O   -0.461178
    28  O   -0.455138
 Sum of Mulliken charges =  -0.00000

 Dipole moment (field-independent basis, Debye):
    X=             -5.3615    Y=             -6.1699    Z=              2.6227  Tot=              8.5844
 Quadrupole moment (field-independent basis, Debye-Ang):
   XX=           -123.4658   YY=           -107.1888   ZZ=           -100.0017
   XY=              9.9979   XZ=              3.7811   YZ=              4.5697

 Normal termination of Gaussian 16 at Thu May  6 08:19:41 2021.
