 Gaussian 16, Revision A.03,
 Gaussian 16:  EM64L-G16RevA.03 25-Dec-2016

 -------------
 #p 6-31g* mp2
 -------------

 ------------------------------------------------------
 Input file generated by CHIRIPA (05-May-2021 14:51:11)
 ------------------------------------------------------
 Symbolic Z-matrix:
 Charge =  0 Multiplicity = 1

                         Standard orientation:
 ---------------------------------------------------------------------
 Center     Atomic      Atomic             Coordinates (Angstroms)
 Number     Number       Type             X           Y           Z
 ---------------------------------------------------------------------
      1          6           0        2.992153    1.041782   -0.168235
      2          6           0        3.852239    2.244561    0.221072
      3          6           0        3.176554    3.580204   -0.090862
      4          1           0        2.761443    1.095905   -1.240983
      5          1           0        2.031221    1.100172    0.361477
      6          1           0        4.811805    2.183188   -0.308157
      7          1           0        4.081088    2.187466    1.292979
      8          1           0        2.228008    3.667389    0.448823
      9          1           0        2.962877    3.663086   -1.161410
     10          1           0        3.808790    4.426481    0.195413
     11          6           0        3.654096   -0.300648    0.137446
     12          6           0        2.794011   -1.503427   -0.251861
     13          6           0        3.469695   -2.839070    0.060072
     14          1           0        4.615028   -0.359038   -0.392267
     15          1           0        3.884806   -0.354772    1.210194
     16          1           0        2.565162   -1.446333   -1.323768
     17          1           0        1.834445   -1.442054    0.277367
     18          1           0        3.683373   -2.921953    1.130621
     19          1           0        4.418241   -2.926255   -0.479612
     20          1           0        2.837460   -3.685348   -0.226202
     21          6           0       -3.801001    0.091709   -0.360592
     22          6           0       -4.587758    1.027341    0.557881
     23          6           0       -5.539497    1.945958   -0.209015
     24          1           0       -3.231043    0.691552   -1.083284
     25          1           0       -4.506161   -0.515159   -0.945277
     26          1           0       -3.881312    1.631288    1.141660
     27          1           0       -5.155759    0.425206    1.278593
     28          1           0       -6.266695    1.358257   -0.778569
     29          1           0       -4.985007    2.571192   -0.916280
     30          1           0       -6.091763    2.606268    0.466893
     31          6           0       -2.845248   -0.832843    0.391382
     32          6           0       -2.058492   -1.768475   -0.527092
     33          6           0       -1.106752   -2.687091    0.239805
     34          1           0       -2.140088   -0.225975    0.976066
     35          1           0       -3.415206   -1.432685    1.114073
     36          1           0       -1.490490   -1.166340   -1.247803
     37          1           0       -2.764937   -2.372422   -1.110871
     38          1           0       -1.661243   -3.312326    0.947069
     39          1           0       -0.379555   -2.099391    0.809358
     40          1           0       -0.554486   -3.347402   -0.436105
 ---------------------------------------------------------------------

 SCF Done:  E(RHF) =  -470.733146584     A.U. after   11 cycles
 E2 =    -0.1582721705D+01 EUMP2 =    -0.47231586828992D+03

 The electronic state is 1-A.
 Alpha  occ. eigenvalues --  -11.21619 -11.21606 -11.21598 -11.21541 -11.21414
 Alpha  occ. eigenvalues --  -11.21412 -11.21352 -11.21346 -11.21094 -11.21072
 Alpha  occ. eigenvalues --  -11.21064 -11.21036  -1.08443  -1.08421  -1.03556
 Alpha  occ. eigenvalues --   -1.03498  -0.96005  -0.95953  -0.87013  -0.86979
 Alpha  occ. eigenvalues --   -0.79654  -0.79532  -0.78268  -0.78223  -0.65129
 Alpha  occ. eigenvalues --   -0.65008  -0.61072  -0.60803  -0.59409  -0.59283
 Alpha  occ. eigenvalues --   -0.57606  -0.57574  -0.55350  -0.55192  -0.52709
 Alpha  occ. eigenvalues --   -0.52630  -0.52435  -0.52373  -0.50052  -0.49833
 Alpha  occ. eigenvalues --   -0.47984  -0.47833  -0.46794  -0.46458  -0.45849
 Alpha  occ. eigenvalues --   -0.45760  -0.45747  -0.45547  -0.43786  -0.43777
 Alpha virt. eigenvalues --    0.21342   0.23192   0.23517   0.24854   0.25921
 Alpha virt. eigenvalues --    0.26735   0.27064   0.27470   0.27863   0.29052
 Alpha virt. eigenvalues --    0.30097   0.31131   0.31554   0.31936   0.32588

 Mulliken charges:
               1
     1  C   -0.298011
     2  C   -0.299615
     3  C   -0.475691
     4  H    0.149568
     5  H    0.148347
     6  H    0.152120
     7  H    0.152005
     8  H    0.154908
     9  H    0.155141
    10  H    0.160385
    11  C   -0.297906
    12  C   -0.305675
    13  C   -0.475664
    14  H    0.149440
    15  H    0.149419
    16  H    0.151320
    17  H    0.158910
    18  H    0.154958
    19  H    0.154901
    20  H    0.160742
    21  C   -0.298362
    22  C   -0.299631
    23  C   -0.475726
    24  H    0.149891
    25  H    0.149563
    26  H    0.151812
    27  H    0.151911
    28  H    0.155189
    29  H    0.155280
    30  H    0.160253
    31  C   -0.298216
    32  C   -0.300269
    33  C   -0.478600
    34  H    0.148963
    35  H    0.149644
    36  H    0.152866
    37  H    0.151952
    38  H    0.155038
    39  H    0.158027
    40  H    0.160815
 Sum of Mulliken charges =  -0.00000

 Dipole moment (field-independent basis, Debye):
    X=             -0.0111    Y=             -0.0115    Z=             -0.0042  Tot=              0.0165
 Quadrupole moment (field-independent basis, Debye-Ang):
   XX=            -84.7813   YY=            -85.9158   ZZ=            -84.1054
   XY=              1.4384   XZ=             -0.8015   YZ=              0.4162

 Normal termination of Gaussian 16 at Thu May  6 03:51:58 2021.
