 Gaussian 16, Revision A.03,
 Gaussian 16:  EM64L-G16RevA.03 25-Dec-2016

 -------------
 #p 6-31g* mp2
 -------------

 ------------------------------------------------------
 Input file generated by CHIRIPA (05-May-2021 14:53:15)
 ------------------------------------------------------
 Symbolic Z-matrix:
 Charge =  0 Multiplicity = 1

                         Standard orientation:
 ---------------------------------------------------------------------
 Center     Atomic      Atomic             Coordinates (Angstroms)
 Number     Number       Type             X           Y           Z
 ---------------------------------------------------------------------
      1          6           0       -3.580354   -0.304193   -0.035844
      2          6           0       -5.018925   -0.738301   -0.318772
      3          6           0       -5.165120   -2.255222   -0.442763
      4          1           0       -2.928180   -0.672364   -0.839625
      5          1           0       -3.235556   -0.783677    0.890765
      6          1           0       -5.361380   -0.257052   -1.243835
      7          1           0       -5.667780   -0.368890    0.485677
      8          1           0       -4.849629   -2.749497    0.481768
      9          1           0       -4.541488   -2.637024   -1.257570
     10          1           0       -6.201398   -2.543477   -0.644990
     11          6           0       -3.418132    1.209536    0.090780
     12          6           0       -1.979560    1.643644    0.373708
     13          6           0       -1.833366    3.160565    0.497699
     14          1           0       -3.762930    1.689020   -0.835829
     15          1           0       -4.070305    1.577707    0.894561
     16          1           0       -1.330706    1.274233   -0.430741
     17          1           0       -1.637106    1.162395    1.298771
     18          1           0       -2.456998    3.542367    1.312506
     19          1           0       -2.148857    3.654840   -0.426832
     20          1           0       -0.797087    3.448820    0.699926
     21          6           0        3.317315    2.064686   -0.442249
     22          6           0        1.987645    1.694755   -0.214984
     23          6           0        1.652748    0.357774    0.019265
     24          6           0        2.677370   -0.587445    0.019221
     25          6           0        4.011442   -0.250210   -0.203969
     26          6           0        4.323197    1.092737   -0.436027
     27          1           0        3.568483    3.105603   -0.623368
     28          1           0        1.204390    2.447441   -0.219239
     29          1           0        0.631558    0.043735    0.198064
     30          1           0        4.770362   -1.023094   -0.193644
     31          1           0        5.356695    1.377133   -0.612224
     32          7           0        2.335079   -2.006006    0.266050
     33          8           0        3.256234   -2.819690    0.260876
     34          8           0        1.152117   -2.277327    0.460015
 ---------------------------------------------------------------------

 SCF Done:  E(RHF) =  -669.534961434     A.U. after   15 cycles
 E2 =    -0.2092601292D+01 EUMP2 =    -0.67162756272594D+03

 The electronic state is 1-A.
 Alpha  occ. eigenvalues --  -20.60698 -20.60693 -15.85748 -11.31076 -11.27671
 Alpha  occ. eigenvalues --  -11.27578 -11.27408 -11.26684 -11.26622 -11.22450
 Alpha  occ. eigenvalues --  -11.22029 -11.21817 -11.21606 -11.21454 -11.20899
 Alpha  occ. eigenvalues --   -1.59773  -1.39327  -1.19258  -1.08795  -1.08663
 Alpha  occ. eigenvalues --   -1.04668  -1.03917  -0.96347  -0.95501  -0.87371
 Alpha  occ. eigenvalues --   -0.86057  -0.82344  -0.80082  -0.78521  -0.77363
 Alpha  occ. eigenvalues --   -0.71968  -0.71096  -0.70376  -0.65425  -0.64910
 Alpha  occ. eigenvalues --   -0.64691  -0.62166  -0.61273  -0.59717  -0.57923
 Alpha  occ. eigenvalues --   -0.55599  -0.55157  -0.53150  -0.53020  -0.52985
 Alpha  occ. eigenvalues --   -0.52456  -0.50271  -0.48736  -0.48723  -0.48297
 Alpha  occ. eigenvalues --   -0.47080  -0.46042  -0.45916  -0.44740  -0.44144
 Alpha  occ. eigenvalues --   -0.37250  -0.36256
 Alpha virt. eigenvalues --    0.05126   0.11370   0.16583   0.19847   0.22925
 Alpha virt. eigenvalues --    0.23899   0.25525   0.26281   0.26430   0.28464
 Alpha virt. eigenvalues --    0.29579   0.30657   0.31043   0.31608   0.32901

 Mulliken charges:
               1
     1  C   -0.300851
     2  C   -0.300229
     3  C   -0.476129
     4  H    0.152949
     5  H    0.155082
     6  H    0.150891
     7  H    0.151439
     8  H    0.158380
     9  H    0.157814
    10  H    0.159692
    11  C   -0.297313
    12  C   -0.310301
    13  C   -0.479159
    14  H    0.150374
    15  H    0.151882
    16  H    0.148110
    17  H    0.157316
    18  H    0.162281
    19  H    0.158390
    20  H    0.151923
    21  C   -0.171887
    22  C   -0.227118
    23  C   -0.179811
    24  C    0.159557
    25  C   -0.170678
    26  C   -0.218912
    27  H    0.225518
    28  H    0.232487
    29  H    0.283668
    30  H    0.275143
    31  H    0.222985
    32  N    0.488096
    33  O   -0.460919
    34  O   -0.460672
 Sum of Mulliken charges =  -0.00000

 Dipole moment (field-independent basis, Debye):
    X=              0.9657    Y=              4.9305    Z=             -0.8335  Tot=              5.0929
 Quadrupole moment (field-independent basis, Debye-Ang):
   XX=            -83.1862   YY=           -102.0591   ZZ=            -94.5868
   XY=             11.2123   XZ=             -3.2087   YZ=              0.5758

 Normal termination of Gaussian 16 at Wed May  5 17:09:12 2021.
