 Gaussian 16, Revision A.03,
 Gaussian 16:  EM64L-G16RevA.03 25-Dec-2016

 -------------
 #p 6-31g* mp2
 -------------

 ------------------------------------------------------
 Input file generated by CHIRIPA (05-May-2021 14:51:12)
 ------------------------------------------------------
 Symbolic Z-matrix:
 Charge =  0 Multiplicity = 1

                         Standard orientation:
 ---------------------------------------------------------------------
 Center     Atomic      Atomic             Coordinates (Angstroms)
 Number     Number       Type             X           Y           Z
 ---------------------------------------------------------------------
      1          6           0        4.236783    0.765589   -0.020160
      2          6           0        5.709355    1.168760    0.063336
      3          6           0        5.910451    2.683999    0.025861
      4          1           0        3.803893    1.171604   -0.944661
      5          1           0        3.689012    1.229783    0.811625
      6          1           0        6.254447    0.702823   -0.767564
      7          1           0        6.138839    0.761576    0.987652
      8          1           0        5.391909    3.162255    0.863111
      9          1           0        5.508173    3.103169   -0.902078
     10          1           0        6.970367    2.949945    0.086770
     11          6           0        4.019562   -0.746107    0.016134
     12          6           0        2.546990   -1.149278   -0.067361
     13          6           0        2.345895   -2.664517   -0.029886
     14          1           0        4.567333   -1.210301   -0.815650
     15          1           0        4.452452   -1.152122    0.940636
     16          1           0        2.117506   -0.742094   -0.991677
     17          1           0        2.001899   -0.683341    0.763538
     18          1           0        2.748172   -3.083687    0.898053
     19          1           0        2.864436   -3.142773   -0.867136
     20          1           0        1.285978   -2.930463   -0.090796
     21          6           0       -4.308653    0.723639   -0.112060
     22          6           0       -5.779451    1.036367    0.165318
     23          6           0       -6.125096    2.507488   -0.067339
     24          1           0       -3.678801    1.355568    0.528952
     25          1           0       -4.072220    0.997136   -1.149699
     26          1           0       -6.013391    0.761076    1.201707
     27          1           0       -6.405878    0.403483   -0.476291
     28          1           0       -5.919592    2.792161   -1.104321
     29          1           0       -5.524875    3.151784    0.583213
     30          1           0       -7.181331    2.708863    0.136802
     31          6           0       -3.947692   -0.743121    0.116085
     32          6           0       -2.476894   -1.055849   -0.161293
     33          6           0       -2.131250   -2.526969    0.071364
     34          1           0       -4.184124   -1.016618    1.153724
     35          1           0       -4.577544   -1.375050   -0.524927
     36          1           0       -1.850467   -0.422966    0.480317
     37          1           0       -2.242955   -0.780557   -1.197683
     38          1           0       -2.731471   -3.171266   -0.579188
     39          1           0       -2.336753   -2.811644    1.108346
     40          1           0       -1.075014   -2.728346   -0.132777
 ---------------------------------------------------------------------

 SCF Done:  E(RHF) =  -470.733347487     A.U. after   11 cycles
 E2 =    -0.1582302030D+01 EUMP2 =    -0.47231564951772D+03

 The electronic state is 1-A.
 Alpha  occ. eigenvalues --  -11.21603 -11.21602 -11.21600 -11.21598 -11.21406
 Alpha  occ. eigenvalues --  -11.21403 -11.21346 -11.21343 -11.21072 -11.21071
 Alpha  occ. eigenvalues --  -11.21070 -11.21070  -1.08434  -1.08425  -1.03547
 Alpha  occ. eigenvalues --   -1.03514  -0.96016  -0.95950  -0.87044  -0.86956
 Alpha  occ. eigenvalues --   -0.79617  -0.79565  -0.78248  -0.78232  -0.65063
 Alpha  occ. eigenvalues --   -0.65054  -0.60935  -0.60914  -0.59644  -0.59146
 Alpha  occ. eigenvalues --   -0.57762  -0.57404  -0.55273  -0.55257  -0.52963
 Alpha  occ. eigenvalues --   -0.52540  -0.52460  -0.52190  -0.49925  -0.49914
 Alpha  occ. eigenvalues --   -0.48001  -0.47814  -0.46637  -0.46610  -0.45802
 Alpha  occ. eigenvalues --   -0.45764  -0.45716  -0.45698  -0.43931  -0.43624
 Alpha virt. eigenvalues --    0.21489   0.23036   0.23340   0.25099   0.26481
 Alpha virt. eigenvalues --    0.26667   0.26777   0.27296   0.27768   0.28808
 Alpha virt. eigenvalues --    0.29878   0.31201   0.31537   0.31649   0.32186

 Mulliken charges:
               1
     1  C   -0.298242
     2  C   -0.299664
     3  C   -0.475704
     4  H    0.149723
     5  H    0.149468
     6  H    0.151940
     7  H    0.151933
     8  H    0.155158
     9  H    0.155201
    10  H    0.160255
    11  C   -0.298375
    12  C   -0.299146
    13  C   -0.483412
    14  H    0.149571
    15  H    0.149672
    16  H    0.152134
    17  H    0.151932
    18  H    0.155539
    19  H    0.155395
    20  H    0.166542
    21  C   -0.298219
    22  C   -0.299649
    23  C   -0.475700
    24  H    0.149677
    25  H    0.149530
    26  H    0.151914
    27  H    0.151938
    28  H    0.155182
    29  H    0.155181
    30  H    0.160244
    31  C   -0.298564
    32  C   -0.298814
    33  C   -0.483757
    34  H    0.149498
    35  H    0.149654
    36  H    0.152290
    37  H    0.151869
    38  H    0.155420
    39  H    0.155394
    40  H    0.166992
 Sum of Mulliken charges =  -0.00000

 Dipole moment (field-independent basis, Debye):
    X=              0.0012    Y=              0.0023    Z=             -0.0011  Tot=              0.0028
 Quadrupole moment (field-independent basis, Debye-Ang):
   XX=            -85.0280   YY=            -86.9795   ZZ=            -82.7621
   XY=              0.1327   XZ=              0.1165   YZ=              0.3900

 Normal termination of Gaussian 16 at Thu May  6 05:31:45 2021.
