 Gaussian 16, Revision A.03,
 Gaussian 16:  EM64L-G16RevA.03 25-Dec-2016

 -------------
 #p 6-31g* mp2
 -------------

 ------------------------------------------------------
 Input file generated by CHIRIPA (05-May-2021 14:51:07)
 ------------------------------------------------------
 Symbolic Z-matrix:
 Charge =  0 Multiplicity = 1

                         Standard orientation:
 ---------------------------------------------------------------------
 Center     Atomic      Atomic             Coordinates (Angstroms)
 Number     Number       Type             X           Y           Z
 ---------------------------------------------------------------------
      1          6           0       -5.627756   -0.403198    0.222707
      2          6           0       -6.874727    0.000704   -0.564638
      3          6           0       -8.118807   -0.782334   -0.144033
      4          1           0       -5.448918   -1.478691    0.087519
      5          1           0       -5.813779   -0.249594    1.294713
      6          1           0       -6.685918   -0.152311   -1.634943
      7          1           0       -7.050507    1.075399   -0.427714
      8          1           0       -8.334937   -0.621210    0.917065
      9          1           0       -7.968277   -1.855896   -0.297024
     10          1           0       -8.998513   -0.477699   -0.719511
     11          6           0       -4.375873    0.370849   -0.186397
     12          6           0       -3.128902   -0.033053    0.600948
     13          6           0       -1.884822    0.749985    0.180343
     14          1           0       -4.189850    0.217245   -1.258403
     15          1           0       -4.554711    1.446342   -0.051209
     16          1           0       -2.953122   -1.107748    0.464024
     17          1           0       -3.317711    0.119962    1.671253
     18          1           0       -2.035352    1.823547    0.333334
     19          1           0       -1.668692    0.588861   -0.880755
     20          1           0       -1.005116    0.445350    0.755821
     21          6           0        4.282801   -0.167468    0.162750
     22          6           0        3.282496    0.955729   -0.112578
     23          6           0        1.848351    0.573224    0.254452
     24          1           0        3.984572   -1.061846   -0.401247
     25          1           0        4.235457   -0.438568    1.226544
     26          1           0        3.332701    1.225578   -1.175253
     27          1           0        3.583248    1.847597    0.451990
     28          1           0        1.776341    0.323884    1.318052
     29          1           0        1.524370   -0.301668   -0.318436
     30          1           0        1.149905    1.390568    0.049560
     31          6           0        5.720829    0.199817   -0.199060
     32          6           0        6.721133   -0.923380    0.076268
     33          6           0        8.155278   -0.540875   -0.290762
     34          1           0        5.768172    0.470917   -1.262855
     35          1           0        6.019056    1.094194    0.364937
     36          1           0        6.420381   -1.815247   -0.488301
     37          1           0        6.670929   -1.193229    1.138942
     38          1           0        8.479260    0.334017    0.282126
     39          1           0        8.227288   -0.291535   -1.354362
     40          1           0        8.853725   -1.358218   -0.085871
 ---------------------------------------------------------------------

 SCF Done:  E(RHF) =  -470.732694358     A.U. after   11 cycles
 E2 =    -0.1582449838D+01 EUMP2 =    -0.47231514419604D+03

 The electronic state is 1-A.
 Alpha  occ. eigenvalues --  -11.21588 -11.21571 -11.21551 -11.21516 -11.21381
 Alpha  occ. eigenvalues --  -11.21356 -11.21322 -11.21294 -11.21061 -11.21048
 Alpha  occ. eigenvalues --  -11.20995 -11.20904  -1.08407  -1.08374  -1.03525
 Alpha  occ. eigenvalues --   -1.03448  -0.96030  -0.95849  -0.87117  -0.86804
 Alpha  occ. eigenvalues --   -0.79673  -0.79438  -0.78224  -0.78186  -0.65038
 Alpha  occ. eigenvalues --   -0.65006  -0.60917  -0.60850  -0.59559  -0.59088
 Alpha  occ. eigenvalues --   -0.57564  -0.57527  -0.55285  -0.55165  -0.53107
 Alpha  occ. eigenvalues --   -0.52439  -0.52300  -0.52102  -0.49948  -0.49811
 Alpha  occ. eigenvalues --   -0.47933  -0.47801  -0.46627  -0.46546  -0.45763
 Alpha  occ. eigenvalues --   -0.45731  -0.45688  -0.45658  -0.44005  -0.43414
 Alpha virt. eigenvalues --    0.22692   0.22951   0.23768   0.24624   0.26631
 Alpha virt. eigenvalues --    0.26693   0.26867   0.27418   0.27625   0.29063
 Alpha virt. eigenvalues --    0.30416   0.30831   0.31394   0.31643   0.32284

 Mulliken charges:
               1
     1  C   -0.298161
     2  C   -0.299548
     3  C   -0.475658
     4  H    0.149501
     5  H    0.149392
     6  H    0.151821
     7  H    0.151849
     8  H    0.155127
     9  H    0.155115
    10  H    0.160129
    11  C   -0.298441
    12  C   -0.300015
    13  C   -0.481097
    14  H    0.149239
    15  H    0.149376
    16  H    0.151565
    17  H    0.151397
    18  H    0.153346
    19  H    0.154356
    20  H    0.171065
    21  C   -0.298437
    22  C   -0.300766
    23  C   -0.478423
    24  H    0.149452
    25  H    0.149312
    26  H    0.151824
    27  H    0.151694
    28  H    0.153490
    29  H    0.155515
    30  H    0.166164
    31  C   -0.298234
    32  C   -0.299575
    33  C   -0.475682
    34  H    0.149470
    35  H    0.149596
    36  H    0.151870
    37  H    0.151866
    38  H    0.155158
    39  H    0.155157
    40  H    0.160191
 Sum of Mulliken charges =  -0.00000

 Dipole moment (field-independent basis, Debye):
    X=              0.0221    Y=              0.0074    Z=              0.0042  Tot=              0.0237
 Quadrupole moment (field-independent basis, Debye-Ang):
   XX=            -87.2599   YY=            -84.4055   ZZ=            -83.4759
   XY=             -0.6871   XZ=              0.3940   YZ=              0.9983

 Normal termination of Gaussian 16 at Thu May  6 11:31:05 2021.
