 Gaussian 16, Revision A.03,
 Gaussian 16:  EM64L-G16RevA.03 25-Dec-2016

 -------------
 #p 6-31g* mp2
 -------------

 ------------------------------------------------------
 Input file generated by CHIRIPA (05-May-2021 14:53:14)
 ------------------------------------------------------
 Symbolic Z-matrix:
 Charge =  0 Multiplicity = 1

                         Standard orientation:
 ---------------------------------------------------------------------
 Center     Atomic      Atomic             Coordinates (Angstroms)
 Number     Number       Type             X           Y           Z
 ---------------------------------------------------------------------
      1          6           0        3.372777    0.848004    0.120319
      2          6           0        2.164509    1.727314   -0.203542
      3          6           0        2.356647    3.180039    0.232884
      4          1           0        3.566095    0.885146    1.201149
      5          1           0        4.262949    1.264737   -0.370929
      6          1           0        1.276619    1.308269    0.287039
      7          1           0        1.973928    1.687923   -1.283701
      8          1           0        3.225635    3.620587   -0.266493
      9          1           0        2.524365    3.238776    1.313172
     10          1           0        1.481038    3.790814   -0.008203
     11          6           0        3.195818   -0.607087   -0.309941
     12          6           0        4.404086   -1.486396    0.013920
     13          6           0        4.211948   -2.939121   -0.422507
     14          1           0        2.305646   -1.023819    0.181306
     15          1           0        3.002500   -0.644228   -1.390771
     16          1           0        4.594667   -1.447005    1.094079
     17          1           0        5.291975   -1.067351   -0.476661
     18          1           0        4.044230   -2.997858   -1.502794
     19          1           0        3.342960   -3.379669    0.076870
     20          1           0        5.087557   -3.549896   -0.181419
     21          6           0       -3.153709   -2.542612    0.232766
     22          6           0       -2.324425   -1.957988    1.195587
     23          6           0       -1.992103   -0.602247    1.117634
     24          6           0       -2.509026    0.142604    0.058730
     25          6           0       -3.337689   -0.410998   -0.916019
     26          6           0       -3.656807   -1.768616   -0.818110
     27          1           0       -3.406736   -3.596513    0.301073
     28          1           0       -1.932262   -2.556651    2.012812
     29          1           0       -1.352240   -0.124174    1.849370
     30          1           0       -3.713342    0.211411   -1.719081
     31          1           0       -4.301065   -2.219972   -1.567279
     32          7           0       -2.164201    1.578859   -0.034359
     33          8           0       -2.632506    2.213434   -0.977038
     34          8           0       -1.432151    2.042826    0.837120
 ---------------------------------------------------------------------

 SCF Done:  E(RHF) =  -669.536287456     A.U. after   15 cycles
 E2 =    -0.2091621049D+01 EUMP2 =    -0.67162790850475D+03

 The electronic state is 1-A.
 Alpha  occ. eigenvalues --  -20.60959 -20.60947 -15.85967 -11.31287 -11.27854
 Alpha  occ. eigenvalues --  -11.27843 -11.27582 -11.26859 -11.26848 -11.21458
 Alpha  occ. eigenvalues --  -11.21120 -11.21062 -11.20834 -11.20652 -11.19961
 Alpha  occ. eigenvalues --   -1.60002  -1.39561  -1.19453  -1.08858  -1.07989
 Alpha  occ. eigenvalues --   -1.04851  -1.02991  -0.95704  -0.95455  -0.86483
 Alpha  occ. eigenvalues --   -0.86252  -0.82538  -0.79115  -0.77769  -0.77573
 Alpha  occ. eigenvalues --   -0.72197  -0.71308  -0.70564  -0.65113  -0.64857
 Alpha  occ. eigenvalues --   -0.64630  -0.62201  -0.60393  -0.58873  -0.57022
 Alpha  occ. eigenvalues --   -0.55355  -0.54774  -0.53177  -0.52945  -0.52115
 Alpha  occ. eigenvalues --   -0.51886  -0.49446  -0.48967  -0.48948  -0.47413
 Alpha  occ. eigenvalues --   -0.46207  -0.45468  -0.45267  -0.44636  -0.43250
 Alpha  occ. eigenvalues --   -0.37427  -0.36450
 Alpha virt. eigenvalues --    0.04907   0.11169   0.16376   0.21217   0.23178
 Alpha virt. eigenvalues --    0.24816   0.26500   0.27352   0.27669   0.28507
 Alpha virt. eigenvalues --    0.28612   0.30626   0.31689   0.32023   0.32821

 Mulliken charges:
               1
     1  C   -0.298159
     2  C   -0.303233
     3  C   -0.474938
     4  H    0.147331
     5  H    0.148040
     6  H    0.159500
     7  H    0.148932
     8  H    0.148356
     9  H    0.152028
    10  H    0.174254
    11  C   -0.296485
    12  C   -0.299081
    13  C   -0.474836
    14  H    0.143923
    15  H    0.149302
    16  H    0.150817
    17  H    0.152701
    18  H    0.155077
    19  H    0.151492
    20  H    0.159518
    21  C   -0.170486
    22  C   -0.218422
    23  C   -0.171594
    24  C    0.159179
    25  C   -0.170746
    26  C   -0.218410
    27  H    0.226059
    28  H    0.223771
    29  H    0.275564
    30  H    0.275811
    31  H    0.223860
    32  N    0.488536
    33  O   -0.458671
    34  O   -0.458988
 Sum of Mulliken charges =  -0.00000

 Dipole moment (field-independent basis, Debye):
    X=             -1.4561    Y=             -4.9514    Z=              0.3182  Tot=              5.1709
 Quadrupole moment (field-independent basis, Debye-Ang):
   XX=            -88.1195   YY=            -97.7640   ZZ=            -90.7861
   XY=             12.6240   XZ=              1.4549   YZ=             -1.1245

 Normal termination of Gaussian 16 at Thu May  6 05:51:00 2021.
