 Gaussian 16, Revision A.03,
 Gaussian 16:  EM64L-G16RevA.03 25-Dec-2016

 -------------
 #p 6-31g* mp2
 -------------

 ------------------------------------------------------
 Input file generated by CHIRIPA (05-May-2021 14:51:10)
 ------------------------------------------------------
 Symbolic Z-matrix:
 Charge =  0 Multiplicity = 1

                         Standard orientation:
 ---------------------------------------------------------------------
 Center     Atomic      Atomic             Coordinates (Angstroms)
 Number     Number       Type             X           Y           Z
 ---------------------------------------------------------------------
      1          6           0       -3.004310   -0.352698    0.927415
      2          6           0       -1.536422   -0.003546    0.679661
      3          6           0       -0.681390   -0.113319    1.942462
      4          1           0       -3.406895    0.312545    1.703509
      5          1           0       -3.068572   -1.374184    1.327205
      6          1           0       -1.475049    1.016476    0.279157
      7          1           0       -1.137337   -0.669571   -0.096070
      8          1           0       -0.712862   -1.132275    2.341634
      9          1           0       -1.052492    0.563352    2.718993
     10          1           0        0.364286    0.140605    1.742606
     11          6           0       -3.871849   -0.247607   -0.325606
     12          6           0       -5.339737   -0.596758   -0.077851
     13          6           0       -6.194768   -0.486985   -1.340652
     14          1           0       -3.807586    0.773879   -0.725395
     15          1           0       -3.469263   -0.912850   -1.101699
     16          1           0       -5.738821    0.069267    0.697879
     17          1           0       -5.401110   -1.616781    0.322653
     18          1           0       -5.823666   -1.163656   -2.117183
     19          1           0       -6.163296    0.531971   -1.739825
     20          1           0       -7.240445   -0.740910   -1.140796
     21          6           0        3.088724    0.929862   -0.046252
     22          6           0        1.728720    1.175442   -0.700520
     23          6           0        1.042173    2.438876   -0.180731
     24          1           0        2.957011    0.856054    1.041933
     25          1           0        3.735973    1.799749   -0.224472
     26          1           0        1.084691    0.304763   -0.522301
     27          1           0        1.863660    1.248483   -1.787292
     28          1           0        1.661947    3.320755   -0.372487
     29          1           0        0.878552    2.371674    0.899692
     30          1           0        0.071595    2.595215   -0.661770
     31          6           0        3.787435   -0.329558   -0.555557
     32          6           0        5.147438   -0.575137    0.098711
     33          6           0        5.833986   -1.838571   -0.421079
     34          1           0        3.140185   -1.199444   -0.377339
     35          1           0        3.919148   -0.255750   -1.643743
     36          1           0        5.012499   -0.648179    1.185482
     37          1           0        5.791467    0.295541   -0.079509
     38          1           0        5.997607   -1.771370   -1.501501
     39          1           0        5.214212   -2.720451   -0.229323
     40          1           0        6.804564   -1.994911    0.059959
 ---------------------------------------------------------------------

 SCF Done:  E(RHF) =  -470.730663547     A.U. after   11 cycles
 E2 =    -0.1585470764D+01 EUMP2 =    -0.47231613431164D+03

 The electronic state is 1-A.
 Alpha  occ. eigenvalues --  -11.21602 -11.21596 -11.21548 -11.21503 -11.21401
 Alpha  occ. eigenvalues --  -11.21401 -11.21343 -11.21340 -11.21073 -11.21067
 Alpha  occ. eigenvalues --  -11.21063 -11.21008  -1.08498  -1.08365  -1.03698
 Alpha  occ. eigenvalues --   -1.03370  -0.96111  -0.95858  -0.87013  -0.86990
 Alpha  occ. eigenvalues --   -0.79663  -0.79543  -0.78335  -0.78150  -0.65169
 Alpha  occ. eigenvalues --   -0.65063  -0.61329  -0.60931  -0.59404  -0.59101
 Alpha  occ. eigenvalues --   -0.57703  -0.57382  -0.55400  -0.55044  -0.52699
 Alpha  occ. eigenvalues --   -0.52664  -0.52466  -0.52301  -0.49926  -0.49918
 Alpha  occ. eigenvalues --   -0.47971  -0.47862  -0.46776  -0.46463  -0.45897
 Alpha  occ. eigenvalues --   -0.45763  -0.45693  -0.45491  -0.43786  -0.43735
 Alpha virt. eigenvalues --    0.20951   0.23041   0.23693   0.25313   0.25872
 Alpha virt. eigenvalues --    0.26238   0.26699   0.27626   0.27903   0.29348
 Alpha virt. eigenvalues --    0.30524   0.30940   0.31432   0.31826   0.32912

 Mulliken charges:
               1
     1  C   -0.297122
     2  C   -0.305827
     3  C   -0.482372
     4  H    0.149517
     5  H    0.149150
     6  H    0.159676
     7  H    0.151256
     8  H    0.155041
     9  H    0.155258
    10  H    0.166002
    11  C   -0.298253
    12  C   -0.299634
    13  C   -0.475709
    14  H    0.149140
    15  H    0.149633
    16  H    0.151973
    17  H    0.151953
    18  H    0.155174
    19  H    0.155164
    20  H    0.160269
    21  C   -0.300044
    22  C   -0.308962
    23  C   -0.479242
    24  H    0.149755
    25  H    0.149893
    26  H    0.161226
    27  H    0.152838
    28  H    0.155518
    29  H    0.157932
    30  H    0.160565
    31  C   -0.298063
    32  C   -0.299680
    33  C   -0.475720
    34  H    0.149321
    35  H    0.149779
    36  H    0.152062
    37  H    0.151961
    38  H    0.155138
    39  H    0.155165
    40  H    0.160270
 Sum of Mulliken charges =  -0.00000

 Dipole moment (field-independent basis, Debye):
    X=             -0.0116    Y=              0.0120    Z=             -0.0086  Tot=              0.0188
 Quadrupole moment (field-independent basis, Debye-Ang):
   XX=            -85.6190   YY=            -84.3459   ZZ=            -85.0158
   XY=              0.5425   XZ=             -0.7968   YZ=             -0.3531

 Normal termination of Gaussian 16 at Wed May  5 18:13:16 2021.
