 Gaussian 16, Revision A.03,
 Gaussian 16:  EM64L-G16RevA.03 25-Dec-2016

 -------------
 #p 6-31g* mp2
 -------------

 ------------------------------------------------------
 Input file generated by CHIRIPA (05-May-2021 14:53:12)
 ------------------------------------------------------
 Symbolic Z-matrix:
 Charge =  0 Multiplicity = 1

                         Standard orientation:
 ---------------------------------------------------------------------
 Center     Atomic      Atomic             Coordinates (Angstroms)
 Number     Number       Type             X           Y           Z
 ---------------------------------------------------------------------
      1          6           0       -3.685752    0.252427    1.035103
      2          6           0       -2.590330    1.310558    0.899477
      3          6           0       -1.874065    1.592620    2.220537
      4          1           0       -4.415810    0.583796    1.786206
      5          1           0       -3.242585   -0.677004    1.418713
      6          1           0       -3.035186    2.237295    0.514927
      7          1           0       -1.862897    0.976720    0.148471
      8          1           0       -1.404023    0.682068    2.605967
      9          1           0       -2.582973    1.949804    2.974506
     10          1           0       -1.095020    2.351949    2.100674
     11          6           0       -4.410924   -0.040472   -0.277171
     12          6           0       -5.506346   -1.098603   -0.141544
     13          6           0       -6.222611   -1.380664   -1.462604
     14          1           0       -4.854091    0.888959   -0.660781
     15          1           0       -3.680866   -0.371840   -1.028273
     16          1           0       -6.233779   -0.764765    0.609462
     17          1           0       -5.061490   -2.025339    0.243006
     18          1           0       -5.513703   -1.737849   -2.216573
     19          1           0       -6.692653   -0.470112   -1.848035
     20          1           0       -7.001656   -2.139993   -1.342741
     21          6           0        1.620039    1.605484   -1.361731
     22          6           0        1.115389    0.379279   -0.916452
     23          6           0        1.960948   -0.563680   -0.324501
     24          6           0        3.311909   -0.246012   -0.193043
     25          6           0        3.844756    0.966958   -0.626711
     26          6           0        2.980713    1.894900   -1.215697
     27          1           0        0.956009    2.332164   -1.820421
     28          1           0        0.059108    0.151805   -1.028565
     29          1           0        1.596782   -1.520666    0.029020
     30          1           0        4.902302    1.165146   -0.501269
     31          1           0        3.375410    2.846378   -1.560584
     32          7           0        4.216849   -1.236331    0.432059
     33          8           0        5.403170   -0.932344    0.536322
     34          8           0        3.722683   -2.297778    0.805915
 ---------------------------------------------------------------------

 SCF Done:  E(RHF) =  -669.535429891     A.U. after   15 cycles
 E2 =    -0.2091290708D+01 EUMP2 =    -0.67162672059911D+03

 The electronic state is 1-A.
 Alpha  occ. eigenvalues --  -20.60767 -20.60762 -15.85821 -11.31191 -11.27765
 Alpha  occ. eigenvalues --  -11.27761 -11.27504 -11.26775 -11.26761 -11.22438
 Alpha  occ. eigenvalues --  -11.22113 -11.22062 -11.22006 -11.21663 -11.21510
 Alpha  occ. eigenvalues --   -1.59843  -1.39396  -1.19366  -1.09086  -1.08758
 Alpha  occ. eigenvalues --   -1.04772  -1.04139  -0.96558  -0.95592  -0.87573
 Alpha  occ. eigenvalues --   -0.86171  -0.82427  -0.80222  -0.78905  -0.77473
 Alpha  occ. eigenvalues --   -0.72040  -0.71166  -0.70470  -0.65764  -0.65018
 Alpha  occ. eigenvalues --   -0.64770  -0.62171  -0.61491  -0.59933  -0.58178
 Alpha  occ. eigenvalues --   -0.55841  -0.55266  -0.53252  -0.53088  -0.52988
 Alpha  occ. eigenvalues --   -0.52868  -0.50497  -0.48810  -0.48794  -0.48511
 Alpha  occ. eigenvalues --   -0.47255  -0.46436  -0.46356  -0.44801  -0.44396
 Alpha  occ. eigenvalues --   -0.37339  -0.36366
 Alpha virt. eigenvalues --    0.05065   0.11192   0.16526   0.19704   0.22624
 Alpha virt. eigenvalues --    0.23852   0.24975   0.26505   0.27389   0.28219
 Alpha virt. eigenvalues --    0.28654   0.30491   0.31208   0.31362   0.32010

 Mulliken charges:
               1
     1  C   -0.298757
     2  C   -0.302844
     3  C   -0.475258
     4  H    0.153214
     5  H    0.150733
     6  H    0.152974
     7  H    0.141836
     8  H    0.157732
     9  H    0.158119
    10  H    0.161042
    11  C   -0.297618
    12  C   -0.300176
    13  C   -0.476027
    14  H    0.150333
    15  H    0.143973
    16  H    0.153809
    17  H    0.153280
    18  H    0.154745
    19  H    0.155476
    20  H    0.162443
    21  C   -0.172073
    22  C   -0.219940
    23  C   -0.171915
    24  C    0.158691
    25  C   -0.170829
    26  C   -0.218653
    27  H    0.226127
    28  H    0.227821
    29  H    0.275431
    30  H    0.275664
    31  H    0.223471
    32  N    0.488076
    33  O   -0.460391
    34  O   -0.460508
 Sum of Mulliken charges =  -0.00000

 Dipole moment (field-independent basis, Debye):
    X=             -3.3073    Y=              3.5072    Z=             -2.1204  Tot=              5.2664
 Quadrupole moment (field-independent basis, Debye-Ang):
   XX=           -112.4193   YY=            -94.4201   ZZ=            -95.1952
   XY=             14.6158   XZ=             -8.1916   YZ=             -0.6961

 Normal termination of Gaussian 16 at Wed May  5 21:44:01 2021.
