 Gaussian 16, Revision A.03,
 Gaussian 16:  EM64L-G16RevA.03 25-Dec-2016

 -------------
 #p 6-31g* mp2
 -------------

 ------------------------------------------------------
 Input file generated by CHIRIPA (05-May-2021 14:55:23)
 ------------------------------------------------------
 Symbolic Z-matrix:
 Charge =  0 Multiplicity = 1

                         Standard orientation:
 ---------------------------------------------------------------------
 Center     Atomic      Atomic             Coordinates (Angstroms)
 Number     Number       Type             X           Y           Z
 ---------------------------------------------------------------------
      1          6           0        1.912104    1.718220    1.358968
      2          6           0        1.282975    0.932511    0.387691
      3          6           0        1.998639   -0.049053   -0.304338
      4          6           0        3.348049   -0.218748    0.001580
      5          6           0        4.003099    0.548190    0.963871
      6          6           0        3.267768    1.523895    1.643457
      7          1           0        1.348520    2.478447    1.891720
      8          1           0        0.230266    1.081215    0.164674
      9          1           0        1.536501   -0.671338   -1.061047
     10          1           0        5.053730    0.376646    1.164282
     11          1           0        3.758969    2.132618    2.397263
     12          7           0        4.116100   -1.254785   -0.724454
     13          8           0        5.303886   -1.384608   -0.436447
     14          8           0        3.515770   -1.917390   -1.567778
     15          6           0       -4.036548    0.548926   -0.736760
     16          6           0       -3.122584    1.729544   -0.406915
     17          6           0       -2.958527    2.695984   -1.580317
     18          1           0       -3.630258    0.009896   -1.603546
     19          1           0       -5.021639    0.930204   -1.039444
     20          1           0       -2.139934    1.346108   -0.103613
     21          1           0       -3.530995    2.265714    0.459306
     22          1           0       -3.928316    3.106226   -1.879999
     23          1           0       -2.529353    2.181395   -2.446117
     24          1           0       -2.301332    3.532390   -1.322672
     25          6           0       -4.210401   -0.426054    0.426389
     26          6           0       -5.124365   -1.606671    0.096544
     27          6           0       -5.288424   -2.573113    1.269945
     28          1           0       -3.225311   -0.807332    0.729072
     29          1           0       -4.616692    0.112976    1.293175
     30          1           0       -4.715955   -2.142841   -0.769678
     31          1           0       -6.107015   -1.223236   -0.206759
     32          1           0       -5.717597   -2.058523    2.135745
     33          1           0       -4.318633   -2.983354    1.569628
     34          1           0       -5.945618   -3.409518    1.012301
 ---------------------------------------------------------------------

 SCF Done:  E(RHF) =  -669.535518730     A.U. after   15 cycles
 E2 =    -0.2091005552D+01 EUMP2 =    -0.67162652428192D+03

 The electronic state is 1-A.
 Alpha  occ. eigenvalues --  -20.60753 -20.60748 -15.85806 -11.31168 -11.27737
 Alpha  occ. eigenvalues --  -11.27733 -11.27474 -11.26752 -11.26726 -11.22606
 Alpha  occ. eigenvalues --  -11.22099 -11.22045 -11.21964 -11.21890 -11.21416
 Alpha  occ. eigenvalues --   -1.59829  -1.39382  -1.19340  -1.09110  -1.08734
 Alpha  occ. eigenvalues --   -1.04744  -1.04187  -0.96603  -0.95570  -0.87620
 Alpha  occ. eigenvalues --   -0.86144  -0.82405  -0.80280  -0.78901  -0.77452
 Alpha  occ. eigenvalues --   -0.72025  -0.71152  -0.70447  -0.65777  -0.64991
 Alpha  occ. eigenvalues --   -0.64746  -0.62141  -0.61543  -0.59993  -0.58218
 Alpha  occ. eigenvalues --   -0.55879  -0.55242  -0.53310  -0.53073  -0.53026
 Alpha  occ. eigenvalues --   -0.52846  -0.50542  -0.48797  -0.48780  -0.48561
 Alpha  occ. eigenvalues --   -0.47316  -0.46434  -0.46347  -0.44789  -0.44432
 Alpha  occ. eigenvalues --   -0.37320  -0.36347
 Alpha virt. eigenvalues --    0.05084   0.11303   0.16576   0.19324   0.22631
 Alpha virt. eigenvalues --    0.23661   0.25095   0.26485   0.27399   0.28307
 Alpha virt. eigenvalues --    0.28583   0.30159   0.31123   0.31218   0.32073

 Mulliken charges:
               1
     1  C   -0.173859
     2  C   -0.227731
     3  C   -0.174150
     4  C    0.158984
     5  C   -0.171220
     6  C   -0.218520
     7  H    0.226245
     8  H    0.237913
     9  H    0.275683
    10  H    0.275512
    11  H    0.223347
    12  N    0.488080
    13  O   -0.460545
    14  O   -0.460566
    15  C   -0.298153
    16  C   -0.306636
    17  C   -0.476168
    18  H    0.151326
    19  H    0.153018
    20  H    0.143908
    21  H    0.154572
    22  H    0.159802
    23  H    0.157259
    24  H    0.159010
    25  C   -0.298551
    26  C   -0.300314
    27  C   -0.476215
    28  H    0.147369
    29  H    0.150232
    30  H    0.153646
    31  H    0.153078
    32  H    0.155211
    33  H    0.156080
    34  H    0.162352
 Sum of Mulliken charges =  -0.00000

 Dipole moment (field-independent basis, Debye):
    X=             -2.9093    Y=              3.6489    Z=              2.5294  Tot=              5.3081
 Quadrupole moment (field-independent basis, Debye-Ang):
   XX=           -108.2319   YY=            -96.9135   ZZ=            -94.3506
   XY=             13.4587   XZ=             11.1853   YZ=              0.9516

 Normal termination of Gaussian 16 at Thu May  6 06:17:46 2021.
