 Gaussian 16, Revision A.03,
 Gaussian 16:  EM64L-G16RevA.03 25-Dec-2016

 -------------
 #p 6-31g* mp2
 -------------

 ------------------------------------------------------
 Input file generated by CHIRIPA (05-May-2021 14:57:23)
 ------------------------------------------------------
 Symbolic Z-matrix:
 Charge =  0 Multiplicity = 1

                         Standard orientation:
 ---------------------------------------------------------------------
 Center     Atomic      Atomic             Coordinates (Angstroms)
 Number     Number       Type             X           Y           Z
 ---------------------------------------------------------------------
      1          6           0       -1.329959   -0.237530    0.712423
      2          6           0       -1.860946    0.894375    0.085235
      3          6           0       -3.207454    0.932798   -0.288915
      4          6           0       -3.997866   -0.183413   -0.019446
      5          6           0       -3.498195   -1.325792    0.603923
      6          6           0       -2.148834   -1.342054    0.969312
      7          1           0       -0.282851   -0.258770    0.999668
      8          1           0       -1.227351    1.753619   -0.115519
      9          1           0       -3.644437    1.796168   -0.775798
     10          1           0       -4.154600   -2.166983    0.790865
     11          1           0       -1.739178   -2.222460    1.456254
     12          7           0       -5.424864   -0.154467   -0.410904
     13          8           0       -6.100274   -1.150805   -0.162374
     14          8           0       -5.840914    0.864012   -0.958847
     15          6           0        1.847562    1.647853    0.708327
     16          6           0        2.049600    1.406397   -0.654538
     17          6           0        3.107476    0.599236   -1.083418
     18          6           0        3.947826    0.047068   -0.117907
     19          6           0        3.772581    0.268970    1.247134
     20          6           0        2.708179    1.079372    1.653148
     21          1           0        1.023244    2.276134    1.032609
     22          1           0        1.382815    1.846572   -1.390533
     23          1           0        3.286874    0.395837   -2.132161
     24          1           0        4.453934   -0.183681    1.957263
     25          1           0        2.553683    1.265164    2.712231
     26          7           0        5.071206   -0.809153   -0.559839
     27          8           0        5.797483   -1.283909    0.310658
     28          8           0        5.204162   -0.989290   -1.768355
 ---------------------------------------------------------------------

 SCF Done:  E(RHF) =  -868.336255614     A.U. after   16 cycles
 E2 =    -0.2601957344D+01 EUMP2 =    -0.87093821295767D+03

 The electronic state is 1-A.
 Alpha  occ. eigenvalues --  -20.61620 -20.61613 -20.61174 -20.61164 -15.86679
 Alpha  occ. eigenvalues --  -15.86233 -11.32299 -11.31680 -11.28869 -11.28858
 Alpha  occ. eigenvalues --  -11.28742 -11.28349 -11.28252 -11.27997 -11.27982
 Alpha  occ. eigenvalues --  -11.27949 -11.27430 -11.27224  -1.60689  -1.60247
 Alpha  occ. eigenvalues --   -1.40234  -1.39798  -1.20518  -1.19880  -1.09908
 Alpha  occ. eigenvalues --   -1.09241  -1.05925  -1.05316  -0.96686  -0.96052
 Alpha  occ. eigenvalues --   -0.87335  -0.86710  -0.83473  -0.82908  -0.78453
 Alpha  occ. eigenvalues --   -0.77954  -0.72892  -0.72453  -0.72017  -0.71733
 Alpha  occ. eigenvalues --   -0.71573  -0.70906  -0.66179  -0.65982  -0.65527
 Alpha  occ. eigenvalues --   -0.65292  -0.63241  -0.62661  -0.56491  -0.55912
 Alpha  occ. eigenvalues --   -0.54132  -0.54006  -0.53613  -0.53410  -0.49672
 Alpha  occ. eigenvalues --   -0.49631  -0.49215  -0.49196  -0.45582  -0.45185
 Alpha  occ. eigenvalues --   -0.38548  -0.37898  -0.37476  -0.36925
 Alpha virt. eigenvalues --    0.04019   0.04617   0.09961   0.10736   0.15368
 Alpha virt. eigenvalues --    0.16083   0.18516   0.22042   0.24709   0.26513
 Alpha virt. eigenvalues --    0.27882   0.29139   0.29754   0.30443   0.31764

 Mulliken charges:
               1
     1  C   -0.174608
     2  C   -0.224286
     3  C   -0.169805
     4  C    0.158175
     5  C   -0.169222
     6  C   -0.219608
     7  H    0.233375
     8  H    0.210530
     9  H    0.275806
    10  H    0.277577
    11  H    0.226113
    12  N    0.488069
    13  O   -0.458646
    14  O   -0.460218
    15  C   -0.186321
    16  C   -0.217725
    17  C   -0.169491
    18  C    0.159553
    19  C   -0.170555
    20  C   -0.221047
    21  H    0.226303
    22  H    0.225209
    23  H    0.280227
    24  H    0.279371
    25  H    0.227848
    26  N    0.487805
    27  O   -0.457601
    28  O   -0.456828
 Sum of Mulliken charges =  -0.00000

 Dipole moment (field-independent basis, Debye):
    X=              1.3423    Y=              2.7367    Z=              2.8998  Tot=              4.2071
 Quadrupole moment (field-independent basis, Debye-Ang):
   XX=           -175.4844   YY=           -101.0014   ZZ=           -100.5554
   XY=             11.8702   XZ=              2.1365   YZ=             -3.3069

 Normal termination of Gaussian 16 at Thu May  6 16:15:03 2021.
