 Gaussian 16, Revision A.03,
 Gaussian 16:  EM64L-G16RevA.03 25-Dec-2016

 -------------
 #p 6-31g* mp2
 -------------

 ------------------------------------------------------
 Input file generated by CHIRIPA (05-May-2021 14:57:24)
 ------------------------------------------------------
 Symbolic Z-matrix:
 Charge =  0 Multiplicity = 1

                         Standard orientation:
 ---------------------------------------------------------------------
 Center     Atomic      Atomic             Coordinates (Angstroms)
 Number     Number       Type             X           Y           Z
 ---------------------------------------------------------------------
      1          6           0       -6.225493    0.188854   -0.717196
      2          6           0       -6.008145   -0.495400    0.483253
      3          6           0       -4.709569   -0.698324    0.959772
      4          6           0       -3.646747   -0.201301    0.206999
      5          6           0       -3.830893    0.484384   -0.992674
      6          6           0       -5.138090    0.675703   -1.450037
      7          1           0       -7.237606    0.341983   -1.079927
      8          1           0       -6.850732   -0.874600    1.054479
      9          1           0       -4.512714   -1.224568    1.885911
     10          1           0       -2.970900    0.850731   -1.540050
     11          1           0       -5.303889    1.207468   -2.382657
     12          7           0       -2.267439   -0.409985    0.701329
     13          8           0       -1.348028    0.037735    0.019518
     14          8           0       -2.131867   -1.017321    1.761235
     15          6           0        2.727038    2.380184    0.263881
     16          6           0        2.135041    1.421158   -0.564569
     17          6           0        2.761576    0.191396   -0.787473
     18          6           0        3.984964   -0.047064   -0.163174
     19          6           0        4.600074    0.888187    0.667629
     20          6           0        3.955500    2.111112    0.876257
     21          1           0        2.233324    3.332838    0.431493
     22          1           0        1.181053    1.627384   -1.041458
     23          1           0        2.325585   -0.568918   -1.424067
     24          1           0        5.551602    0.653742    1.129203
     25          1           0        4.417592    2.854032    1.520142
     26          7           0        4.657798   -1.345339   -0.391596
     27          8           0        5.735145   -1.531049    0.170074
     28          8           0        4.095078   -2.152635   -1.127978
 ---------------------------------------------------------------------

 SCF Done:  E(RHF) =  -868.338831899     A.U. after   16 cycles
 E2 =    -0.2598689369D+01 EUMP2 =    -0.87093752126772D+03

 The electronic state is 1-A.
 Alpha  occ. eigenvalues --  -20.61418 -20.61354 -20.59870 -20.59858 -15.86441
 Alpha  occ. eigenvalues --  -15.84912 -11.31683 -11.30115 -11.28271 -11.28206
 Alpha  occ. eigenvalues --  -11.27939 -11.27232 -11.27195 -11.26707 -11.26581
 Alpha  occ. eigenvalues --  -11.26398 -11.25739 -11.25546  -1.60450  -1.58943
 Alpha  occ. eigenvalues --   -1.40014  -1.38501  -1.19839  -1.18265  -1.09251
 Alpha  occ. eigenvalues --   -1.07705  -1.05227  -1.03630  -0.96111  -0.94569
 Alpha  occ. eigenvalues --   -0.86630  -0.85054  -0.82955  -0.81395  -0.78020
 Alpha  occ. eigenvalues --   -0.76456  -0.72671  -0.71764  -0.71141  -0.70946
 Alpha  occ. eigenvalues --   -0.70257  -0.69414  -0.65498  -0.65226  -0.63925
 Alpha  occ. eigenvalues --   -0.63639  -0.62581  -0.60983  -0.55721  -0.54194
 Alpha  occ. eigenvalues --   -0.53558  -0.53318  -0.51977  -0.51730  -0.49423
 Alpha  occ. eigenvalues --   -0.49383  -0.47900  -0.47882  -0.45446  -0.43942
 Alpha  occ. eigenvalues --   -0.37805  -0.36824  -0.36259  -0.35193
 Alpha virt. eigenvalues --    0.04516   0.06058   0.10833   0.12438   0.16038
 Alpha virt. eigenvalues --    0.17585   0.20924   0.22451   0.26812   0.27501
 Alpha virt. eigenvalues --    0.28611   0.29295   0.30505   0.31636   0.32518

 Mulliken charges:
               1
     1  C   -0.170295
     2  C   -0.218310
     3  C   -0.170392
     4  C    0.158581
     5  C   -0.170520
     6  C   -0.218196
     7  H    0.227278
     8  H    0.225342
     9  H    0.277163
    10  H    0.270852
    11  H    0.224126
    12  N    0.491462
    13  O   -0.471410
    14  O   -0.454670
    15  C   -0.171925
    16  C   -0.208719
    17  C   -0.167305
    18  C    0.157694
    19  C   -0.172583
    20  C   -0.218493
    21  H    0.221360
    22  H    0.228986
    23  H    0.275854
    24  H    0.272005
    25  H    0.219063
    26  N    0.488361
    27  O   -0.463933
    28  O   -0.461376
 Sum of Mulliken charges =  -0.00000

 Dipole moment (field-independent basis, Debye):
    X=             -7.6977    Y=              5.2337    Z=             -0.9136  Tot=              9.3531
 Quadrupole moment (field-independent basis, Debye-Ang):
   XX=            -86.0520   YY=           -105.5337   ZZ=           -101.6129
   XY=             18.8997   XZ=              9.7501   YZ=             -1.7303

 Normal termination of Gaussian 16 at Thu May  6 18:02:56 2021.
