 Gaussian 16, Revision A.03,
 Gaussian 16:  EM64L-G16RevA.03 25-Dec-2016

 -------------
 #p 6-31g* mp2
 -------------

 ------------------------------------------------------
 Input file generated by CHIRIPA (05-May-2021 14:53:14)
 ------------------------------------------------------
 Symbolic Z-matrix:
 Charge =  0 Multiplicity = 1

                         Standard orientation:
 ---------------------------------------------------------------------
 Center     Atomic      Atomic             Coordinates (Angstroms)
 Number     Number       Type             X           Y           Z
 ---------------------------------------------------------------------
      1          6           0        3.862944    0.470678    0.125390
      2          6           0        3.383777    1.844759   -0.343957
      3          6           0        4.503409    2.885803   -0.365073
      4          1           0        4.297422    0.564394    1.130074
      5          1           0        4.671874    0.127184   -0.534184
      6          1           0        2.575050    2.184946    0.315474
      7          1           0        2.950215    1.747728   -1.347562
      8          1           0        5.308346    2.572256   -1.037654
      9          1           0        4.931050    3.011959    0.634832
     10          1           0        4.138841    3.860659   -0.703609
     11          6           0        2.755018   -0.580762    0.151880
     12          6           0        3.234184   -1.954843    0.621227
     13          6           0        2.114552   -2.995886    0.642343
     14          1           0        1.946087   -0.237267    0.811454
     15          1           0        2.320539   -0.674477   -0.852804
     16          1           0        3.667746   -1.857811    1.624833
     17          1           0        4.042911   -2.295030   -0.038204
     18          1           0        1.686911   -3.122043   -0.357561
     19          1           0        1.309615   -2.682340    1.314924
     20          1           0        2.479120   -3.970742    0.980880
     21          6           0       -3.889430    2.103209    0.539994
     22          6           0       -2.509640    2.186751    0.326171
     23          6           0       -1.776866    1.051712   -0.033380
     24          6           0       -2.459047   -0.156172   -0.170984
     25          6           0       -3.832899   -0.271519    0.035210
     26          6           0       -4.545499    0.876504    0.394089
     27          1           0       -4.450831    2.989977    0.819041
     28          1           0       -1.997489    3.138103    0.438765
     29          1           0       -0.707913    1.088053   -0.204954
     30          1           0       -4.315638   -1.233822   -0.084597
     31          1           0       -5.616982    0.808654    0.559514
     32          7           0       -1.693971   -1.364659   -0.551269
     33          8           0       -2.318441   -2.417030   -0.666109
     34          8           0       -0.484319   -1.236617   -0.727296
 ---------------------------------------------------------------------

 SCF Done:  E(RHF) =  -669.535350667     A.U. after   15 cycles
 E2 =    -0.2092896209D+01 EUMP2 =    -0.67162824687560D+03

 The electronic state is 1-A.
 Alpha  occ. eigenvalues --  -20.60921 -20.60912 -15.85940 -11.31267 -11.27833
 Alpha  occ. eigenvalues --  -11.27815 -11.27570 -11.26839 -11.26827 -11.21390
 Alpha  occ. eigenvalues --  -11.20925 -11.20765 -11.20466 -11.20265 -11.19407
 Alpha  occ. eigenvalues --   -1.59984  -1.39541  -1.19436  -1.08844  -1.07671
 Alpha  occ. eigenvalues --   -1.04830  -1.02724  -0.95688  -0.95131  -0.86233
 Alpha  occ. eigenvalues --   -0.86143  -0.82534  -0.78897  -0.77729  -0.77200
 Alpha  occ. eigenvalues --   -0.72158  -0.71295  -0.70543  -0.65093  -0.64836
 Alpha  occ. eigenvalues --   -0.64320  -0.62175  -0.60137  -0.58610  -0.56730
 Alpha  occ. eigenvalues --   -0.55338  -0.54410  -0.53166  -0.52922  -0.51890
 Alpha  occ. eigenvalues --   -0.51561  -0.49107  -0.48954  -0.48862  -0.47127
 Alpha  occ. eigenvalues --   -0.45955  -0.45247  -0.44731  -0.44534  -0.42969
 Alpha  occ. eigenvalues --   -0.37417  -0.36433
 Alpha virt. eigenvalues --    0.04930   0.11211   0.16418   0.20801   0.23242
 Alpha virt. eigenvalues --    0.25249   0.25401   0.27495   0.27681   0.28907
 Alpha virt. eigenvalues --    0.29363   0.31268   0.32190   0.32238   0.32801

 Mulliken charges:
               1
     1  C   -0.297902
     2  C   -0.298604
     3  C   -0.474706
     4  H    0.146345
     5  H    0.148655
     6  H    0.142567
     7  H    0.152064
     8  H    0.156560
     9  H    0.154757
    10  H    0.156414
    11  C   -0.295662
    12  C   -0.301409
    13  C   -0.469911
    14  H    0.144722
    15  H    0.163415
    16  H    0.144533
    17  H    0.147369
    18  H    0.173709
    19  H    0.152480
    20  H    0.149574
    21  C   -0.170507
    22  C   -0.219087
    23  C   -0.173283
    24  C    0.156890
    25  C   -0.170536
    26  C   -0.218716
    27  H    0.225898
    28  H    0.224100
    29  H    0.279331
    30  H    0.275732
    31  H    0.223694
    32  N    0.493908
    33  O   -0.459258
    34  O   -0.463137
 Sum of Mulliken charges =  -0.00000

 Dipole moment (field-independent basis, Debye):
    X=             -2.9646    Y=              4.1282    Z=              1.1715  Tot=              5.2156
 Quadrupole moment (field-independent basis, Debye-Ang):
   XX=            -79.4270   YY=            -96.1385   ZZ=            -95.3229
   XY=             -8.3373   XZ=             -3.6892   YZ=             -0.3044

 Normal termination of Gaussian 16 at Thu May  6 05:49:27 2021.
