 Gaussian 16, Revision A.03,
 Gaussian 16:  EM64L-G16RevA.03 25-Dec-2016

 -------------
 #p 6-31g* mp2
 -------------

 ------------------------------------------------------
 Input file generated by CHIRIPA (05-May-2021 14:53:15)
 ------------------------------------------------------
 Symbolic Z-matrix:
 Charge =  0 Multiplicity = 1

                         Standard orientation:
 ---------------------------------------------------------------------
 Center     Atomic      Atomic             Coordinates (Angstroms)
 Number     Number       Type             X           Y           Z
 ---------------------------------------------------------------------
      1          6           0       -5.249414    0.190266   -0.257835
      2          6           0       -6.489565   -0.693138   -0.397854
      3          6           0       -7.640048    0.012612   -1.116255
      4          1           0       -5.518344    1.104960    0.288019
      5          1           0       -4.919400    0.507918   -1.256626
      6          1           0       -6.816325   -1.010160    0.600816
      7          1           0       -6.217608   -1.605923   -0.943271
      8          1           0       -7.337444    0.314529   -2.124163
      9          1           0       -7.939563    0.913677   -0.571303
     10          1           0       -8.516384   -0.636960   -1.205426
     11          6           0       -4.090698   -0.501306    0.458289
     12          6           0       -2.850546    0.382099    0.598307
     13          6           0       -1.700064   -0.323651    1.316709
     14          1           0       -4.420712   -0.818957    1.457080
     15          1           0       -3.821767   -1.416000   -0.087565
     16          1           0       -3.122504    1.294883    1.143724
     17          1           0       -2.523786    0.699120   -0.400362
     18          1           0       -1.400548   -1.224717    0.771757
     19          1           0       -2.002668   -0.625569    2.324617
     20          1           0       -0.823728    0.325921    1.405880
     21          6           0        2.481233    2.331902    0.264593
     22          6           0        2.118067    1.221732    1.034108
     23          6           0        2.758015   -0.007943    0.852683
     24          6           0        3.761327   -0.092193   -0.111452
     25          6           0        4.145641    0.995742   -0.893749
     26          6           0        3.492079    2.215569   -0.695188
     27          1           0        1.978818    3.283318    0.412184
     28          1           0        1.333384    1.309150    1.780215
     29          1           0        2.496703   -0.883418    1.434643
     30          1           0        4.931573    0.877750   -1.629823
     31          1           0        3.776198    3.076062   -1.294247
     32          7           0        4.446017   -1.388783   -0.312589
     33          8           0        5.326794   -1.436962   -1.168479
     34          8           0        4.088935   -2.332318    0.389459
 ---------------------------------------------------------------------

 SCF Done:  E(RHF) =  -669.535364974     A.U. after   15 cycles
 E2 =    -0.2091029278D+01 EUMP2 =    -0.67162639425236D+03

 The electronic state is 1-A.
 Alpha  occ. eigenvalues --  -20.60753 -20.60748 -15.85807 -11.31176 -11.27757
 Alpha  occ. eigenvalues --  -11.27745 -11.27501 -11.26769 -11.26749 -11.22145
 Alpha  occ. eigenvalues --  -11.21852 -11.21777 -11.21744 -11.21688 -11.21288
 Alpha  occ. eigenvalues --   -1.59829  -1.39382  -1.19356  -1.08812  -1.08750
 Alpha  occ. eigenvalues --   -1.04762  -1.03938  -0.96397  -0.95582  -0.87423
 Alpha  occ. eigenvalues --   -0.86158  -0.82416  -0.80007  -0.78605  -0.77462
 Alpha  occ. eigenvalues --   -0.72026  -0.71152  -0.70461  -0.65434  -0.65008
 Alpha  occ. eigenvalues --   -0.64796  -0.62149  -0.61324  -0.59777  -0.58004
 Alpha  occ. eigenvalues --   -0.55665  -0.55265  -0.53331  -0.53034  -0.52894
 Alpha  occ. eigenvalues --   -0.52602  -0.50320  -0.48786  -0.48779  -0.48316
 Alpha  occ. eigenvalues --   -0.47022  -0.46153  -0.46061  -0.44787  -0.44196
 Alpha  occ. eigenvalues --   -0.37336  -0.36344
 Alpha virt. eigenvalues --    0.05069   0.11222   0.16474   0.20611   0.22604
 Alpha virt. eigenvalues --    0.23942   0.26053   0.26304   0.27123   0.28243
 Alpha virt. eigenvalues --    0.28503   0.30003   0.31048   0.31619   0.32223

 Mulliken charges:
               1
     1  C   -0.298536
     2  C   -0.300041
     3  C   -0.475905
     4  H    0.149128
     5  H    0.149880
     6  H    0.152382
     7  H    0.153179
     8  H    0.155436
     9  H    0.154956
    10  H    0.161309
    11  C   -0.299097
    12  C   -0.299234
    13  C   -0.479434
    14  H    0.150348
    15  H    0.152126
    16  H    0.150210
    17  H    0.153151
    18  H    0.160983
    19  H    0.156678
    20  H    0.150880
    21  C   -0.171620
    22  C   -0.218903
    23  C   -0.170883
    24  C    0.158174
    25  C   -0.170710
    26  C   -0.218709
    27  H    0.225733
    28  H    0.225715
    29  H    0.276526
    30  H    0.275616
    31  H    0.223393
    32  N    0.488112
    33  O   -0.460587
    34  O   -0.460254
 Sum of Mulliken charges =  -0.00000

 Dipole moment (field-independent basis, Debye):
    X=             -2.5097    Y=              4.5291    Z=              0.6661  Tot=              5.2207
 Quadrupole moment (field-independent basis, Debye-Ang):
   XX=           -112.1540   YY=            -95.2882   ZZ=            -92.3020
   XY=             19.2482   XZ=             -0.1267   YZ=             -1.8269

 Normal termination of Gaussian 16 at Thu May  6 09:02:59 2021.
