 Gaussian 16, Revision A.03,
 Gaussian 16:  EM64L-G16RevA.03 25-Dec-2016

 -------------
 #p 6-31g* mp2
 -------------

 ------------------------------------------------------
 Input file generated by CHIRIPA (05-May-2021 14:57:24)
 ------------------------------------------------------
 Symbolic Z-matrix:
 Charge =  0 Multiplicity = 1

                         Standard orientation:
 ---------------------------------------------------------------------
 Center     Atomic      Atomic             Coordinates (Angstroms)
 Number     Number       Type             X           Y           Z
 ---------------------------------------------------------------------
      1          6           0       -2.533474    1.919100   -0.227433
      2          6           0       -2.158084    0.763111    0.464877
      3          6           0       -3.054076   -0.300277    0.609630
      4          6           0       -4.323113   -0.173327    0.046853
      5          6           0       -4.726759    0.965429   -0.648557
      6          6           0       -3.814355    2.016398   -0.780965
      7          1           0       -1.831072    2.740341   -0.335085
      8          1           0       -1.163995    0.684773    0.895801
      9          1           0       -2.789611   -1.206662    1.140613
     10          1           0       -5.724671    1.014274   -1.067130
     11          1           0       -4.108629    2.912953   -1.319144
     12          7           0       -5.280346   -1.292515    0.193561
     13          8           0       -6.392498   -1.155980   -0.311527
     14          8           0       -4.900349   -2.285076    0.810862
     15          6           0        2.495516    1.850827    0.310047
     16          6           0        2.075283    0.615405   -0.193597
     17          6           0        2.991758   -0.423401   -0.382027
     18          6           0        4.326783   -0.191135   -0.054839
     19          6           0        4.776287    1.028534    0.448791
     20          6           0        3.842302    2.053092    0.629069
     21          1           0        1.776776    2.652262    0.453258
     22          1           0        1.029981    0.455479   -0.442217
     23          1           0        2.693618   -1.389718   -0.770307
     24          1           0        5.824935    1.157993    0.687530
     25          1           0        4.171511    3.011501    1.020375
     26          7           0        5.306282   -1.283331   -0.250008
     27          8           0        6.476835   -1.053409    0.045927
     28          8           0        4.884912   -2.348634   -0.695220
 ---------------------------------------------------------------------

 SCF Done:  E(RHF) =  -868.336592623     A.U. after   16 cycles
 E2 =    -0.2599892598D+01 EUMP2 =    -0.87093648522128D+03

 The electronic state is 1-A.
 Alpha  occ. eigenvalues --  -20.61298 -20.61293 -20.61239 -20.61234 -15.86359
 Alpha  occ. eigenvalues --  -15.86299 -11.31902 -11.31827 -11.28533 -11.28481
 Alpha  occ. eigenvalues --  -11.28436 -11.28402 -11.28376 -11.28298 -11.27655
 Alpha  occ. eigenvalues --  -11.27552 -11.27528 -11.27463  -1.60370  -1.60311
 Alpha  occ. eigenvalues --   -1.39918  -1.39859  -1.20115  -1.20034  -1.09496
 Alpha  occ. eigenvalues --   -1.09418  -1.05550  -1.05456  -0.96289  -0.96217
 Alpha  occ. eigenvalues --   -0.86988  -0.86833  -0.83120  -0.83036  -0.78141
 Alpha  occ. eigenvalues --   -0.78021  -0.72575  -0.72514  -0.71696  -0.71636
 Alpha  occ. eigenvalues --   -0.71268  -0.71173  -0.65824  -0.65758  -0.65685
 Alpha  occ. eigenvalues --   -0.65299  -0.62975  -0.62691  -0.56127  -0.55996
 Alpha  occ. eigenvalues --   -0.53890  -0.53809  -0.53720  -0.53423  -0.49352
 Alpha  occ. eigenvalues --   -0.49317  -0.49284  -0.49257  -0.45284  -0.45228
 Alpha  occ. eigenvalues --   -0.38129  -0.38055  -0.37144  -0.37054
 Alpha virt. eigenvalues --    0.04431   0.04497   0.10340   0.10499   0.15833
 Alpha virt. eigenvalues --    0.15934   0.18225   0.22040   0.25199   0.26068
 Alpha virt. eigenvalues --    0.27626   0.29366   0.29695   0.31272   0.31509

 Mulliken charges:
               1
     1  C   -0.170945
     2  C   -0.225061
     3  C   -0.169913
     4  C    0.159237
     5  C   -0.169269
     6  C   -0.217931
     7  H    0.220610
     8  H    0.220137
     9  H    0.278500
    10  H    0.278429
    11  H    0.225743
    12  N    0.487954
    13  O   -0.458260
    14  O   -0.458263
    15  C   -0.171360
    16  C   -0.224766
    17  C   -0.169969
    18  C    0.159365
    19  C   -0.169795
    20  C   -0.217851
    21  H    0.219066
    22  H    0.221471
    23  H    0.278626
    24  H    0.278022
    25  H    0.225165
    26  N    0.487906
    27  O   -0.458606
    28  O   -0.458242
 Sum of Mulliken charges =  -0.00000

 Dipole moment (field-independent basis, Debye):
    X=             -0.1174    Y=              7.6795    Z=              0.1429  Tot=              7.6817
 Quadrupole moment (field-independent basis, Debye-Ang):
   XX=           -157.1348   YY=           -105.3841   ZZ=           -104.4332
   XY=              0.1051   XZ=              9.1654   YZ=             -0.4900

 Normal termination of Gaussian 16 at Thu May  6 00:18:24 2021.
