 Gaussian 16, Revision A.03,
 Gaussian 16:  EM64L-G16RevA.03 25-Dec-2016

 -------------
 #p 6-31g* mp2
 -------------

 ------------------------------------------------------
 Input file generated by CHIRIPA (05-May-2021 14:55:19)
 ------------------------------------------------------
 Symbolic Z-matrix:
 Charge =  0 Multiplicity = 1

                         Standard orientation:
 ---------------------------------------------------------------------
 Center     Atomic      Atomic             Coordinates (Angstroms)
 Number     Number       Type             X           Y           Z
 ---------------------------------------------------------------------
      1          6           0        1.685841    2.270809   -0.006699
      2          6           0        2.334044    1.737007   -1.125362
      3          6           0        2.827037    0.428947   -1.103306
      4          6           0        2.653689   -0.320564    0.059223
      5          6           0        2.012332    0.183000    1.189875
      6          6           0        1.527333    1.493473    1.145319
      7          1           0        1.305977    3.287879   -0.032572
      8          1           0        2.458570    2.338387   -2.021398
      9          1           0        3.332793   -0.009256   -1.955132
     10          1           0        1.903229   -0.440819    2.068717
     11          1           0        1.024343    1.905416    2.015576
     12          7           0        3.171367   -1.706625    0.094483
     13          8           0        3.005957   -2.346401    1.130805
     14          8           0        3.732730   -2.126999   -0.914870
     15          6           0       -3.319061   -0.603700   -0.316767
     16          6           0       -4.557339   -1.358331    0.168193
     17          6           0       -4.606220   -2.800605   -0.337033
     18          1           0       -3.300620   -0.609763   -1.415206
     19          1           0       -2.418678   -1.139748    0.013925
     20          1           0       -5.455110   -0.820273   -0.162134
     21          1           0       -4.572935   -1.350306    1.265603
     22          1           0       -3.728151   -3.358339    0.004326
     23          1           0       -4.615337   -2.825294   -1.431523
     24          1           0       -5.499494   -3.321530    0.021517
     25          6           0       -3.255964    0.839538    0.180033
     26          6           0       -2.017687    1.594169   -0.304927
     27          6           0       -1.968805    3.036441    0.200299
     28          1           0       -4.156347    1.375585   -0.150659
     29          1           0       -3.274405    0.845601    1.278473
     30          1           0       -2.002089    1.586144   -1.402337
     31          1           0       -1.119916    1.056110    0.025400
     32          1           0       -1.959688    3.061132    1.294789
     33          1           0       -2.846874    3.594177   -0.141061
     34          1           0       -1.075531    3.557368   -0.158251
 ---------------------------------------------------------------------

 SCF Done:  E(RHF) =  -669.534222481     A.U. after   15 cycles
 E2 =    -0.2093556741D+01 EUMP2 =    -0.67162777922250D+03

 The electronic state is 1-A.
 Alpha  occ. eigenvalues --  -20.60808 -20.60802 -15.85863 -11.31242 -11.27821
 Alpha  occ. eigenvalues --  -11.27812 -11.27522 -11.26817 -11.26806 -11.22003
 Alpha  occ. eigenvalues --  -11.21932 -11.21749 -11.21739 -11.21580 -11.21108
 Alpha  occ. eigenvalues --   -1.59883  -1.39436  -1.19425  -1.08852  -1.08712
 Alpha  occ. eigenvalues --   -1.04832  -1.03890  -0.96386  -0.95633  -0.87390
 Alpha  occ. eigenvalues --   -0.86220  -0.82476  -0.79950  -0.78524  -0.77519
 Alpha  occ. eigenvalues --   -0.72080  -0.71208  -0.70555  -0.65409  -0.65067
 Alpha  occ. eigenvalues --   -0.64818  -0.62178  -0.61293  -0.59831  -0.58000
 Alpha  occ. eigenvalues --   -0.55670  -0.55339  -0.53220  -0.52980  -0.52913
 Alpha  occ. eigenvalues --   -0.52755  -0.50291  -0.48841  -0.48834  -0.48250
 Alpha  occ. eigenvalues --   -0.46957  -0.46074  -0.45974  -0.44839  -0.44137
 Alpha  occ. eigenvalues --   -0.37324  -0.36404
 Alpha virt. eigenvalues --    0.04987   0.11169   0.16390   0.20187   0.22848
 Alpha virt. eigenvalues --    0.24262   0.25946   0.26476   0.26927   0.27437
 Alpha virt. eigenvalues --    0.28856   0.30025   0.31209   0.31777   0.32529

 Mulliken charges:
               1
     1  C   -0.166680
     2  C   -0.219121
     3  C   -0.170415
     4  C    0.158845
     5  C   -0.171995
     6  C   -0.220698
     7  H    0.228102
     8  H    0.223750
     9  H    0.275886
    10  H    0.275678
    11  H    0.225063
    12  N    0.488088
    13  O   -0.460536
    14  O   -0.460166
    15  C   -0.298804
    16  C   -0.299840
    17  C   -0.476252
    18  H    0.150332
    19  H    0.151695
    20  H    0.151538
    21  H    0.151689
    22  H    0.157768
    23  H    0.155519
    24  H    0.160725
    25  C   -0.298028
    26  C   -0.306031
    27  C   -0.476747
    28  H    0.149510
    29  H    0.147775
    30  H    0.151911
    31  H    0.161650
    32  H    0.151775
    33  H    0.159741
    34  H    0.148271
 Sum of Mulliken charges =  -0.00000

 Dipole moment (field-independent basis, Debye):
    X=             -1.8114    Y=              4.7955    Z=             -0.1573  Tot=              5.1287
 Quadrupole moment (field-independent basis, Debye-Ang):
   XX=           -104.3411   YY=            -99.7802   ZZ=            -89.8587
   XY=             13.7457   XZ=             -1.8360   YZ=             -0.8182

 Normal termination of Gaussian 16 at Wed May  5 17:19:52 2021.
