 Gaussian 16, Revision A.03,
 Gaussian 16:  EM64L-G16RevA.03 25-Dec-2016

 -------------
 #p 6-31g* mp2
 -------------

 ------------------------------------------------------
 Input file generated by CHIRIPA (05-May-2021 14:57:22)
 ------------------------------------------------------
 Symbolic Z-matrix:
 Charge =  0 Multiplicity = 1

                         Standard orientation:
 ---------------------------------------------------------------------
 Center     Atomic      Atomic             Coordinates (Angstroms)
 Number     Number       Type             X           Y           Z
 ---------------------------------------------------------------------
      1          6           0        1.935014    1.952602    0.618982
      2          6           0        2.643237    2.024496   -0.585083
      3          6           0        3.569578    1.033814   -0.924184
      4          6           0        3.763664   -0.019405   -0.031800
      5          6           0        3.073495   -0.119047    1.175275
      6          6           0        2.152021    0.882946    1.493776
      7          1           0        1.217301    2.726581    0.874403
      8          1           0        2.476752    2.854048   -1.266384
      9          1           0        4.131493    1.064753   -1.849772
     10          1           0        3.261016   -0.958175    1.834152
     11          1           0        1.603436    0.824522    2.429557
     12          7           0        4.741764   -1.074183   -0.379887
     13          8           0        4.894551   -1.991780    0.423424
     14          8           0        5.337091   -0.963348   -1.449437
     15          6           0       -6.068459   -0.511239   -0.422394
     16          6           0       -5.241433   -1.601072   -0.131169
     17          6           0       -3.873644   -1.415153    0.090500
     18          6           0       -3.364058   -0.119941    0.012794
     19          6           0       -4.162201    0.986056   -0.275350
     20          6           0       -5.527159    0.776576   -0.493431
     21          1           0       -7.129890   -0.664817   -0.593199
     22          1           0       -5.659064   -2.602328   -0.075361
     23          1           0       -3.210584   -2.241068    0.317732
     24          1           0       -3.716917    1.972337   -0.324228
     25          1           0       -6.167048    1.624821   -0.719414
     26          7           0       -1.917540    0.089355    0.245566
     27          8           0       -1.493052    1.240418    0.171403
     28          8           0       -1.235639   -0.901626    0.497768
 ---------------------------------------------------------------------

 SCF Done:  E(RHF) =  -868.339363284     A.U. after   16 cycles
 E2 =    -0.2599251860D+01 EUMP2 =    -0.87093861514392D+03

 The electronic state is 1-A.
 Alpha  occ. eigenvalues --  -20.61575 -20.61528 -20.59612 -20.59603 -15.86589
 Alpha  occ. eigenvalues --  -15.84656 -11.31753 -11.29682 -11.28318 -11.28274
 Alpha  occ. eigenvalues --  -11.27994 -11.27273 -11.27243 -11.26305 -11.26226
 Alpha  occ. eigenvalues --  -11.25834 -11.25199 -11.25088  -1.60615  -1.58694
 Alpha  occ. eigenvalues --   -1.40177  -1.38257  -1.19905  -1.17827  -1.09335
 Alpha  occ. eigenvalues --   -1.07254  -1.05277  -1.03207  -0.96206  -0.94153
 Alpha  occ. eigenvalues --   -0.86684  -0.84615  -0.83048  -0.81023  -0.78116
 Alpha  occ. eigenvalues --   -0.76136  -0.72828  -0.71925  -0.71008  -0.70889
 Alpha  occ. eigenvalues --   -0.70011  -0.68896  -0.65560  -0.65275  -0.63487
 Alpha  occ. eigenvalues --   -0.63233  -0.62627  -0.60603  -0.55782  -0.53651
 Alpha  occ. eigenvalues --   -0.53617  -0.53362  -0.51561  -0.51325  -0.49563
 Alpha  occ. eigenvalues --   -0.49496  -0.47656  -0.47611  -0.45629  -0.43741
 Alpha  occ. eigenvalues --   -0.37871  -0.36871  -0.35659  -0.34787
 Alpha virt. eigenvalues --    0.04402   0.06432   0.10786   0.12880   0.15941
 Alpha virt. eigenvalues --    0.18035   0.20956   0.22921   0.26875   0.27826
 Alpha virt. eigenvalues --    0.28716   0.29817   0.30548   0.32010   0.32453

 Mulliken charges:
               1
     1  C   -0.151643
     2  C   -0.221679
     3  C   -0.172607
     4  C    0.156266
     5  C   -0.169449
     6  C   -0.208414
     7  H    0.227996
     8  H    0.217202
     9  H    0.269663
    10  H    0.270998
    11  H    0.220866
    12  N    0.488441
    13  O   -0.464195
    14  O   -0.465621
    15  C   -0.170020
    16  C   -0.218473
    17  C   -0.170414
    18  C    0.157851
    19  C   -0.170918
    20  C   -0.218431
    21  H    0.227564
    22  H    0.225757
    23  H    0.277319
    24  H    0.273405
    25  H    0.224493
    26  N    0.489583
    27  O   -0.469361
    28  O   -0.456179
 Sum of Mulliken charges =  -0.00000

 Dipole moment (field-independent basis, Debye):
    X=             -9.1245    Y=              2.9609    Z=              0.5199  Tot=              9.6070
 Quadrupole moment (field-independent basis, Debye-Ang):
   XX=            -98.6100   YY=            -99.4361   ZZ=           -102.3590
   XY=             17.5420   XZ=              7.0356   YZ=             -3.1114

 Normal termination of Gaussian 16 at Thu May  6 19:31:09 2021.
