 Gaussian 16, Revision A.03,
 Gaussian 16:  EM64L-G16RevA.03 25-Dec-2016

 -------------
 #p 6-31g* mp2
 -------------

 ------------------------------------------------------
 Input file generated by CHIRIPA (05-May-2021 14:55:25)
 ------------------------------------------------------
 Symbolic Z-matrix:
 Charge =  0 Multiplicity = 1

                         Standard orientation:
 ---------------------------------------------------------------------
 Center     Atomic      Atomic             Coordinates (Angstroms)
 Number     Number       Type             X           Y           Z
 ---------------------------------------------------------------------
      1          6           0       -0.789464   -1.217841   -0.574433
      2          6           0       -1.975144   -1.956407   -0.646568
      3          6           0       -3.204904   -1.354455   -0.363916
      4          6           0       -3.212241   -0.005926   -0.010781
      5          6           0       -2.048029    0.756575    0.069796
      6          6           0       -0.829620    0.133910   -0.217112
      7          1           0        0.161434   -1.693497   -0.795657
      8          1           0       -1.946980   -3.006356   -0.923803
      9          1           0       -4.137916   -1.902715   -0.412077
     10          1           0       -2.107944    1.801513    0.348958
     11          1           0        0.089613    0.709955   -0.160286
     12          7           0       -4.508124    0.642298    0.290702
     13          8           0       -4.487706    1.831791    0.599450
     14          8           0       -5.519718   -0.051393    0.212549
     15          6           0        3.553629    0.775781   -0.244587
     16          6           0        4.266007    2.055026    0.195904
     17          6           0        3.685189    3.309798   -0.456779
     18          1           0        3.618036    0.685584   -1.337592
     19          1           0        2.485419    0.856457   -0.000018
     20          1           0        5.332800    1.971392   -0.048169
     21          1           0        4.200063    2.142090    1.288006
     22          1           0        2.625954    3.420813   -0.203210
     23          1           0        3.765128    3.249146   -1.546978
     24          1           0        4.209198    4.212630   -0.127890
     25          6           0        4.122949   -0.487113    0.399388
     26          6           0        3.410572   -1.766359   -0.041102
     27          6           0        3.991390   -3.021130    0.611582
     28          1           0        5.191159   -0.567790    0.154820
     29          1           0        4.058543   -0.396916    1.492394
     30          1           0        3.476516   -1.853422   -1.133204
     31          1           0        2.343779   -1.682724    0.202972
     32          1           0        3.911451   -2.960478    1.701780
     33          1           0        5.050624   -3.132146    0.358011
     34          1           0        3.467380   -3.923963    0.282693
 ---------------------------------------------------------------------

 SCF Done:  E(RHF) =  -669.535196397     A.U. after   15 cycles
 E2 =    -0.2092265122D+01 EUMP2 =    -0.67162746151877D+03

 The electronic state is 1-A.
 Alpha  occ. eigenvalues --  -20.60718 -20.60713 -15.85771 -11.31125 -11.27694
 Alpha  occ. eigenvalues --  -11.27690 -11.27382 -11.26698 -11.26674 -11.22835
 Alpha  occ. eigenvalues --  -11.22559 -11.22456 -11.22413 -11.22041 -11.21845
 Alpha  occ. eigenvalues --   -1.59794  -1.39348  -1.19293  -1.09496  -1.08685
 Alpha  occ. eigenvalues --   -1.04697  -1.04521  -0.96942  -0.95526  -0.87957
 Alpha  occ. eigenvalues --   -0.86097  -0.82365  -0.80608  -0.79350  -0.77411
 Alpha  occ. eigenvalues --   -0.71989  -0.71117  -0.70409  -0.66159  -0.64941
 Alpha  occ. eigenvalues --   -0.64680  -0.62068  -0.61901  -0.60330  -0.58573
 Alpha  occ. eigenvalues --   -0.56233  -0.55197  -0.53611  -0.53376  -0.53025
 Alpha  occ. eigenvalues --   -0.52787  -0.50868  -0.48912  -0.48746  -0.48729
 Alpha  occ. eigenvalues --   -0.47626  -0.46842  -0.46764  -0.44788  -0.44756
 Alpha  occ. eigenvalues --   -0.37263  -0.36303
 Alpha virt. eigenvalues --    0.05109   0.11327   0.16562   0.19004   0.22508
 Alpha virt. eigenvalues --    0.22786   0.24851   0.25932   0.26822   0.27374
 Alpha virt. eigenvalues --    0.29279   0.30572   0.30991   0.31175   0.31986

 Mulliken charges:
               1
     1  C   -0.178737
     2  C   -0.219226
     3  C   -0.171072
     4  C    0.158829
     5  C   -0.172529
     6  C   -0.227262
     7  H    0.233438
     8  H    0.223404
     9  H    0.275283
    10  H    0.275852
    11  H    0.233273
    12  N    0.487949
    13  O   -0.460581
    14  O   -0.460648
    15  C   -0.305277
    16  C   -0.300085
    17  C   -0.475921
    18  H    0.151973
    19  H    0.143657
    20  H    0.155592
    21  H    0.154474
    22  H    0.151702
    23  H    0.156914
    24  H    0.164729
    25  C   -0.297750
    26  C   -0.307210
    27  C   -0.475490
    28  H    0.154441
    29  H    0.153275
    30  H    0.152659
    31  H    0.146231
    32  H    0.158780
    33  H    0.159328
    34  H    0.160004
 Sum of Mulliken charges =  -0.00000

 Dipole moment (field-independent basis, Debye):
    X=              4.8889    Y=             -2.2659    Z=             -1.0323  Tot=              5.4864
 Quadrupole moment (field-independent basis, Debye-Ang):
   XX=           -121.7821   YY=            -91.7376   ZZ=            -94.9206
   XY=             10.0394   XZ=              3.3870   YZ=              1.3377

 Normal termination of Gaussian 16 at Thu May  6 11:04:27 2021.
