 Gaussian 16, Revision A.03,
 Gaussian 16:  EM64L-G16RevA.03 25-Dec-2016

 -------------
 #p 6-31g* mp2
 -------------

 ------------------------------------------------------
 Input file generated by CHIRIPA (05-May-2021 14:53:13)
 ------------------------------------------------------
 Symbolic Z-matrix:
 Charge =  0 Multiplicity = 1

                         Standard orientation:
 ---------------------------------------------------------------------
 Center     Atomic      Atomic             Coordinates (Angstroms)
 Number     Number       Type             X           Y           Z
 ---------------------------------------------------------------------
      1          6           0        3.398961    0.882516   -0.476739
      2          6           0        3.267312    2.236006    0.222345
      3          6           0        3.415045    3.415131   -0.739753
      4          1           0        4.375412    0.829001   -0.977364
      5          1           0        2.638412    0.810070   -1.266492
      6          1           0        4.026989    2.305316    1.011461
      7          1           0        2.291140    2.286230    0.721525
      8          1           0        2.648577    3.373736   -1.520403
      9          1           0        4.394290    3.392931   -1.228821
     10          1           0        3.317536    4.372827   -0.219012
     11          6           0        3.253574   -0.306013    0.471940
     12          6           0        3.385223   -1.659503   -0.227144
     13          6           0        3.237491   -2.838628    0.734954
     14          1           0        4.014124   -0.233567    1.261693
     15          1           0        2.277124   -0.252498    0.972565
     16          1           0        4.361396   -1.709727   -0.726324
     17          1           0        2.625546   -1.728813   -1.016260
     18          1           0        2.258246   -2.816428    1.224022
     19          1           0        4.003958   -2.797233    1.515604
     20          1           0        3.335000   -3.796324    0.214213
     21          6           0       -4.536273    1.348070    0.371145
     22          6           0       -3.468812    1.328037    1.274830
     23          6           0       -2.389951    0.460439    1.080192
     24          6           0       -2.411325   -0.377294   -0.033825
     25          6           0       -3.460229   -0.380717   -0.952017
     26          6           0       -4.528588    0.495132   -0.737440
     27          1           0       -5.370279    2.025245    0.530089
     28          1           0       -3.472095    1.989322    2.136650
     29          1           0       -1.550647    0.424297    1.764064
     30          1           0       -3.428665   -1.051682   -1.801857
     31          1           0       -5.356240    0.508528   -1.440903
     32          7           0       -1.274741   -1.300148   -0.250434
     33          8           0       -1.317456   -2.028263   -1.239707
     34          8           0       -0.362695   -1.277893    0.573164
 ---------------------------------------------------------------------

 SCF Done:  E(RHF) =  -669.536569292     A.U. after   15 cycles
 E2 =    -0.2091862506D+01 EUMP2 =    -0.67162843179893D+03

 The electronic state is 1-A.
 Alpha  occ. eigenvalues --  -20.61116 -20.61108 -15.86131 -11.31393 -11.27949
 Alpha  occ. eigenvalues --  -11.27943 -11.27672 -11.26940 -11.26930 -11.20979
 Alpha  occ. eigenvalues --  -11.20624 -11.20428 -11.20059 -11.19965 -11.19427
 Alpha  occ. eigenvalues --   -1.60162  -1.39721  -1.19554  -1.08969  -1.07322
 Alpha  occ. eigenvalues --   -1.04941  -1.02417  -0.95821  -0.94888  -0.86344
 Alpha  occ. eigenvalues --   -0.85915  -0.82660  -0.78574  -0.77726  -0.77045
 Alpha  occ. eigenvalues --   -0.72362  -0.71471  -0.70662  -0.65216  -0.64944
 Alpha  occ. eigenvalues --   -0.63928  -0.62289  -0.59784  -0.58342  -0.56486
 Alpha  occ. eigenvalues --   -0.55446  -0.54161  -0.53275  -0.53031  -0.51640
 Alpha  occ. eigenvalues --   -0.51318  -0.49122  -0.49099  -0.48816  -0.46868
 Alpha  occ. eigenvalues --   -0.45613  -0.45188  -0.44590  -0.44365  -0.42672
 Alpha  occ. eigenvalues --   -0.37528  -0.36539
 Alpha virt. eigenvalues --    0.04781   0.11116   0.16269   0.21178   0.23838
 Alpha virt. eigenvalues --    0.25479   0.26931   0.27449   0.28162   0.28866
 Alpha virt. eigenvalues --    0.29056   0.30942   0.32293   0.32514   0.32644

 Mulliken charges:
               1
     1  C   -0.297419
     2  C   -0.297816
     3  C   -0.474826
     4  H    0.146354
     5  H    0.149383
     6  H    0.150239
     7  H    0.147567
     8  H    0.153526
     9  H    0.154962
    10  H    0.156261
    11  C   -0.304168
    12  C   -0.295468
    13  C   -0.480000
    14  H    0.141550
    15  H    0.166411
    16  H    0.142685
    17  H    0.161676
    18  H    0.172766
    19  H    0.145202
    20  H    0.155465
    21  C   -0.170367
    22  C   -0.218473
    23  C   -0.170661
    24  C    0.157498
    25  C   -0.170490
    26  C   -0.218565
    27  H    0.226439
    28  H    0.224317
    29  H    0.275566
    30  H    0.276073
    31  H    0.224204
    32  N    0.492358
    33  O   -0.457942
    34  O   -0.464308
 Sum of Mulliken charges =  -0.00000

 Dipole moment (field-independent basis, Debye):
    X=             -4.4285    Y=              3.1332    Z=              0.7510  Tot=              5.4765
 Quadrupole moment (field-independent basis, Debye-Ang):
   XX=            -75.2820   YY=            -98.7462   ZZ=            -91.9648
   XY=             -5.7961   XZ=              0.5264   YZ=              1.9838

 Normal termination of Gaussian 16 at Thu May  6 02:34:36 2021.
