 Gaussian 16, Revision A.03,
 Gaussian 16:  EM64L-G16RevA.03 25-Dec-2016

 -------------
 #p 6-31g* mp2
 -------------

 ------------------------------------------------------
 Input file generated by CHIRIPA (05-May-2021 14:57:21)
 ------------------------------------------------------
 Symbolic Z-matrix:
 Charge =  0 Multiplicity = 1

                         Standard orientation:
 ---------------------------------------------------------------------
 Center     Atomic      Atomic             Coordinates (Angstroms)
 Number     Number       Type             X           Y           Z
 ---------------------------------------------------------------------
      1          6           0        5.691966    1.130228   -0.818490
      2          6           0        4.399155    1.634003   -0.995618
      3          6           0        3.288076    0.909268   -0.554244
      4          6           0        3.507372   -0.321289    0.062950
      5          6           0        4.783041   -0.849956    0.253918
      6          6           0        5.879452   -0.107960   -0.195386
      7          1           0        6.549381    1.699924   -1.164440
      8          1           0        4.250545    2.595311   -1.479194
      9          1           0        2.276294    1.275675   -0.678584
     10          1           0        4.899511   -1.811239    0.739499
     11          1           0        6.882319   -0.501672   -0.056486
     12          7           0        2.338887   -1.097670    0.534410
     13          8           0        2.558826   -2.179258    1.075180
     14          8           0        1.225214   -0.609909    0.354244
     15          6           0       -2.797138    2.382439    0.885765
     16          6           0       -2.046766    1.210357    1.026073
     17          6           0       -2.537084   -0.008190    0.547243
     18          6           0       -3.787233   -0.018303   -0.069454
     19          6           0       -4.558615    1.132479   -0.224249
     20          6           0       -4.048461    2.339834    0.262150
     21          1           0       -2.408542    3.324688    1.260671
     22          1           0       -1.074655    1.240453    1.509953
     23          1           0       -1.977143   -0.930572    0.642628
     24          1           0       -5.524326    1.070964   -0.711111
     25          1           0       -4.633409    3.248517    0.151797
     26          7           0       -4.316811   -1.302400   -0.580377
     27          8           0       -5.421010   -1.284702   -1.119882
     28          8           0       -3.617666   -2.302258   -0.431657
 ---------------------------------------------------------------------

 SCF Done:  E(RHF) =  -868.339593991     A.U. after   16 cycles
 E2 =    -0.2598932514D+01 EUMP2 =    -0.87093852650447D+03

 The electronic state is 1-A.
 Alpha  occ. eigenvalues --  -20.61538 -20.61476 -20.59896 -20.59864 -15.86540
 Alpha  occ. eigenvalues --  -15.84930 -11.31724 -11.30203 -11.28292 -11.28244
 Alpha  occ. eigenvalues --  -11.27970 -11.27253 -11.27221 -11.26872 -11.26607
 Alpha  occ. eigenvalues --  -11.26585 -11.25913 -11.25661  -1.60561  -1.58962
 Alpha  occ. eigenvalues --   -1.40125  -1.38514  -1.19876  -1.18395  -1.09302
 Alpha  occ. eigenvalues --   -1.07836  -1.05253  -1.03749  -0.96170  -0.94667
 Alpha  occ. eigenvalues --   -0.86659  -0.85179  -0.83016  -0.81471  -0.78082
 Alpha  occ. eigenvalues --   -0.76507  -0.72775  -0.71863  -0.71151  -0.70981
 Alpha  occ. eigenvalues --   -0.70286  -0.69529  -0.65535  -0.65252  -0.64040
 Alpha  occ. eigenvalues --   -0.63754  -0.62604  -0.61053  -0.55754  -0.54348
 Alpha  occ. eigenvalues --   -0.53589  -0.53342  -0.52143  -0.51828  -0.49533
 Alpha  occ. eigenvalues --   -0.49489  -0.47919  -0.47894  -0.45564  -0.43937
 Alpha  occ. eigenvalues --   -0.37841  -0.36848  -0.36450  -0.35352
 Alpha virt. eigenvalues --    0.04430   0.05976   0.10810   0.12268   0.15947
 Alpha virt. eigenvalues --    0.17448   0.20902   0.22396   0.26814   0.27484
 Alpha virt. eigenvalues --    0.28614   0.29248   0.30569   0.31651   0.32454

 Mulliken charges:
               1
     1  C   -0.170054
     2  C   -0.218368
     3  C   -0.171270
     4  C    0.158143
     5  C   -0.170116
     6  C   -0.218433
     7  H    0.227382
     8  H    0.224206
     9  H    0.273252
    10  H    0.277288
    11  H    0.225497
    12  N    0.491880
    13  O   -0.453679
    14  O   -0.472830
    15  C   -0.173080
    16  C   -0.222109
    17  C   -0.171037
    18  C    0.156651
    19  C   -0.172591
    20  C   -0.219673
    21  H    0.219743
    22  H    0.231388
    23  H    0.291699
    24  H    0.272134
    25  H    0.218604
    26  N    0.487720
    27  O   -0.465353
    28  O   -0.456996
 Sum of Mulliken charges =  -0.00000

 Dipole moment (field-independent basis, Debye):
    X=              6.5380    Y=              7.0142    Z=              0.1862  Tot=              9.5905
 Quadrupole moment (field-independent basis, Debye-Ang):
   XX=            -85.7703   YY=           -104.1495   ZZ=           -105.7619
   XY=            -13.1301   XZ=            -10.1856   YZ=             -2.1268

 Normal termination of Gaussian 16 at Thu May  6 12:47:14 2021.
