 Gaussian 16, Revision A.03,
 Gaussian 16:  EM64L-G16RevA.03 25-Dec-2016

 -------------
 #p 6-31g* mp2
 -------------

 ------------------------------------------------------
 Input file generated by CHIRIPA (05-May-2021 14:55:25)
 ------------------------------------------------------
 Symbolic Z-matrix:
 Charge =  0 Multiplicity = 1

                         Standard orientation:
 ---------------------------------------------------------------------
 Center     Atomic      Atomic             Coordinates (Angstroms)
 Number     Number       Type             X           Y           Z
 ---------------------------------------------------------------------
      1          6           0       -1.286903    2.422348   -0.026837
      2          6           0       -0.847940    1.230416   -0.612610
      3          6           0       -1.693206    0.118849   -0.679632
      4          6           0       -2.976895    0.234795   -0.148607
      5          6           0       -3.443378    1.408547    0.441301
      6          6           0       -2.580939    2.507459    0.497325
      7          1           0       -0.623610    3.280925    0.020955
      8          1           0        0.156509    1.161437   -1.020494
      9          1           0       -1.379081   -0.816082   -1.127570
     10          1           0       -4.450112    1.446953    0.839334
     11          1           0       -2.924538    3.431853    0.952825
     12          7           0       -3.880830   -0.935273   -0.213738
     13          8           0       -5.007161   -0.807495    0.261328
     14          8           0       -3.445887   -1.957994   -0.738621
     15          6           0        3.008768   -0.678551    0.615736
     16          6           0        2.042895   -1.703669    0.020583
     17          6           0        0.825631   -1.955404    0.910914
     18          1           0        3.340792   -1.027231    1.603222
     19          1           0        2.473066    0.266358    0.781759
     20          1           0        2.580607   -2.645943   -0.145555
     21          1           0        1.713280   -1.352601   -0.965683
     22          1           0        0.264262   -1.028535    1.067049
     23          1           0        1.136516   -2.329225    1.891838
     24          1           0        0.148443   -2.691401    0.466408
     25          6           0        4.230695   -0.416199   -0.262783
     26          6           0        5.196568    0.608919    0.332370
     27          6           0        6.413833    0.860654   -0.557962
     28          1           0        4.766398   -1.361109   -0.428806
     29          1           0        3.898671   -0.067519   -1.250269
     30          1           0        5.526183    0.257851    1.318636
     31          1           0        4.658857    1.551193    0.498507
     32          1           0        6.102947    1.234475   -1.538885
     33          1           0        6.975202   -0.066216   -0.714097
     34          1           0        7.091021    1.596651   -0.113455
 ---------------------------------------------------------------------

 SCF Done:  E(RHF) =  -669.534696384     A.U. after   15 cycles
 E2 =    -0.2093102633D+01 EUMP2 =    -0.67162779901665D+03

 The electronic state is 1-A.
 Alpha  occ. eigenvalues --  -20.60776 -20.60771 -15.85830 -11.31197 -11.27790
 Alpha  occ. eigenvalues --  -11.27770 -11.27546 -11.26793 -11.26783 -11.22172
 Alpha  occ. eigenvalues --  -11.22131 -11.21993 -11.21925 -11.21524 -11.21263
 Alpha  occ. eigenvalues --   -1.59849  -1.39403  -1.19397  -1.08990  -1.08782
 Alpha  occ. eigenvalues --   -1.04819  -1.04011  -0.96447  -0.95612  -0.87456
 Alpha  occ. eigenvalues --   -0.86189  -0.82450  -0.80083  -0.78803  -0.77493
 Alpha  occ. eigenvalues --   -0.72050  -0.71172  -0.70506  -0.65677  -0.65043
 Alpha  occ. eigenvalues --   -0.64791  -0.62258  -0.61322  -0.59798  -0.58053
 Alpha  occ. eigenvalues --   -0.55794  -0.55290  -0.53228  -0.53101  -0.52854
 Alpha  occ. eigenvalues --   -0.52773  -0.50352  -0.48807  -0.48802  -0.48378
 Alpha  occ. eigenvalues --   -0.47147  -0.46330  -0.46291  -0.44807  -0.44272
 Alpha  occ. eigenvalues --   -0.37382  -0.36318
 Alpha virt. eigenvalues --    0.05033   0.11180   0.16404   0.19170   0.22782
 Alpha virt. eigenvalues --    0.23818   0.25541   0.26253   0.27117   0.28476
 Alpha virt. eigenvalues --    0.29113   0.30213   0.31219   0.31404   0.32038

 Mulliken charges:
               1
     1  C   -0.170992
     2  C   -0.222241
     3  C   -0.169548
     4  C    0.158106
     5  C   -0.170636
     6  C   -0.218888
     7  H    0.225751
     8  H    0.226269
     9  H    0.279275
    10  H    0.275817
    11  H    0.223558
    12  N    0.488496
    13  O   -0.460351
    14  O   -0.460702
    15  C   -0.299018
    16  C   -0.301100
    17  C   -0.487100
    18  H    0.153733
    19  H    0.143915
    20  H    0.157159
    21  H    0.141670
    22  H    0.159554
    23  H    0.158193
    24  H    0.168184
    25  C   -0.298201
    26  C   -0.299326
    27  C   -0.475877
    28  H    0.152773
    29  H    0.145902
    30  H    0.154026
    31  H    0.148722
    32  H    0.154500
    33  H    0.157046
    34  H    0.161331
 Sum of Mulliken charges =  -0.00000

 Dipole moment (field-independent basis, Debye):
    X=              3.2113    Y=              4.0438    Z=              0.2963  Tot=              5.1723
 Quadrupole moment (field-independent basis, Debye-Ang):
   XX=           -111.6668   YY=            -91.1690   ZZ=            -94.5339
   XY=            -14.6148   XZ=             -2.1847   YZ=              0.5520

 Normal termination of Gaussian 16 at Thu May  6 07:59:18 2021.
