 Gaussian 16, Revision A.03,
 Gaussian 16:  EM64L-G16RevA.03 25-Dec-2016

 -------------
 #p 6-31g* mp2
 -------------

 ------------------------------------------------------
 Input file generated by CHIRIPA (05-May-2021 14:57:24)
 ------------------------------------------------------
 Symbolic Z-matrix:
 Charge =  0 Multiplicity = 1

                         Standard orientation:
 ---------------------------------------------------------------------
 Center     Atomic      Atomic             Coordinates (Angstroms)
 Number     Number       Type             X           Y           Z
 ---------------------------------------------------------------------
      1          6           0        3.896346    1.699356   -1.435805
      2          6           0        2.703232    1.920632   -0.740077
      3          6           0        2.219882    0.967751    0.161553
      4          6           0        2.958418   -0.200406    0.343938
      5          6           0        4.150495   -0.449921   -0.334284
      6          6           0        4.614903    0.516871   -1.231049
      7          1           0        4.264466    2.444980   -2.134324
      8          1           0        2.143099    2.838043   -0.897094
      9          1           0        1.299168    1.113420    0.713354
     10          1           0        4.686818   -1.374170   -0.156692
     11          1           0        5.541800    0.342338   -1.769978
     12          7           0        2.456744   -1.216542    1.295879
     13          8           0        3.126007   -2.237475    1.438771
     14          8           0        1.403767   -0.972815    1.881092
     15          6           0       -2.869318   -2.194267   -1.360070
     16          6           0       -1.727176   -1.406430   -1.183023
     17          6           0       -1.810568   -0.170687   -0.534538
     18          6           0       -3.057707    0.248252   -0.073643
     19          6           0       -4.213749   -0.513905   -0.234807
     20          6           0       -4.106777   -1.746281   -0.886232
     21          1           0       -2.795377   -3.152914   -1.864971
     22          1           0       -0.764833   -1.751808   -1.549976
     23          1           0       -0.942331    0.459336   -0.384034
     24          1           0       -5.159195   -0.142910    0.141905
     25          1           0       -4.995453   -2.356019   -1.022321
     26          7           0       -3.158473    1.554695    0.614435
     27          8           0       -4.268910    1.901235    1.011269
     28          8           0       -2.125107    2.207410    0.743888
 ---------------------------------------------------------------------

 SCF Done:  E(RHF) =  -868.338726028     A.U. after   16 cycles
 E2 =    -0.2599995119D+01 EUMP2 =    -0.87093872114774D+03

 The electronic state is 1-A.
 Alpha  occ. eigenvalues --  -20.61091 -20.61080 -20.60764 -20.60734 -15.86131
 Alpha  occ. eigenvalues --  -15.85796 -11.31485 -11.30982 -11.28030 -11.27971
 Alpha  occ. eigenvalues --  -11.27718 -11.27574 -11.27533 -11.27244 -11.27044
 Alpha  occ. eigenvalues --  -11.26970 -11.26523 -11.26506  -1.60169  -1.59813
 Alpha  occ. eigenvalues --   -1.39719  -1.39379  -1.19637  -1.19138  -1.09029
 Alpha  occ. eigenvalues --   -1.08565  -1.05015  -1.04523  -0.95868  -0.95435
 Alpha  occ. eigenvalues --   -0.86414  -0.85938  -0.82681  -0.82283  -0.77759
 Alpha  occ. eigenvalues --   -0.77345  -0.72339  -0.72031  -0.71508  -0.71117
 Alpha  occ. eigenvalues --   -0.70728  -0.70260  -0.65268  -0.65002  -0.64805
 Alpha  occ. eigenvalues --   -0.64535  -0.62395  -0.61839  -0.55499  -0.55041
 Alpha  occ. eigenvalues --   -0.53373  -0.53096  -0.52838  -0.52599  -0.49105
 Alpha  occ. eigenvalues --   -0.49101  -0.48793  -0.48753  -0.45123  -0.44821
 Alpha  occ. eigenvalues --   -0.37616  -0.37098  -0.36629  -0.36092
 Alpha virt. eigenvalues --    0.04705   0.05193   0.10915   0.11546   0.16249
 Alpha virt. eigenvalues --    0.16735   0.20522   0.21969   0.25707   0.27630
 Alpha virt. eigenvalues --    0.27920   0.29275   0.30819   0.31203   0.31840

 Mulliken charges:
               1
     1  C   -0.171229
     2  C   -0.220274
     3  C   -0.185524
     4  C    0.157323
     5  C   -0.172376
     6  C   -0.218086
     7  H    0.227402
     8  H    0.231387
     9  H    0.286368
    10  H    0.275491
    11  H    0.224250
    12  N    0.486598
    13  O   -0.460476
    14  O   -0.458886
    15  C   -0.169716
    16  C   -0.216802
    17  C   -0.163747
    18  C    0.158061
    19  C   -0.170111
    20  C   -0.218554
    21  H    0.225949
    22  H    0.223247
    23  H    0.269657
    24  H    0.274907
    25  H    0.223054
    26  N    0.489506
    27  O   -0.458733
    28  O   -0.468686
 Sum of Mulliken charges =  -0.00000

 Dipole moment (field-independent basis, Debye):
    X=              2.1632    Y=             -1.0323    Z=             -5.7708  Tot=              6.2487
 Quadrupole moment (field-independent basis, Debye-Ang):
   XX=            -88.3749   YY=           -107.6339   ZZ=           -107.9855
   XY=             23.3365   XZ=             -3.7874   YZ=              2.1994

 Normal termination of Gaussian 16 at Thu May  6 19:40:31 2021.
