 Gaussian 16, Revision A.03,
 Gaussian 16:  EM64L-G16RevA.03 25-Dec-2016

 -------------
 #p 6-31g* mp2
 -------------

 ------------------------------------------------------
 Input file generated by CHIRIPA (05-May-2021 14:53:15)
 ------------------------------------------------------
 Symbolic Z-matrix:
 Charge =  0 Multiplicity = 1

                         Standard orientation:
 ---------------------------------------------------------------------
 Center     Atomic      Atomic             Coordinates (Angstroms)
 Number     Number       Type             X           Y           Z
 ---------------------------------------------------------------------
      1          6           0       -3.186473   -0.307624   -0.417158
      2          6           0       -2.554560   -1.662558   -0.096493
      3          6           0       -3.304641   -2.831015   -0.736713
      4          1           0       -4.230355   -0.306797   -0.074735
      5          1           0       -3.215015   -0.172991   -1.507321
      6          1           0       -2.525956   -1.793996    0.992783
      7          1           0       -1.512004   -1.660092   -0.439547
      8          1           0       -3.321575   -2.727156   -1.826450
      9          1           0       -4.341289   -2.861821   -0.385982
     10          1           0       -2.835920   -3.789930   -0.494549
     11          6           0       -2.447871    0.870310    0.215822
     12          6           0       -3.079783    2.225244   -0.104843
     13          6           0       -2.329703    3.393700    0.535377
     14          1           0       -2.419328    0.735677    1.305985
     15          1           0       -1.403988    0.869483   -0.126601
     16          1           0       -4.122340    2.222778    0.238211
     17          1           0       -3.108387    2.356682   -1.194119
     18          1           0       -1.293054    3.424506    0.184646
     19          1           0       -2.312768    3.289842    1.625115
     20          1           0       -2.798423    4.352615    0.293214
     21          6           0        1.507145   -0.949429    2.392139
     22          6           0        2.489686    0.033380    2.233327
     23          6           0        2.881923    0.445389    0.956242
     24          6           0        2.267987   -0.149261   -0.145013
     25          6           0        1.286140   -1.130838   -0.019412
     26          6           0        0.909562   -1.527382    1.267245
     27          1           0        1.208528   -1.263481    3.387928
     28          1           0        2.955493    0.483967    3.105130
     29          1           0        3.640000    1.204147    0.804504
     30          1           0        0.839879   -1.561663   -0.907477
     31          1           0        0.146238   -2.290864    1.387564
     32          7           0        2.674942    0.278729   -1.502073
     33          8           0        2.118801   -0.260646   -2.456232
     34          8           0        3.542348    1.145458   -1.585881
 ---------------------------------------------------------------------

 SCF Done:  E(RHF) =  -669.534234154     A.U. after   15 cycles
 E2 =    -0.2093846294D+01 EUMP2 =    -0.67162808044787D+03

 The electronic state is 1-A.
 Alpha  occ. eigenvalues --  -20.60799 -20.60793 -15.85851 -11.31206 -11.27745
 Alpha  occ. eigenvalues --  -11.27741 -11.27467 -11.26768 -11.26711 -11.22284
 Alpha  occ. eigenvalues --  -11.21748 -11.21712 -11.21609 -11.21569 -11.21146
 Alpha  occ. eigenvalues --   -1.59875  -1.39428  -1.19363  -1.08791  -1.08740
 Alpha  occ. eigenvalues --   -1.04772  -1.03880  -0.96295  -0.95601  -0.87319
 Alpha  occ. eigenvalues --   -0.86157  -0.82457  -0.80018  -0.78591  -0.77445
 Alpha  occ. eigenvalues --   -0.72069  -0.71200  -0.70480  -0.65444  -0.64998
 Alpha  occ. eigenvalues --   -0.64750  -0.62190  -0.61236  -0.59678  -0.57917
 Alpha  occ. eigenvalues --   -0.55562  -0.55256  -0.53187  -0.52954  -0.52856
 Alpha  occ. eigenvalues --   -0.52705  -0.50236  -0.48829  -0.48827  -0.48274
 Alpha  occ. eigenvalues --   -0.47031  -0.46087  -0.45995  -0.44834  -0.44114
 Alpha  occ. eigenvalues --   -0.37334  -0.36275
 Alpha virt. eigenvalues --    0.05016   0.11215   0.16468   0.20468   0.22816
 Alpha virt. eigenvalues --    0.23959   0.25592   0.26130   0.27448   0.28178
 Alpha virt. eigenvalues --    0.29046   0.29972   0.31149   0.31639   0.32336

 Mulliken charges:
               1
     1  C   -0.298159
     2  C   -0.304713
     3  C   -0.475837
     4  H    0.150492
     5  H    0.154450
     6  H    0.146158
     7  H    0.148389
     8  H    0.160346
     9  H    0.157724
    10  H    0.156875
    11  C   -0.299987
    12  C   -0.300331
    13  C   -0.475890
    14  H    0.145825
    15  H    0.153923
    16  H    0.151075
    17  H    0.155222
    18  H    0.157733
    19  H    0.152657
    20  H    0.161406
    21  C   -0.172308
    22  C   -0.217821
    23  C   -0.171696
    24  C    0.157991
    25  C   -0.175130
    26  C   -0.213929
    27  H    0.225427
    28  H    0.223438
    29  H    0.275464
    30  H    0.276067
    31  H    0.228133
    32  N    0.488254
    33  O   -0.461087
    34  O   -0.460158
 Sum of Mulliken charges =  -0.00000

 Dipole moment (field-independent basis, Debye):
    X=             -1.4864    Y=             -1.4479    Z=              4.7352  Tot=              5.1699
 Quadrupole moment (field-independent basis, Debye-Ang):
   XX=            -99.2831   YY=            -93.6247   ZZ=            -95.2833
   XY=             -1.1914   XZ=             12.3067   YZ=              0.4793

 Normal termination of Gaussian 16 at Thu May  6 02:42:56 2021.
