 Gaussian 16, Revision A.03,
 Gaussian 16:  EM64L-G16RevA.03 25-Dec-2016

 -------------
 #p 6-31g* mp2
 -------------

 ------------------------------------------------------
 Input file generated by CHIRIPA (05-May-2021 14:55:22)
 ------------------------------------------------------
 Symbolic Z-matrix:
 Charge =  0 Multiplicity = 1

                         Standard orientation:
 ---------------------------------------------------------------------
 Center     Atomic      Atomic             Coordinates (Angstroms)
 Number     Number       Type             X           Y           Z
 ---------------------------------------------------------------------
      1          6           0        2.337801    2.206742    0.108699
      2          6           0        1.833977    1.297870   -0.827588
      3          6           0        2.349543    0.000759   -0.906601
      4          6           0        3.373257   -0.355460   -0.030012
      5          6           0        3.896270    0.527289    0.913652
      6          6           0        3.365528    1.819234    0.974804
      7          1           0        1.931403    3.212362    0.163141
      8          1           0        1.035853    1.596051   -1.501481
      9          1           0        1.978065   -0.722962   -1.621898
     10          1           0        4.692109    0.200942    1.572101
     11          1           0        3.758750    2.522969    1.702938
     12          7           0        3.927096   -1.725919   -0.104205
     13          8           0        4.828796   -2.015176    0.679316
     14          8           0        3.449009   -2.484878   -0.944474
     15          6           0       -3.768379    0.599846   -0.433310
     16          6           0       -2.810193    1.514577    0.330321
     17          6           0       -1.951615    2.376511   -0.595803
     18          1           0       -3.189315   -0.047178   -1.106355
     19          1           0       -4.418721    1.213186   -1.072264
     20          1           0       -2.162777    0.899793    0.968686
     21          1           0       -3.391590    2.159366    1.001767
     22          1           0       -2.582642    3.013989   -1.223520
     23          1           0       -1.346847    1.747260   -1.256787
     24          1           0       -1.274022    3.022672   -0.029054
     25          6           0       -4.633483   -0.268089    0.478836
     26          6           0       -5.591670   -1.182821   -0.284794
     27          6           0       -6.450248   -2.044755    0.641331
     28          1           0       -3.983140   -0.881430    1.117791
     29          1           0       -5.212548    0.378934    1.151882
     30          1           0       -5.010271   -1.827609   -0.956240
     31          1           0       -6.239085   -0.568037   -0.923159
     32          1           0       -7.055015   -1.415504    1.302315
     33          1           0       -5.819219   -2.682233    1.269046
     34          1           0       -7.127839   -2.690916    0.074582
 ---------------------------------------------------------------------

 SCF Done:  E(RHF) =  -669.535338948     A.U. after   15 cycles
 E2 =    -0.2091196060D+01 EUMP2 =    -0.67162653500795D+03

 The electronic state is 1-A.
 Alpha  occ. eigenvalues --  -20.60752 -20.60747 -15.85804 -11.31163 -11.27727
 Alpha  occ. eigenvalues --  -11.27716 -11.27459 -11.26745 -11.26691 -11.22276
 Alpha  occ. eigenvalues --  -11.22097 -11.21899 -11.21865 -11.21725 -11.21258
 Alpha  occ. eigenvalues --   -1.59828  -1.39381  -1.19330  -1.08903  -1.08724
 Alpha  occ. eigenvalues --   -1.04733  -1.04043  -0.96521  -0.95562  -0.87552
 Alpha  occ. eigenvalues --   -0.86122  -0.82396  -0.80119  -0.78675  -0.77446
 Alpha  occ. eigenvalues --   -0.72023  -0.71151  -0.70437  -0.65548  -0.64980
 Alpha  occ. eigenvalues --   -0.64744  -0.62135  -0.61390  -0.59914  -0.58106
 Alpha  occ. eigenvalues --   -0.55836  -0.55216  -0.53280  -0.53046  -0.53003
 Alpha  occ. eigenvalues --   -0.52729  -0.50428  -0.48781  -0.48778  -0.48423
 Alpha  occ. eigenvalues --   -0.47119  -0.46229  -0.46120  -0.44789  -0.44288
 Alpha  occ. eigenvalues --   -0.37302  -0.36327
 Alpha virt. eigenvalues --    0.05079   0.11264   0.16538   0.20288   0.22628
 Alpha virt. eigenvalues --    0.24018   0.25422   0.26467   0.26555   0.27550
 Alpha virt. eigenvalues --    0.29003   0.29535   0.31282   0.31683   0.32500

 Mulliken charges:
               1
     1  C   -0.172827
     2  C   -0.219198
     3  C   -0.172868
     4  C    0.158723
     5  C   -0.171200
     6  C   -0.218561
     7  H    0.226058
     8  H    0.228944
     9  H    0.275053
    10  H    0.275436
    11  H    0.223252
    12  N    0.488082
    13  O   -0.460515
    14  O   -0.460647
    15  C   -0.298916
    16  C   -0.299901
    17  C   -0.477543
    18  H    0.149705
    19  H    0.150152
    20  H    0.155490
    21  H    0.154142
    22  H    0.158788
    23  H    0.149153
    24  H    0.154822
    25  C   -0.298998
    26  C   -0.300156
    27  C   -0.476099
    28  H    0.151461
    29  H    0.150096
    30  H    0.153068
    31  H    0.151898
    32  H    0.155180
    33  H    0.156502
    34  H    0.161422
 Sum of Mulliken charges =  -0.00000

 Dipole moment (field-independent basis, Debye):
    X=             -2.1156    Y=              4.8040    Z=              0.3084  Tot=              5.2583
 Quadrupole moment (field-independent basis, Debye-Ang):
   XX=           -105.8787   YY=            -98.5882   ZZ=            -92.7167
   XY=             16.9918   XZ=              3.9834   YZ=              1.1359

 Normal termination of Gaussian 16 at Wed May  5 23:53:06 2021.
