 Gaussian 16, Revision A.03,
 Gaussian 16:  EM64L-G16RevA.03 25-Dec-2016

 -------------
 #p 6-31g* mp2
 -------------

 ------------------------------------------------------
 Input file generated by CHIRIPA (05-May-2021 14:57:24)
 ------------------------------------------------------
 Symbolic Z-matrix:
 Charge =  0 Multiplicity = 1

                         Standard orientation:
 ---------------------------------------------------------------------
 Center     Atomic      Atomic             Coordinates (Angstroms)
 Number     Number       Type             X           Y           Z
 ---------------------------------------------------------------------
      1          6           0       -1.725063    2.068594   -0.305089
      2          6           0       -3.015108    2.457769    0.070206
      3          6           0       -4.041313    1.513399    0.168280
      4          6           0       -3.740885    0.182454   -0.117406
      5          6           0       -2.465694   -0.236438   -0.493848
      6          6           0       -1.454950    0.725101   -0.585425
      7          1           0       -0.933887    2.808871   -0.378752
      8          1           0       -3.227777    3.500439    0.288508
      9          1           0       -5.048946    1.787203    0.456593
     10          1           0       -2.284206   -1.283238   -0.705243
     11          1           0       -0.454019    0.419982   -0.877118
     12          7           0       -4.819099   -0.826396   -0.017019
     13          8           0       -4.528663   -1.992700   -0.273960
     14          8           0       -5.934223   -0.431726    0.316704
     15          6           0        5.666083    0.922267   -0.439039
     16          6           0        5.052820    0.113461   -1.401464
     17          6           0        3.887339   -0.595297   -1.095091
     18          6           0        3.359882   -0.471599    0.189346
     19          6           0        3.947603    0.326111    1.169924
     20          6           0        5.112492    1.025829    0.841326
     21          1           0        6.571227    1.469336   -0.685669
     22          1           0        5.480517    0.031136   -2.396624
     23          1           0        3.392024   -1.228616   -1.821030
     24          1           0        3.497768    0.388182    2.153394
     25          1           0        5.586605    1.653207    1.590764
     26          7           0        2.126353   -1.217144    0.525453
     27          8           0        1.681490   -1.091284    1.664266
     28          8           0        1.627732   -1.913244   -0.356283
 ---------------------------------------------------------------------

 SCF Done:  E(RHF) =  -868.338707128     A.U. after   16 cycles
 E2 =    -0.2599075996D+01 EUMP2 =    -0.87093778312383D+03

 The electronic state is 1-A.
 Alpha  occ. eigenvalues --  -20.61704 -20.61665 -20.60017 -20.59995 -15.86709
 Alpha  occ. eigenvalues --  -15.85058 -11.31950 -11.30352 -11.28499 -11.28485
 Alpha  occ. eigenvalues --  -11.28193 -11.27466 -11.27456 -11.26984 -11.26815
 Alpha  occ. eigenvalues --  -11.26733 -11.26026 -11.25865  -1.60762  -1.59085
 Alpha  occ. eigenvalues --   -1.40312  -1.38639  -1.20108  -1.18534  -1.09524
 Alpha  occ. eigenvalues --   -1.07966  -1.05480  -1.03909  -0.96376  -0.94802
 Alpha  occ. eigenvalues --   -0.86882  -0.85337  -0.83202  -0.81620  -0.78274
 Alpha  occ. eigenvalues --   -0.76662  -0.72913  -0.72100  -0.71282  -0.71193
 Alpha  occ. eigenvalues --   -0.70405  -0.69682  -0.65750  -0.65466  -0.64192
 Alpha  occ. eigenvalues --   -0.63928  -0.62821  -0.61246  -0.55970  -0.54494
 Alpha  occ. eigenvalues --   -0.53831  -0.53558  -0.52265  -0.52009  -0.49694
 Alpha  occ. eigenvalues --   -0.49665  -0.48044  -0.48029  -0.45727  -0.44059
 Alpha  occ. eigenvalues --   -0.38083  -0.37083  -0.36558  -0.35496
 Alpha virt. eigenvalues --    0.04220   0.05855   0.10569   0.12132   0.15729
 Alpha virt. eigenvalues --    0.17340   0.20771   0.22130   0.26704   0.27475
 Alpha virt. eigenvalues --    0.28046   0.29062   0.30359   0.31499   0.31991

 Mulliken charges:
               1
     1  C   -0.171176
     2  C   -0.218882
     3  C   -0.171970
     4  C    0.157609
     5  C   -0.168243
     6  C   -0.216916
     7  H    0.220018
     8  H    0.219330
     9  H    0.272898
    10  H    0.283541
    11  H    0.225399
    12  N    0.488051
    13  O   -0.458595
    14  O   -0.463948
    15  C   -0.170350
    16  C   -0.218550
    17  C   -0.172803
    18  C    0.154881
    19  C   -0.171700
    20  C   -0.218794
    21  H    0.228052
    22  H    0.225817
    23  H    0.276278
    24  H    0.277138
    25  H    0.225654
    26  N    0.485555
    27  O   -0.454331
    28  O   -0.463960
 Sum of Mulliken charges =  -0.00000

 Dipole moment (field-independent basis, Debye):
    X=              8.5055    Y=              6.0240    Z=             -1.4925  Tot=             10.5290
 Quadrupole moment (field-independent basis, Debye-Ang):
   XX=           -102.7863   YY=           -104.0018   ZZ=           -101.2787
   XY=             -7.6775   XZ=             -3.1689   YZ=              3.7541

 Normal termination of Gaussian 16 at Thu May  6 22:49:30 2021.
