 Gaussian 16, Revision A.03,
 Gaussian 16:  EM64L-G16RevA.03 25-Dec-2016

 -------------
 #p 6-31g* mp2
 -------------

 ------------------------------------------------------
 Input file generated by CHIRIPA (05-May-2021 14:53:13)
 ------------------------------------------------------
 Symbolic Z-matrix:
 Charge =  0 Multiplicity = 1

                         Standard orientation:
 ---------------------------------------------------------------------
 Center     Atomic      Atomic             Coordinates (Angstroms)
 Number     Number       Type             X           Y           Z
 ---------------------------------------------------------------------
      1          6           0        3.395488    0.667323   -0.258549
      2          6           0        3.490590    1.985730    0.510051
      3          6           0        3.212555    3.204573   -0.370239
      4          1           0        4.106288    0.686374   -1.096013
      5          1           0        2.393448    0.580334   -0.700976
      6          1           0        4.491701    2.069564    0.952053
      7          1           0        2.779618    1.963462    1.345897
      8          1           0        2.207361    3.147912   -0.800327
      9          1           0        3.929172    3.254618   -1.196409
     10          1           0        3.285839    4.136277    0.199337
     11          6           0        3.670896   -0.560297    0.607954
     12          6           0        3.575794   -1.878703   -0.160645
     13          6           0        3.853830   -3.097547    0.719644
     14          1           0        4.672937   -0.473307    1.050381
     15          1           0        2.960096   -0.579347    1.445418
     16          1           0        4.286767   -1.856435   -0.996491
     17          1           0        2.574684   -1.962538   -0.602647
     18          1           0        3.137212   -3.147591    1.545814
     19          1           0        4.859023   -3.040885    1.149732
     20          1           0        3.780546   -4.029251    0.150068
     21          6           0       -5.153453    0.019850    0.660364
     22          6           0       -4.323438    1.129498    0.850832
     23          6           0       -2.995786    1.106499    0.413387
     24          6           0       -2.528945   -0.047768   -0.213523
     25          6           0       -3.331203   -1.169339   -0.417860
     26          6           0       -4.655564   -1.124010    0.027741
     27          1           0       -6.183528    0.046389    1.003349
     28          1           0       -4.707403    2.019186    1.341821
     29          1           0       -2.331415    1.951434    0.547986
     30          1           0       -2.919971   -2.041984   -0.910604
     31          1           0       -5.297879   -1.987257   -0.121527
     32          7           0       -1.125162   -0.083935   -0.680944
     33          8           0       -0.737917   -1.112869   -1.230465
     34          8           0       -0.438702    0.917335   -0.488935
 ---------------------------------------------------------------------

 SCF Done:  E(RHF) =  -669.537170921     A.U. after   15 cycles
 E2 =    -0.2091841936D+01 EUMP2 =    -0.67162901285738D+03

 The electronic state is 1-A.
 Alpha  occ. eigenvalues --  -20.61216 -20.61209 -15.86208 -11.31441 -11.27987
 Alpha  occ. eigenvalues --  -11.27984 -11.27709 -11.26973 -11.26963 -11.20199
 Alpha  occ. eigenvalues --  -11.20174 -11.20008 -11.19957 -11.19765 -11.19544
 Alpha  occ. eigenvalues --   -1.60247  -1.39806  -1.19596  -1.09018  -1.06928
 Alpha  occ. eigenvalues --   -1.04977  -1.02171  -0.95874  -0.94636  -0.86381
 Alpha  occ. eigenvalues --   -0.85662  -0.82711  -0.78235  -0.77775  -0.76720
 Alpha  occ. eigenvalues --   -0.72424  -0.71547  -0.70703  -0.65253  -0.64980
 Alpha  occ. eigenvalues --   -0.63535  -0.62323  -0.59558  -0.58017  -0.56255
 Alpha  occ. eigenvalues --   -0.55486  -0.53919  -0.53313  -0.53066  -0.51397
 Alpha  occ. eigenvalues --   -0.51081  -0.49259  -0.49186  -0.48528  -0.46564
 Alpha  occ. eigenvalues --   -0.45283  -0.45175  -0.44323  -0.44007  -0.42383
 Alpha  occ. eigenvalues --   -0.37569  -0.36572
 Alpha virt. eigenvalues --    0.04742   0.11085   0.16256   0.21213   0.24342
 Alpha virt. eigenvalues --    0.25528   0.27157   0.27900   0.28292   0.29075
 Alpha virt. eigenvalues --    0.29372   0.30852   0.32210   0.32688   0.32993

 Mulliken charges:
               1
     1  C   -0.311543
     2  C   -0.295117
     3  C   -0.478262
     4  H    0.141784
     5  H    0.182487
     6  H    0.144273
     7  H    0.149882
     8  H    0.165736
     9  H    0.150890
    10  H    0.152131
    11  C   -0.295428
    12  C   -0.304528
    13  C   -0.474296
    14  H    0.142095
    15  H    0.146352
    16  H    0.147727
    17  H    0.168296
    18  H    0.151994
    19  H    0.150916
    20  H    0.156770
    21  C   -0.170233
    22  C   -0.218575
    23  C   -0.170574
    24  C    0.157776
    25  C   -0.170459
    26  C   -0.218618
    27  H    0.226579
    28  H    0.224418
    29  H    0.276098
    30  H    0.276186
    31  H    0.224373
    32  N    0.489914
    33  O   -0.458873
    34  O   -0.460172
 Sum of Mulliken charges =  -0.00000

 Dipole moment (field-independent basis, Debye):
    X=             -5.5030    Y=              0.0977    Z=              1.4956  Tot=              5.7034
 Quadrupole moment (field-independent basis, Debye-Ang):
   XX=            -70.9964   YY=            -92.3276   ZZ=            -96.0276
   XY=              0.7718   XZ=             -3.8007   YZ=              2.3491

 Normal termination of Gaussian 16 at Thu May  6 02:36:09 2021.
