 Gaussian 16, Revision A.03,
 Gaussian 16:  EM64L-G16RevA.03 25-Dec-2016

 -------------
 #p 6-31g* mp2
 -------------

 ------------------------------------------------------
 Input file generated by CHIRIPA (05-May-2021 14:53:13)
 ------------------------------------------------------
 Symbolic Z-matrix:
 Charge =  0 Multiplicity = 1

                         Standard orientation:
 ---------------------------------------------------------------------
 Center     Atomic      Atomic             Coordinates (Angstroms)
 Number     Number       Type             X           Y           Z
 ---------------------------------------------------------------------
      1          6           0        4.013448    0.005893   -0.100721
      2          6           0        3.032323   -1.103105    0.280727
      3          6           0        1.577944   -0.631326    0.281179
      4          1           0        3.898841    0.844854    0.599246
      5          1           0        3.751665    0.391155   -1.095929
      6          1           0        3.296722   -1.487108    1.274331
      7          1           0        3.149413   -1.939601   -0.420115
      8          1           0        1.290883   -0.266805   -0.710446
      9          1           0        1.439029    0.188260    0.993628
     10          1           0        0.893681   -1.439900    0.556593
     11          6           0        5.471375   -0.450345   -0.105633
     12          6           0        6.452500    0.658653   -0.487081
     13          6           0        7.906879    0.186874   -0.487534
     14          1           0        5.733158   -0.835607    0.889574
     15          1           0        5.585982   -1.289305   -0.805601
     16          1           0        6.335410    1.495150    0.213761
     17          1           0        6.188101    1.042656   -1.480686
     18          1           0        8.045794   -0.632712   -1.199982
     19          1           0        8.193940   -0.177647    0.504092
     20          1           0        8.591142    0.995448   -0.762947
     21          6           0       -1.580463    1.085355    1.091029
     22          6           0       -2.436357    1.931945    0.378814
     23          6           0       -3.616177    1.437659   -0.185326
     24          6           0       -3.910402    0.085470   -0.017077
     25          6           0       -3.077970   -0.783217    0.687004
     26          6           0       -1.903432   -0.267140    1.242584
     27          1           0       -0.666001    1.477794    1.525941
     28          1           0       -2.188084    2.982742    0.259519
     29          1           0       -4.296710    2.070816   -0.741567
     30          1           0       -3.352317   -1.826159    0.789110
     31          1           0       -1.240611   -0.926944    1.795189
     32          7           0       -5.156629   -0.449344   -0.609775
     33          8           0       -5.393168   -1.644461   -0.447353
     34          8           0       -5.873286    0.336713   -1.225531
 ---------------------------------------------------------------------

 SCF Done:  E(RHF) =  -669.534570952     A.U. after   15 cycles
 E2 =    -0.2092019722D+01 EUMP2 =    -0.67162659067473D+03

 The electronic state is 1-A.
 Alpha  occ. eigenvalues --  -20.60707 -20.60702 -15.85760 -11.31106 -11.27678
 Alpha  occ. eigenvalues --  -11.27664 -11.27389 -11.26684 -11.26646 -11.22355
 Alpha  occ. eigenvalues --  -11.22101 -11.22061 -11.22049 -11.21897 -11.21449
 Alpha  occ. eigenvalues --   -1.59783  -1.39337  -1.19278  -1.09052  -1.08673
 Alpha  occ. eigenvalues --   -1.04685  -1.04175  -0.96657  -0.95509  -0.87689
 Alpha  occ. eigenvalues --   -0.86066  -0.82349  -0.80255  -0.78839  -0.77397
 Alpha  occ. eigenvalues --   -0.71979  -0.71106  -0.70396  -0.65681  -0.64929
 Alpha  occ. eigenvalues --   -0.64708  -0.62066  -0.61565  -0.60015  -0.58256
 Alpha  occ. eigenvalues --   -0.55972  -0.55169  -0.53535  -0.53128  -0.52838
 Alpha  occ. eigenvalues --   -0.52659  -0.50580  -0.48743  -0.48734  -0.48545
 Alpha  occ. eigenvalues --   -0.47265  -0.46388  -0.46291  -0.44748  -0.44422
 Alpha  occ. eigenvalues --   -0.37213  -0.36268
 Alpha virt. eigenvalues --    0.05125   0.11310   0.16578   0.20232   0.22476
 Alpha virt. eigenvalues --    0.23944   0.25466   0.26356   0.26415   0.27401
 Alpha virt. eigenvalues --    0.28986   0.29660   0.31187   0.31686   0.32346

 Mulliken charges:
               1
     1  C   -0.298779
     2  C   -0.301118
     3  C   -0.475377
     4  H    0.147396
     5  H    0.151009
     6  H    0.151991
     7  H    0.155848
     8  H    0.162295
     9  H    0.143776
    10  H    0.158070
    11  C   -0.298686
    12  C   -0.299994
    13  C   -0.476022
    14  H    0.149995
    15  H    0.151376
    16  H    0.151472
    17  H    0.152661
    18  H    0.156177
    19  H    0.155550
    20  H    0.161373
    21  C   -0.168608
    22  C   -0.219851
    23  C   -0.171094
    24  C    0.158326
    25  C   -0.172830
    26  C   -0.215569
    27  H    0.226452
    28  H    0.223009
    29  H    0.275196
    30  H    0.275031
    31  H    0.224282
    32  N    0.488114
    33  O   -0.460731
    34  O   -0.460743
 Sum of Mulliken charges =  -0.00000

 Dipole moment (field-independent basis, Debye):
    X=              4.5671    Y=              1.8585    Z=              2.0211  Tot=              5.3289
 Quadrupole moment (field-independent basis, Debye-Ang):
   XX=           -130.4249   YY=            -90.3971   ZZ=            -93.9898
   XY=             -8.0556   XZ=             -7.8847   YZ=             -1.4489

 Normal termination of Gaussian 16 at Thu May  6 21:53:45 2021.
