 Gaussian 16, Revision A.03,
 Gaussian 16:  EM64L-G16RevA.03 25-Dec-2016

 -------------
 #p 6-31g* mp2
 -------------

 ------------------------------------------------------
 Input file generated by CHIRIPA (05-May-2021 14:51:13)
 ------------------------------------------------------
 Symbolic Z-matrix:
 Charge =  0 Multiplicity = 1

                         Standard orientation:
 ---------------------------------------------------------------------
 Center     Atomic      Atomic             Coordinates (Angstroms)
 Number     Number       Type             X           Y           Z
 ---------------------------------------------------------------------
      1          6           0       -2.704586   -0.243765   -0.622031
      2          6           0       -3.439704   -1.554892   -0.341794
      3          6           0       -2.843510   -2.740786   -1.100742
      4          1           0       -2.729612   -0.040200   -1.701327
      5          1           0       -1.646228   -0.359560   -0.350250
      6          1           0       -4.496647   -1.436219   -0.612727
      7          1           0       -3.413090   -1.755261    0.736983
      8          1           0       -1.794620   -2.887602   -0.823477
      9          1           0       -2.884333   -2.566747   -2.180856
     10          1           0       -3.384194   -3.667781   -0.885799
     11          6           0       -3.288933    0.951000    0.129504
     12          6           0       -2.553815    2.262126   -0.150733
     13          6           0       -3.150009    3.448020    0.608216
     14          1           0       -4.347291    1.066795   -0.142277
     15          1           0       -3.263906    0.747435    1.208800
     16          1           0       -2.580428    2.462496   -1.229510
     17          1           0       -1.496872    2.143454    0.120200
     18          1           0       -3.109185    3.273981    1.688329
     19          1           0       -4.198898    3.594836    0.330950
     20          1           0       -2.609324    4.375015    0.393272
     21          6           0        3.381023    0.306060    0.221801
     22          6           0        4.567732    0.281154   -0.742090
     23          6           0        5.326517    1.608033   -0.779948
     24          1           0        2.696025    1.113588   -0.070811
     25          1           0        3.741703    0.552153    1.230138
     26          1           0        4.205106    0.033821   -1.748044
     27          1           0        5.249889   -0.526532   -0.447262
     28          1           0        5.715731    1.857686    0.212416
     29          1           0        4.665011    2.421222   -1.095755
     30          1           0        6.170769    1.568017   -1.475287
     31          6           0        2.612495   -1.013295    0.270726
     32          6           0        1.425786   -0.988388    1.234617
     33          6           0        0.667002   -2.315267    1.272474
     34          1           0        2.251815   -1.259388   -0.737611
     35          1           0        3.297493   -1.820823    0.563338
     36          1           0        0.743629   -0.180704    0.939790
     37          1           0        1.788412   -0.741056    2.240571
     38          1           0        1.328507   -3.128456    1.588282
     39          1           0        0.277787   -2.564920    0.280111
     40          1           0       -0.177251   -2.275252    1.967814
 ---------------------------------------------------------------------

 SCF Done:  E(RHF) =  -470.733102003     A.U. after   11 cycles
 E2 =    -0.1583648335D+01 EUMP2 =    -0.47231675033846D+03

 The electronic state is 1-A.
 Alpha  occ. eigenvalues --  -11.21689 -11.21626 -11.21624 -11.21577 -11.21451
 Alpha  occ. eigenvalues --  -11.21401 -11.21389 -11.21339 -11.21156 -11.21086
 Alpha  occ. eigenvalues --  -11.21083 -11.21011  -1.08488  -1.08420  -1.03598
 Alpha  occ. eigenvalues --   -1.03510  -0.96042  -0.95964  -0.87066  -0.86975
 Alpha  occ. eigenvalues --   -0.79666  -0.79572  -0.78298  -0.78240  -0.65254
 Alpha  occ. eigenvalues --   -0.64940  -0.61143  -0.60775  -0.59397  -0.59337
 Alpha  occ. eigenvalues --   -0.57691  -0.57549  -0.55430  -0.55173  -0.52730
 Alpha  occ. eigenvalues --   -0.52661  -0.52518  -0.52347  -0.50135  -0.49765
 Alpha  occ. eigenvalues --   -0.48025  -0.47861  -0.46760  -0.46498  -0.45966
 Alpha  occ. eigenvalues --   -0.45764  -0.45747  -0.45535  -0.43835  -0.43776
 Alpha virt. eigenvalues --    0.19615   0.23122   0.23351   0.24527   0.25810
 Alpha virt. eigenvalues --    0.26365   0.26805   0.27591   0.28492   0.29185
 Alpha virt. eigenvalues --    0.30415   0.31040   0.31727   0.32141   0.32397

 Mulliken charges:
               1
     1  C   -0.304667
     2  C   -0.298570
     3  C   -0.481750
     4  H    0.149262
     5  H    0.155573
     6  H    0.151795
     7  H    0.151976
     8  H    0.161136
     9  H    0.154510
    10  H    0.160308
    11  C   -0.297865
    12  C   -0.300435
    13  C   -0.475673
    14  H    0.149676
    15  H    0.149670
    16  H    0.151931
    17  H    0.151648
    18  H    0.155372
    19  H    0.155316
    20  H    0.160246
    21  C   -0.298426
    22  C   -0.299732
    23  C   -0.475767
    24  H    0.149761
    25  H    0.149573
    26  H    0.152172
    27  H    0.151991
    28  H    0.155181
    29  H    0.155317
    30  H    0.160366
    31  C   -0.298452
    32  C   -0.303655
    33  C   -0.481267
    34  H    0.150035
    35  H    0.149989
    36  H    0.154145
    37  H    0.152526
    38  H    0.156147
    39  H    0.160174
    40  H    0.160465
 Sum of Mulliken charges =  -0.00000

 Dipole moment (field-independent basis, Debye):
    X=              0.0321    Y=             -0.0113    Z=              0.0105  Tot=              0.0356
 Quadrupole moment (field-independent basis, Debye-Ang):
   XX=            -84.5355   YY=            -86.3324   ZZ=            -83.8472
   XY=             -0.6497   XZ=              1.1694   YZ=             -0.7670

 Normal termination of Gaussian 16 at Wed May  5 19:57:16 2021.
