 Gaussian 16, Revision A.03,
 Gaussian 16:  EM64L-G16RevA.03 25-Dec-2016

 -------------
 #p 6-31g* mp2
 -------------

 ------------------------------------------------------
 Input file generated by CHIRIPA (05-May-2021 14:55:25)
 ------------------------------------------------------
 Symbolic Z-matrix:
 Charge =  0 Multiplicity = 1

                         Standard orientation:
 ---------------------------------------------------------------------
 Center     Atomic      Atomic             Coordinates (Angstroms)
 Number     Number       Type             X           Y           Z
 ---------------------------------------------------------------------
      1          6           0        1.104386    2.282212    0.413460
      2          6           0        0.671669    0.970970    0.190033
      3          6           0        1.594993   -0.048376   -0.060876
      4          6           0        2.949522    0.280451   -0.081226
      5          6           0        3.411824    1.577242    0.137633
      6          6           0        2.470674    2.580637    0.386594
      7          1           0        0.380203    3.067869    0.607616
      8          1           0       -0.388784    0.736296    0.210304
      9          1           0        1.287506   -1.071996   -0.237152
     10          1           0        4.475503    1.780479    0.111172
     11          1           0        2.809611    3.598075    0.559764
     12          7           0        3.936439   -0.790242   -0.345821
     13          8           0        5.124238   -0.474629   -0.358469
     14          8           0        3.503499   -1.924792   -0.535552
     15          6           0       -4.053955   -0.256255   -0.440231
     16          6           0       -4.981010    0.763752    0.221691
     17          6           0       -5.948978    1.412546   -0.768207
     18          1           0       -3.485940    0.238714   -1.239798
     19          1           0       -4.661406   -1.033868   -0.923674
     20          1           0       -4.371971    1.538462    0.704921
     21          1           0       -5.546745    0.266341    1.019902
     22          1           0       -6.581038    0.654513   -1.242007
     23          1           0       -5.399588    1.933862   -1.558778
     24          1           0       -6.602276    2.138259   -0.273837
     25          6           0       -3.080421   -0.913443    0.536531
     26          6           0       -2.153367   -1.933451   -0.125391
     27          6           0       -1.185399   -2.582245    0.864507
     28          1           0       -2.472971   -0.135830    1.019973
     29          1           0       -3.648437   -1.408413    1.336099
     30          1           0       -1.587631   -1.436040   -0.923602
     31          1           0       -2.762406   -2.708160   -0.608621
     32          1           0       -1.734788   -3.103561    1.655078
     33          1           0       -0.553338   -1.824212    1.338308
     34          1           0       -0.532101   -3.307958    0.370137
 ---------------------------------------------------------------------

 SCF Done:  E(RHF) =  -669.534825100     A.U. after   15 cycles
 E2 =    -0.2093182393D+01 EUMP2 =    -0.67162800749306D+03

 The electronic state is 1-A.
 Alpha  occ. eigenvalues --  -20.60733 -20.60728 -15.85785 -11.31143 -11.27734
 Alpha  occ. eigenvalues --  -11.27677 -11.27475 -11.26747 -11.26698 -11.22492
 Alpha  occ. eigenvalues --  -11.22357 -11.22340 -11.22185 -11.21778 -11.21681
 Alpha  occ. eigenvalues --   -1.59808  -1.39361  -1.19327  -1.09303  -1.08723
 Alpha  occ. eigenvalues --   -1.04755  -1.04302  -0.96757  -0.95555  -0.87766
 Alpha  occ. eigenvalues --   -0.86126  -0.82397  -0.80373  -0.79100  -0.77448
 Alpha  occ. eigenvalues --   -0.72006  -0.71131  -0.70450  -0.66098  -0.64980
 Alpha  occ. eigenvalues --   -0.64689  -0.62410  -0.61337  -0.60103  -0.58349
 Alpha  occ. eigenvalues --   -0.56080  -0.55221  -0.53407  -0.53179  -0.53044
 Alpha  occ. eigenvalues --   -0.52824  -0.50661  -0.48769  -0.48758  -0.48658
 Alpha  occ. eigenvalues --   -0.47448  -0.46605  -0.46587  -0.44767  -0.44575
 Alpha  occ. eigenvalues --   -0.37313  -0.36316
 Alpha virt. eigenvalues --    0.05062   0.11295   0.16456   0.18693   0.22744
 Alpha virt. eigenvalues --    0.23663   0.25221   0.26045   0.26821   0.28689
 Alpha virt. eigenvalues --    0.29938   0.30242   0.31111   0.31231   0.32000

 Mulliken charges:
               1
     1  C   -0.172674
     2  C   -0.228741
     3  C   -0.177930
     4  C    0.158482
     5  C   -0.170586
     6  C   -0.218744
     7  H    0.225640
     8  H    0.235726
     9  H    0.283768
    10  H    0.275522
    11  H    0.223317
    12  N    0.488097
    13  O   -0.460680
    14  O   -0.460400
    15  C   -0.299509
    16  C   -0.299283
    17  C   -0.476148
    18  H    0.147956
    19  H    0.154211
    20  H    0.147882
    21  H    0.154651
    22  H    0.157587
    23  H    0.155060
    24  H    0.161961
    25  C   -0.302714
    26  C   -0.306225
    27  C   -0.485102
    28  H    0.141316
    29  H    0.156282
    30  H    0.147728
    31  H    0.159803
    32  H    0.161530
    33  H    0.152320
    34  H    0.169895
 Sum of Mulliken charges =  -0.00000

 Dipole moment (field-independent basis, Debye):
    X=             -3.6700    Y=              3.6184    Z=              0.9292  Tot=              5.2369
 Quadrupole moment (field-independent basis, Debye-Ang):
   XX=           -111.9835   YY=            -89.9591   ZZ=            -96.0763
   XY=             14.3400   XZ=              2.8536   YZ=              0.3910

 Normal termination of Gaussian 16 at Thu May  6 06:24:22 2021.
