 Gaussian 16, Revision A.03,
 Gaussian 16:  EM64L-G16RevA.03 25-Dec-2016

 -------------
 #p 6-31g* mp2
 -------------

 ------------------------------------------------------
 Input file generated by CHIRIPA (05-May-2021 14:51:11)
 ------------------------------------------------------
 Symbolic Z-matrix:
 Charge =  0 Multiplicity = 1

                         Standard orientation:
 ---------------------------------------------------------------------
 Center     Atomic      Atomic             Coordinates (Angstroms)
 Number     Number       Type             X           Y           Z
 ---------------------------------------------------------------------
      1          6           0       -4.190666    0.240952   -0.447817
      2          6           0       -4.527951    1.141103    0.741281
      3          6           0       -5.975535    1.632816    0.718604
      4          1           0       -4.378152    0.790569   -1.380402
      5          1           0       -4.871769   -0.621304   -0.450843
      6          1           0       -3.845513    2.000691    0.742858
      7          1           0       -4.339458    0.589344    1.671146
      8          1           0       -6.670134    0.786859    0.740761
      9          1           0       -6.173382    2.206225   -0.192801
     10          1           0       -6.195032    2.274596    1.577556
     11          6           0       -2.747028   -0.258609   -0.439170
     12          6           0       -2.409743   -1.158760   -1.628267
     13          6           0       -0.962159   -1.650472   -1.605591
     14          1           0       -2.065925    0.603647   -0.436144
     15          1           0       -2.559542   -0.808226    0.493415
     16          1           0       -2.598235   -0.607001   -2.558132
     17          1           0       -3.092181   -2.018347   -1.629844
     18          1           0       -0.764312   -2.223881   -0.694185
     19          1           0       -0.267560   -0.804516   -1.627748
     20          1           0       -0.742662   -2.292253   -2.464543
     21          6           0        3.154961   -0.666422    0.613626
     22          6           0        1.880074   -0.549074    1.449613
     23          6           0        1.263854   -1.908355    1.781912
     24          1           0        2.927565   -1.204795   -0.316638
     25          1           0        3.887095   -1.278697    1.158137
     26          1           0        1.151068    0.063950    0.904296
     27          1           0        2.110490   -0.010749    2.377907
     28          1           0        1.970862   -2.523963    2.347389
     29          1           0        1.005990   -2.448841    0.865406
     30          1           0        0.353566   -1.801055    2.380010
     31          6           0        3.782732    0.684078    0.273362
     32          6           0        5.057620    0.566731   -0.562627
     33          6           0        5.673840    1.926012   -0.894925
     34          1           0        3.050598    1.296354   -0.271150
     35          1           0        4.010129    1.222453    1.203625
     36          1           0        4.827203    0.028406   -1.490920
     37          1           0        5.786625   -0.046293   -0.017309
     38          1           0        5.931704    2.466498    0.021581
     39          1           0        4.966831    2.541621   -1.460403
     40          1           0        6.584128    1.818713   -1.493023
 ---------------------------------------------------------------------

 SCF Done:  E(RHF) =  -470.733153675     A.U. after   11 cycles
 E2 =    -0.1583040597D+01 EUMP2 =    -0.47231619427285D+03

 The electronic state is 1-A.
 Alpha  occ. eigenvalues --  -11.21634 -11.21614 -11.21579 -11.21537 -11.21429
 Alpha  occ. eigenvalues --  -11.21369 -11.21368 -11.21303 -11.21095 -11.21081
 Alpha  occ. eigenvalues --  -11.21057 -11.20996  -1.08456  -1.08387  -1.03570
 Alpha  occ. eigenvalues --   -1.03473  -0.96029  -0.95921  -0.87049  -0.86939
 Alpha  occ. eigenvalues --   -0.79634  -0.79541  -0.78266  -0.78202  -0.65085
 Alpha  occ. eigenvalues --   -0.65024  -0.61012  -0.60865  -0.59377  -0.59297
 Alpha  occ. eigenvalues --   -0.57639  -0.57533  -0.55455  -0.55098  -0.52702
 Alpha  occ. eigenvalues --   -0.52639  -0.52497  -0.52288  -0.50142  -0.49696
 Alpha  occ. eigenvalues --   -0.48023  -0.47761  -0.46768  -0.46449  -0.45861
 Alpha  occ. eigenvalues --   -0.45750  -0.45666  -0.45621  -0.43809  -0.43747
 Alpha virt. eigenvalues --    0.20773   0.23041   0.23640   0.25006   0.25600
 Alpha virt. eigenvalues --    0.26328   0.26922   0.27776   0.28032   0.29220
 Alpha virt. eigenvalues --    0.30538   0.31172   0.31544   0.31903   0.32254

 Mulliken charges:
               1
     1  C   -0.298343
     2  C   -0.299672
     3  C   -0.475728
     4  H    0.149674
     5  H    0.149666
     6  H    0.151981
     7  H    0.152000
     8  H    0.155216
     9  H    0.155182
    10  H    0.160328
    11  C   -0.298846
    12  C   -0.299545
    13  C   -0.481788
    14  H    0.149271
    15  H    0.150440
    16  H    0.151869
    17  H    0.152157
    18  H    0.161464
    19  H    0.155348
    20  H    0.160064
    21  C   -0.299247
    22  C   -0.300199
    23  C   -0.479478
    24  H    0.150885
    25  H    0.149321
    26  H    0.153441
    27  H    0.151533
    28  H    0.154655
    29  H    0.159912
    30  H    0.159120
    31  C   -0.298112
    32  C   -0.299649
    33  C   -0.475662
    34  H    0.148875
    35  H    0.149561
    36  H    0.152030
    37  H    0.151932
    38  H    0.155134
    39  H    0.155012
    40  H    0.160201
 Sum of Mulliken charges =  -0.00000

 Dipole moment (field-independent basis, Debye):
    X=             -0.0233    Y=             -0.0171    Z=             -0.0083  Tot=              0.0300
 Quadrupole moment (field-independent basis, Debye-Ang):
   XX=            -85.7651   YY=            -85.0985   ZZ=            -83.9512
   XY=              0.1505   XZ=              0.6046   YZ=             -0.2260

 Normal termination of Gaussian 16 at Thu May  6 00:41:43 2021.
