 Gaussian 16, Revision A.03,
 Gaussian 16:  EM64L-G16RevA.03 25-Dec-2016

 -------------
 #p 6-31g* mp2
 -------------

 ------------------------------------------------------
 Input file generated by CHIRIPA (05-May-2021 14:53:12)
 ------------------------------------------------------
 Symbolic Z-matrix:
 Charge =  0 Multiplicity = 1

                         Standard orientation:
 ---------------------------------------------------------------------
 Center     Atomic      Atomic             Coordinates (Angstroms)
 Number     Number       Type             X           Y           Z
 ---------------------------------------------------------------------
      1          6           0        3.242048    0.841534    0.271171
      2          6           0        2.060896    1.126657    1.199379
      3          6           0        1.769722    2.620703    1.343735
      4          1           0        4.134173    1.355001    0.655109
      5          1           0        3.034559    1.272851   -0.717925
      6          1           0        2.269951    0.693732    2.186033
      7          1           0        1.171523    0.612296    0.813290
      8          1           0        1.535561    3.063378    0.370181
      9          1           0        2.640230    3.145277    1.750724
     10          1           0        0.921718    2.801766    2.011541
     11          6           0        3.545448   -0.647703    0.116745
     12          6           0        4.726600   -0.932826   -0.811463
     13          6           0        5.017773   -2.426872   -0.955819
     14          1           0        3.752936   -1.079020    1.105841
     15          1           0        2.653322   -1.161170   -0.267193
     16          1           0        5.615973   -0.418465   -0.425374
     17          1           0        4.517545   -0.499901   -1.798117
     18          1           0        4.147265   -2.951446   -1.362808
     19          1           0        5.251934   -2.869547    0.017735
     20          1           0        5.865777   -2.607935   -1.623625
     21          6           0       -3.607185   -2.078740    1.048564
     22          6           0       -4.137716   -1.681918   -0.183340
     23          6           0       -3.615996   -0.573646   -0.857203
     24          6           0       -2.558960    0.117930   -0.267550
     25          6           0       -2.008800   -0.252708    0.958517
     26          6           0       -2.546291   -1.364128    1.614564
     27          1           0       -4.018596   -2.940895    1.565117
     28          1           0       -4.961624   -2.235007   -0.625282
     29          1           0       -4.007675   -0.244621   -1.812058
     30          1           0       -1.187527    0.318529    1.373989
     31          1           0       -2.132277   -1.670019    2.571156
     32          7           0       -1.998291    1.292874   -0.971508
     33          8           0       -1.067008    1.885360   -0.430851
     34          8           0       -2.500737    1.599062   -2.050597
 ---------------------------------------------------------------------

 SCF Done:  E(RHF) =  -669.535519837     A.U. after   15 cycles
 E2 =    -0.2092649603D+01 EUMP2 =    -0.67162816944039D+03

 The electronic state is 1-A.
 Alpha  occ. eigenvalues --  -20.60933 -20.60922 -15.85960 -11.31273 -11.27836
 Alpha  occ. eigenvalues --  -11.27808 -11.27570 -11.26844 -11.26828 -11.21307
 Alpha  occ. eigenvalues --  -11.21046 -11.20973 -11.20880 -11.20813 -11.20051
 Alpha  occ. eigenvalues --   -1.59997  -1.39554  -1.19442  -1.08849  -1.07964
 Alpha  occ. eigenvalues --   -1.04834  -1.03010  -0.95714  -0.95419  -0.86456
 Alpha  occ. eigenvalues --   -0.86236  -0.82525  -0.79121  -0.77839  -0.77545
 Alpha  occ. eigenvalues --   -0.72206  -0.71312  -0.70552  -0.65114  -0.64863
 Alpha  occ. eigenvalues --   -0.64547  -0.62205  -0.60344  -0.58852  -0.57076
 Alpha  occ. eigenvalues --   -0.55341  -0.54682  -0.53168  -0.52929  -0.52132
 Alpha  occ. eigenvalues --   -0.51877  -0.49385  -0.48952  -0.48906  -0.47430
 Alpha  occ. eigenvalues --   -0.46138  -0.45389  -0.45245  -0.44828  -0.43278
 Alpha  occ. eigenvalues --   -0.37422  -0.36431
 Alpha virt. eigenvalues --    0.04909   0.11155   0.16427   0.20940   0.23372
 Alpha virt. eigenvalues --    0.24310   0.26435   0.27282   0.27669   0.28148
 Alpha virt. eigenvalues --    0.29249   0.30766   0.31552   0.32077   0.32368

 Mulliken charges:
               1
     1  C   -0.298297
     2  C   -0.304797
     3  C   -0.470932
     4  H    0.147943
     5  H    0.155955
     6  H    0.141867
     7  H    0.154543
     8  H    0.173458
     9  H    0.147193
    10  H    0.155036
    11  C   -0.297803
    12  C   -0.299488
    13  C   -0.475373
    14  H    0.145906
    15  H    0.147617
    16  H    0.151654
    17  H    0.153755
    18  H    0.154078
    19  H    0.153478
    20  H    0.159808
    21  C   -0.170397
    22  C   -0.218660
    23  C   -0.170481
    24  C    0.155958
    25  C   -0.173852
    26  C   -0.220193
    27  H    0.225985
    28  H    0.223734
    29  H    0.275670
    30  H    0.283540
    31  H    0.224512
    32  N    0.492693
    33  O   -0.464834
    34  O   -0.459276
 Sum of Mulliken charges =  -0.00000

 Dipole moment (field-independent basis, Debye):
    X=             -2.1550    Y=             -4.0214    Z=              2.3191  Tot=              5.1180
 Quadrupole moment (field-independent basis, Debye-Ang):
   XX=            -83.0372   YY=            -97.2599   ZZ=            -93.4012
   XY=             11.7197   XZ=             -2.9093   YZ=              1.4143

 Normal termination of Gaussian 16 at Thu May  6 04:06:00 2021.
