 Gaussian 16, Revision A.03,
 Gaussian 16:  EM64L-G16RevA.03 25-Dec-2016

 -------------
 #p 6-31g* mp2
 -------------

 ------------------------------------------------------
 Input file generated by CHIRIPA (05-May-2021 14:51:13)
 ------------------------------------------------------
 Symbolic Z-matrix:
 Charge =  0 Multiplicity = 1

                         Standard orientation:
 ---------------------------------------------------------------------
 Center     Atomic      Atomic             Coordinates (Angstroms)
 Number     Number       Type             X           Y           Z
 ---------------------------------------------------------------------
      1          6           0        3.887810    0.445732   -0.100479
      2          6           0        4.187626   -0.958039   -0.627284
      3          6           0        5.679278   -1.292888   -0.601897
      4          1           0        4.440487    1.181478   -0.700621
      5          1           0        4.266647    0.532772    0.927286
      6          1           0        3.807105   -1.042850   -1.653260
      7          1           0        3.634020   -1.690515   -0.025939
      8          1           0        6.069542   -1.236009    0.419406
      9          1           0        6.243610   -0.584664   -1.217161
     10          1           0        5.870990   -2.300906   -0.982692
     11          6           0        2.400781    0.795174   -0.119567
     12          6           0        2.100965    2.198945    0.407237
     13          6           0        0.609313    2.533794    0.381851
     14          1           0        2.021944    0.708134   -1.147332
     15          1           0        1.848103    0.059428    0.480575
     16          1           0        2.654570    2.931421   -0.194107
     17          1           0        2.481486    2.283756    1.433213
     18          1           0        0.044980    1.825570    0.997114
     19          1           0        0.219049    2.476915   -0.639452
     20          1           0        0.417601    3.541812    0.762646
     21          6           0       -2.636486   -0.760009    0.663274
     22          6           0       -1.344759   -1.399890    0.153391
     23          6           0       -0.338765   -1.673007    1.271951
     24          1           0       -2.394257    0.179820    1.178048
     25          1           0       -3.092362   -1.419480    1.414718
     26          1           0       -0.892175   -0.740057   -0.597876
     27          1           0       -1.590110   -2.338209   -0.360396
     28          1           0       -0.767031   -2.349670    2.018488
     29          1           0       -0.065130   -0.742438    1.779658
     30          1           0        0.577210   -2.130492    0.885223
     31          6           0       -3.652105   -0.480897   -0.443227
     32          6           0       -4.943831    0.158985    0.066655
     33          6           0       -5.949826    0.432101   -1.051906
     34          1           0       -3.196228    0.178573   -1.194673
     35          1           0       -3.894333   -1.420726   -0.958001
     36          1           0       -4.698481    1.097303    0.580442
     37          1           0       -5.396416   -0.500849    0.817922
     38          1           0       -6.223459   -0.498468   -1.559612
     39          1           0       -5.521559    1.108765   -1.798441
     40          1           0       -6.865800    0.889586   -0.665177
 ---------------------------------------------------------------------

 SCF Done:  E(RHF) =  -470.732599070     A.U. after   11 cycles
 E2 =    -0.1584322209D+01 EUMP2 =    -0.47231692127902D+03

 The electronic state is 1-A.
 Alpha  occ. eigenvalues --  -11.21607 -11.21600 -11.21582 -11.21579 -11.21389
 Alpha  occ. eigenvalues --  -11.21357 -11.21329 -11.21257 -11.21137 -11.21115
 Alpha  occ. eigenvalues --  -11.21065 -11.21053  -1.08451  -1.08380  -1.03576
 Alpha  occ. eigenvalues --   -1.03492  -0.96019  -0.95956  -0.87053  -0.86962
 Alpha  occ. eigenvalues --   -0.79620  -0.79575  -0.78232  -0.78225  -0.65201
 Alpha  occ. eigenvalues --   -0.64924  -0.61127  -0.60764  -0.59371  -0.59335
 Alpha  occ. eigenvalues --   -0.57671  -0.57517  -0.55378  -0.55200  -0.52735
 Alpha  occ. eigenvalues --   -0.52661  -0.52427  -0.52375  -0.50052  -0.49839
 Alpha  occ. eigenvalues --   -0.48016  -0.47807  -0.46795  -0.46509  -0.45865
 Alpha  occ. eigenvalues --   -0.45769  -0.45624  -0.45465  -0.43789  -0.43746
 Alpha virt. eigenvalues --    0.20071   0.22749   0.23757   0.24325   0.25650
 Alpha virt. eigenvalues --    0.26091   0.26434   0.27770   0.28589   0.29532
 Alpha virt. eigenvalues --    0.30518   0.31048   0.31579   0.31816   0.32205

 Mulliken charges:
               1
     1  C   -0.297497
     2  C   -0.300604
     3  C   -0.475663
     4  H    0.149291
     5  H    0.149272
     6  H    0.151900
     7  H    0.152125
     8  H    0.155260
     9  H    0.155265
    10  H    0.160174
    11  C   -0.309213
    12  C   -0.299167
    13  C   -0.480383
    14  H    0.148315
    15  H    0.164119
    16  H    0.151925
    17  H    0.151607
    18  H    0.158326
    19  H    0.154956
    20  H    0.160545
    21  C   -0.300233
    22  C   -0.301466
    23  C   -0.481452
    24  H    0.151236
    25  H    0.149334
    26  H    0.155522
    27  H    0.152135
    28  H    0.156436
    29  H    0.156043
    30  H    0.161594
    31  C   -0.298171
    32  C   -0.299751
    33  C   -0.475708
    34  H    0.149870
    35  H    0.149490
    36  H    0.152306
    37  H    0.151765
    38  H    0.155063
    39  H    0.155233
    40  H    0.160202
 Sum of Mulliken charges =  -0.00000

 Dipole moment (field-independent basis, Debye):
    X=             -0.0087    Y=             -0.0148    Z=              0.0065  Tot=              0.0184
 Quadrupole moment (field-independent basis, Debye-Ang):
   XX=            -86.4913   YY=            -84.0498   ZZ=            -84.3723
   XY=              0.9950   XZ=             -0.6331   YZ=             -0.3134

 Normal termination of Gaussian 16 at Wed May  5 16:50:52 2021.
