 Gaussian 16, Revision A.03,
 Gaussian 16:  EM64L-G16RevA.03 25-Dec-2016

 -------------
 #p 6-31g* mp2
 -------------

 ------------------------------------------------------
 Input file generated by CHIRIPA (05-May-2021 14:51:10)
 ------------------------------------------------------
 Symbolic Z-matrix:
 Charge =  0 Multiplicity = 1

                         Standard orientation:
 ---------------------------------------------------------------------
 Center     Atomic      Atomic             Coordinates (Angstroms)
 Number     Number       Type             X           Y           Z
 ---------------------------------------------------------------------
      1          6           0       -3.615265    0.845832    0.417880
      2          6           0       -3.572925    2.037576   -0.539166
      3          6           0       -3.786855    3.374355    0.171502
      4          1           0       -4.582944    0.835519    0.937915
      5          1           0       -2.846128    0.978146    1.191388
      6          1           0       -4.340992    1.902376   -1.311442
      7          1           0       -2.605308    2.044943   -1.057124
      8          1           0       -3.013806    3.535568    0.929793
      9          1           0       -4.759351    3.392191    0.674031
     10          1           0       -3.752732    4.212646   -0.531323
     11          6           0       -3.402996   -0.497599   -0.277722
     12          6           0       -3.445336   -1.689344    0.679324
     13          6           0       -3.231406   -3.026123   -0.031345
     14          1           0       -4.172133   -0.629913   -1.051231
     15          1           0       -2.435317   -0.487287   -0.797758
     16          1           0       -4.412953   -1.696711    1.197282
     17          1           0       -2.677269   -1.554143    1.451599
     18          1           0       -2.258910   -3.043959   -0.533873
     19          1           0       -4.004455   -3.187336   -0.789636
     20          1           0       -3.265529   -3.864414    0.671481
     21          6           0        2.771655   -0.069653   -0.239340
     22          6           0        1.935368   -1.344016   -0.118476
     23          6           0        0.462170   -1.118958   -0.460276
     24          1           0        2.353392    0.700050    0.423651
     25          1           0        2.687253    0.320245   -1.263182
     26          1           0        2.022431   -1.732156    0.904453
     27          1           0        2.355787   -2.110835   -0.781690
     28          1           0        0.356329   -0.753844   -1.486965
     29          1           0        0.021078   -0.373013    0.208757
     30          1           0       -0.117201   -2.042836   -0.367331
     31          6           0        4.246606   -0.278580    0.099184
     32          6           0        5.082893    0.995783   -0.021682
     33          6           0        6.556091    0.770725    0.320119
     34          1           0        4.331008   -0.668477    1.123024
     35          1           0        4.664870   -1.048282   -0.563809
     36          1           0        4.662474    1.762604    0.641532
     37          1           0        4.995829    1.383924   -1.044610
     38          1           0        6.997183    0.024781   -0.348915
     39          1           0        6.661933    0.405613    1.346808
     40          1           0        7.135462    1.694604    0.227174
 ---------------------------------------------------------------------

 SCF Done:  E(RHF) =  -470.732673140     A.U. after   11 cycles
 E2 =    -0.1583645263D+01 EUMP2 =    -0.47231631840319D+03

 The electronic state is 1-A.
 Alpha  occ. eigenvalues --  -11.21676 -11.21637 -11.21547 -11.21511 -11.21461
 Alpha  occ. eigenvalues --  -11.21399 -11.21316 -11.21200 -11.21185 -11.21098
 Alpha  occ. eigenvalues --  -11.21036 -11.21003  -1.08493  -1.08342  -1.03609
 Alpha  occ. eigenvalues --   -1.03454  -0.96057  -0.95914  -0.87085  -0.86930
 Alpha  occ. eigenvalues --   -0.79697  -0.79508  -0.78311  -0.78136  -0.65139
 Alpha  occ. eigenvalues --   -0.64974  -0.61023  -0.60910  -0.59432  -0.59230
 Alpha  occ. eigenvalues --   -0.57727  -0.57482  -0.55357  -0.55199  -0.52765
 Alpha  occ. eigenvalues --   -0.52609  -0.52547  -0.52258  -0.50016  -0.49836
 Alpha  occ. eigenvalues --   -0.47964  -0.47835  -0.46691  -0.46559  -0.45919
 Alpha  occ. eigenvalues --   -0.45767  -0.45666  -0.45554  -0.43787  -0.43701
 Alpha virt. eigenvalues --    0.20807   0.22978   0.23658   0.24887   0.25921
 Alpha virt. eigenvalues --    0.26290   0.26874   0.27439   0.27863   0.29435
 Alpha virt. eigenvalues --    0.30395   0.31126   0.31737   0.31959   0.32167

 Mulliken charges:
               1
     1  C   -0.298384
     2  C   -0.299731
     3  C   -0.475571
     4  H    0.149302
     5  H    0.148583
     6  H    0.151835
     7  H    0.152121
     8  H    0.154813
     9  H    0.155082
    10  H    0.160064
    11  C   -0.305667
    12  C   -0.299284
    13  C   -0.480128
    14  H    0.148587
    15  H    0.161027
    16  H    0.151560
    17  H    0.151994
    18  H    0.158369
    19  H    0.155191
    20  H    0.159701
    21  C   -0.298780
    22  C   -0.300502
    23  C   -0.482845
    24  H    0.149523
    25  H    0.149629
    26  H    0.152276
    27  H    0.152350
    28  H    0.155252
    29  H    0.156228
    30  H    0.166769
    31  C   -0.298283
    32  C   -0.299656
    33  C   -0.475739
    34  H    0.149643
    35  H    0.149820
    36  H    0.151968
    37  H    0.152001
    38  H    0.155254
    39  H    0.155243
    40  H    0.160386
 Sum of Mulliken charges =  -0.00000

 Dipole moment (field-independent basis, Debye):
    X=              0.0562    Y=             -0.0088    Z=             -0.0207  Tot=              0.0605
 Quadrupole moment (field-independent basis, Debye-Ang):
   XX=            -85.1089   YY=            -85.9099   ZZ=            -83.9831
   XY=              0.1551   XZ=             -0.1850   YZ=             -0.1347

 Normal termination of Gaussian 16 at Wed May  5 15:12:16 2021.
