 Gaussian 16, Revision A.03,
 Gaussian 16:  EM64L-G16RevA.03 25-Dec-2016

 -------------
 #p 6-31g* mp2
 -------------

 ------------------------------------------------------
 Input file generated by CHIRIPA (05-May-2021 14:55:25)
 ------------------------------------------------------
 Symbolic Z-matrix:
 Charge =  0 Multiplicity = 1

                         Standard orientation:
 ---------------------------------------------------------------------
 Center     Atomic      Atomic             Coordinates (Angstroms)
 Number     Number       Type             X           Y           Z
 ---------------------------------------------------------------------
      1          6           0        2.730208   -2.309712   -0.528489
      2          6           0        3.916744   -1.924753    0.104332
      3          6           0        4.202513   -0.572584    0.315336
      4          6           0        3.275251    0.372334   -0.121247
      5          6           0        2.084431    0.020333   -0.754755
      6          6           0        1.819445   -1.337654   -0.955260
      7          1           0        2.516288   -3.362369   -0.688324
      8          1           0        4.625890   -2.677487    0.436821
      9          1           0        5.113460   -0.246730    0.802586
     10          1           0        1.396859    0.793662   -1.075105
     11          1           0        0.897166   -1.633700   -1.446995
     12          7           0        3.566781    1.806895    0.096576
     13          8           0        2.733535    2.619978   -0.297419
     14          8           0        4.623009    2.091056    0.657176
     15          6           0       -3.692880   -0.783007    0.345005
     16          6           0       -2.210662   -0.441030    0.500139
     17          6           0       -1.347412   -1.669833    0.787605
     18          1           0       -4.046870   -1.275393    1.261080
     19          1           0       -3.810455   -1.513120   -0.467711
     20          1           0       -2.096065    0.289266    1.311404
     21          1           0       -1.860208    0.050771   -0.416338
     22          1           0       -1.432116   -2.398751   -0.024863
     23          1           0       -1.669313   -2.158901    1.712695
     24          1           0       -0.291525   -1.402509    0.894844
     25          6           0       -4.568761    0.435099    0.057292
     26          6           0       -6.050979    0.093122   -0.097842
     27          6           0       -6.914229    1.321925   -0.385308
     28          1           0       -4.451186    1.165212    0.870008
     29          1           0       -4.214771    0.927485   -0.858783
     30          1           0       -6.401434   -0.398679    0.818635
     31          1           0       -6.165577   -0.637174   -0.909108
     32          1           0       -6.592329    1.810994   -1.310398
     33          1           0       -6.829526    2.050843    0.427161
     34          1           0       -7.970116    1.054601   -0.492548
 ---------------------------------------------------------------------

 SCF Done:  E(RHF) =  -669.534674574     A.U. after   15 cycles
 E2 =    -0.2092290419D+01 EUMP2 =    -0.67162696499316D+03

 The electronic state is 1-A.
 Alpha  occ. eigenvalues --  -20.60774 -20.60769 -15.85827 -11.31208 -11.27755
 Alpha  occ. eigenvalues --  -11.27749 -11.27490 -11.26791 -11.26748 -11.22100
 Alpha  occ. eigenvalues --  -11.21810 -11.21764 -11.21618 -11.21579 -11.21209
 Alpha  occ. eigenvalues --   -1.59849  -1.39402  -1.19380  -1.08788  -1.08749
 Alpha  occ. eigenvalues --   -1.04792  -1.03878  -0.96333  -0.95599  -0.87364
 Alpha  occ. eigenvalues --   -0.86163  -0.82431  -0.79951  -0.78560  -0.77479
 Alpha  occ. eigenvalues --   -0.72044  -0.71172  -0.70469  -0.65419  -0.65024
 Alpha  occ. eigenvalues --   -0.64782  -0.62172  -0.61258  -0.59713  -0.57945
 Alpha  occ. eigenvalues --   -0.55647  -0.55252  -0.53473  -0.52925  -0.52805
 Alpha  occ. eigenvalues --   -0.52514  -0.50270  -0.48803  -0.48799  -0.48258
 Alpha  occ. eigenvalues --   -0.46994  -0.46106  -0.46023  -0.44804  -0.44130
 Alpha  occ. eigenvalues --   -0.37340  -0.36313
 Alpha virt. eigenvalues --    0.05039   0.11251   0.16481   0.20225   0.22775
 Alpha virt. eigenvalues --    0.23978   0.25930   0.26587   0.27031   0.28358
 Alpha virt. eigenvalues --    0.28734   0.30207   0.31251   0.31434   0.32156

 Mulliken charges:
               1
     1  C   -0.172085
     2  C   -0.218182
     3  C   -0.171409
     4  C    0.159153
     5  C   -0.173296
     6  C   -0.217971
     7  H    0.226134
     8  H    0.223613
     9  H    0.275611
    10  H    0.276320
    11  H    0.228646
    12  N    0.488059
    13  O   -0.460209
    14  O   -0.460375
    15  C   -0.298007
    16  C   -0.299585
    17  C   -0.485233
    18  H    0.151152
    19  H    0.147625
    20  H    0.157863
    21  H    0.145677
    22  H    0.145573
    23  H    0.158102
    24  H    0.169399
    25  C   -0.298741
    26  C   -0.299880
    27  C   -0.475951
    28  H    0.151903
    29  H    0.149841
    30  H    0.152270
    31  H    0.151203
    32  H    0.155689
    33  H    0.156408
    34  H    0.160684
 Sum of Mulliken charges =  -0.00000

 Dipole moment (field-independent basis, Debye):
    X=             -1.0567    Y=             -5.0235    Z=             -0.7159  Tot=              5.1831
 Quadrupole moment (field-independent basis, Debye-Ang):
   XX=            -98.1539   YY=            -99.5400   ZZ=            -93.2683
   XY=            -18.0145   XZ=             -0.6641   YZ=              0.0448

 Normal termination of Gaussian 16 at Thu May  6 00:02:25 2021.
