 Gaussian 16, Revision A.03,
 Gaussian 16:  EM64L-G16RevA.03 25-Dec-2016

 -------------
 #p 6-31g* mp2
 -------------

 ------------------------------------------------------
 Input file generated by CHIRIPA (05-May-2021 14:55:19)
 ------------------------------------------------------
 Symbolic Z-matrix:
 Charge =  0 Multiplicity = 1

                         Standard orientation:
 ---------------------------------------------------------------------
 Center     Atomic      Atomic             Coordinates (Angstroms)
 Number     Number       Type             X           Y           Z
 ---------------------------------------------------------------------
      1          6           0       -3.100772    2.534963   -0.196912
      2          6           0       -2.243150    1.806513   -1.027795
      3          6           0       -2.274736    0.408821   -1.030288
      4          6           0       -3.180503   -0.230864   -0.185494
      5          6           0       -4.047716    0.466883    0.653780
      6          6           0       -3.998734    1.864006    0.639749
      7          1           0       -3.069479    3.620503   -0.201393
      8          1           0       -1.544754    2.324923   -1.678593
      9          1           0       -1.622038   -0.179849   -1.663433
     10          1           0       -4.733090   -0.077967    1.291604
     11          1           0       -4.665953    2.427138    1.286083
     12          7           0       -3.223149   -1.710237   -0.179386
     13          8           0       -4.030269   -2.250100    0.574101
     14          8           0       -2.448649   -2.301895   -0.928203
     15          6           0        3.332582   -0.030131    0.012602
     16          6           0        2.337473   -0.009972    1.173350
     17          6           0        0.882250   -0.037457    0.704986
     18          1           0        3.140229    0.831002   -0.641918
     19          1           0        3.158783   -0.929267   -0.594641
     20          1           0        2.514007    0.888151    1.779014
     21          1           0        2.532342   -0.871145    1.825287
     22          1           0        0.683274   -0.940308    0.118583
     23          1           0        0.664835    0.828984    0.072046
     24          1           0        0.187905   -0.022444    1.550869
     25          6           0        4.791513   -0.003032    0.464838
     26          6           0        5.786622   -0.023191   -0.695910
     27          6           0        7.241845    0.004295   -0.227546
     28          1           0        4.965311    0.896104    1.072081
     29          1           0        4.983866   -0.864163    1.119358
     30          1           0        5.591753    0.837983   -1.347847
     31          1           0        5.610088   -0.921313   -1.301573
     32          1           0        7.459261   -0.862146    0.405394
     33          1           0        7.440820    0.907146    0.358857
     34          1           0        7.936191   -0.010718   -1.073429
 ---------------------------------------------------------------------

 SCF Done:  E(RHF) =  -669.535501449     A.U. after   15 cycles
 E2 =    -0.2091956984D+01 EUMP2 =    -0.67162745843294D+03

 The electronic state is 1-A.
 Alpha  occ. eigenvalues --  -20.60756 -20.60751 -15.85805 -11.31141 -11.27733
 Alpha  occ. eigenvalues --  -11.27718 -11.27480 -11.26734 -11.26724 -11.21650
 Alpha  occ. eigenvalues --  -11.21619 -11.21463 -11.21401 -11.21108 -11.21085
 Alpha  occ. eigenvalues --   -1.59826  -1.39381  -1.19330  -1.08728  -1.08478
 Alpha  occ. eigenvalues --   -1.04737  -1.03567  -0.96028  -0.95562  -0.87048
 Alpha  occ. eigenvalues --   -0.86129  -0.82401  -0.79642  -0.78299  -0.77442
 Alpha  occ. eigenvalues --   -0.72025  -0.71143  -0.70444  -0.65111  -0.64984
 Alpha  occ. eigenvalues --   -0.64740  -0.62088  -0.60963  -0.59389  -0.57636
 Alpha  occ. eigenvalues --   -0.55322  -0.55241  -0.53241  -0.52838  -0.52606
 Alpha  occ. eigenvalues --   -0.52364  -0.49960  -0.48782  -0.48778  -0.47956
 Alpha  occ. eigenvalues --   -0.46665  -0.45844  -0.45759  -0.44783  -0.43826
 Alpha  occ. eigenvalues --   -0.37307  -0.36271
 Alpha virt. eigenvalues --    0.05080   0.11277   0.16504   0.21158   0.22850
 Alpha virt. eigenvalues --    0.24199   0.26466   0.26560   0.27572   0.27928
 Alpha virt. eigenvalues --    0.28985   0.30007   0.31584   0.31839   0.32064

 Mulliken charges:
               1
     1  C   -0.170764
     2  C   -0.219315
     3  C   -0.163586
     4  C    0.157306
     5  C   -0.171214
     6  C   -0.218924
     7  H    0.225371
     8  H    0.222934
     9  H    0.276337
    10  H    0.275422
    11  H    0.223155
    12  N    0.488525
    13  O   -0.460503
    14  O   -0.461163
    15  C   -0.298423
    16  C   -0.300535
    17  C   -0.478959
    18  H    0.145321
    19  H    0.152113
    20  H    0.149945
    21  H    0.154791
    22  H    0.163063
    23  H    0.146819
    24  H    0.161640
    25  C   -0.298230
    26  C   -0.299675
    27  C   -0.475737
    28  H    0.148606
    29  H    0.151229
    30  H    0.150404
    31  H    0.153077
    32  H    0.156025
    33  H    0.154640
    34  H    0.160305
 Sum of Mulliken charges =  -0.00000

 Dipole moment (field-independent basis, Debye):
    X=              0.1326    Y=              5.1461    Z=             -0.0127  Tot=              5.1478
 Quadrupole moment (field-independent basis, Debye-Ang):
   XX=            -94.7506   YY=            -96.7834   ZZ=            -92.8885
   XY=            -17.1203   XZ=             -3.0275   YZ=             -0.9386

 Normal termination of Gaussian 16 at Thu May  6 06:05:38 2021.
