 Gaussian 16, Revision A.03,
 Gaussian 16:  EM64L-G16RevA.03 25-Dec-2016

 -------------
 #p 6-31g* mp2
 -------------

 ------------------------------------------------------
 Input file generated by CHIRIPA (05-May-2021 14:51:08)
 ------------------------------------------------------
 Symbolic Z-matrix:
 Charge =  0 Multiplicity = 1

                         Standard orientation:
 ---------------------------------------------------------------------
 Center     Atomic      Atomic             Coordinates (Angstroms)
 Number     Number       Type             X           Y           Z
 ---------------------------------------------------------------------
      1          6           0       -4.129807    0.491142    0.189213
      2          6           0       -2.762959    0.368786   -0.485132
      3          6           0       -1.792933    1.471334   -0.059421
      4          1           0       -4.561812    1.473104   -0.047571
      5          1           0       -3.996805    0.462881    1.279583
      6          1           0       -2.898637    0.395879   -1.573927
      7          1           0       -2.334243   -0.613074   -0.246873
      8          1           0       -1.628132    1.442816    1.022535
      9          1           0       -2.195733    2.457502   -0.312059
     10          1           0       -0.822121    1.364682   -0.553393
     11          6           0       -5.110533   -0.603966   -0.226292
     12          6           0       -6.477380   -0.481610    0.448053
     13          6           0       -7.447407   -1.584158    0.022341
     14          1           0       -5.243535   -0.575705   -1.316662
     15          1           0       -4.678528   -1.585928    0.010491
     16          1           0       -6.906097    0.500250    0.209793
     17          1           0       -6.341703   -0.508703    1.536847
     18          1           0       -7.044607   -2.570326    0.274980
     19          1           0       -7.612208   -1.555640   -1.059615
     20          1           0       -8.418219   -1.477506    0.516314
     21          6           0        4.966307   -0.573683   -0.239533
     22          6           0        6.305888   -0.852398    0.442982
     23          6           0        6.986204   -2.116217   -0.084018
     24          1           0        4.301991   -1.436726   -0.095356
     25          1           0        5.126913   -0.480345   -1.322533
     26          1           0        6.143012   -0.943809    1.524523
     27          1           0        6.967026    0.011487    0.297326
     28          1           0        7.177505   -2.031203   -1.158623
     29          1           0        6.348809   -2.991927    0.075545
     30          1           0        7.942138   -2.296476    0.417535
     31          6           0        4.274033    0.686507    0.276612
     32          6           0        2.934452    0.965223   -0.405902
     33          6           0        2.254137    2.229040    0.121097
     34          1           0        4.113427    0.593169    1.359612
     35          1           0        4.938349    1.549549    0.132436
     36          1           0        2.273314    0.101337   -0.260248
     37          1           0        3.097329    1.056633   -1.487443
     38          1           0        2.891531    3.104752   -0.038465
     39          1           0        2.062835    2.144027    1.195703
     40          1           0        1.298202    2.409300   -0.380455
 ---------------------------------------------------------------------

 SCF Done:  E(RHF) =  -470.733162357     A.U. after   11 cycles
 E2 =    -0.1582204385D+01 EUMP2 =    -0.47231536674202D+03

 The electronic state is 1-A.
 Alpha  occ. eigenvalues --  -11.21601 -11.21598 -11.21593 -11.21581 -11.21403
 Alpha  occ. eigenvalues --  -11.21391 -11.21344 -11.21332 -11.21071 -11.21065
 Alpha  occ. eigenvalues --  -11.21048 -11.20987  -1.08430  -1.08412  -1.03542
 Alpha  occ. eigenvalues --   -1.03495  -0.96018  -0.95916  -0.87058  -0.86910
 Alpha  occ. eigenvalues --   -0.79621  -0.79541  -0.78241  -0.78227  -0.65061
 Alpha  occ. eigenvalues --   -0.65041  -0.60939  -0.60892  -0.59637  -0.59116
 Alpha  occ. eigenvalues --   -0.57719  -0.57424  -0.55285  -0.55215  -0.52994
 Alpha  occ. eigenvalues --   -0.52482  -0.52428  -0.52167  -0.49935  -0.49871
 Alpha  occ. eigenvalues --   -0.47948  -0.47843  -0.46630  -0.46598  -0.45783
 Alpha  occ. eigenvalues --   -0.45769  -0.45708  -0.45694  -0.43942  -0.43573
 Alpha virt. eigenvalues --    0.21987   0.23013   0.23453   0.24974   0.26595
 Alpha virt. eigenvalues --    0.26670   0.26939   0.27389   0.27645   0.28893
 Alpha virt. eigenvalues --    0.30193   0.31311   0.31589   0.31658   0.32069

 Mulliken charges:
               1
     1  C   -0.298590
     2  C   -0.299461
     3  C   -0.479997
     4  H    0.149676
     5  H    0.149482
     6  H    0.151840
     7  H    0.151732
     8  H    0.155585
     9  H    0.155009
    10  H    0.165136
    11  C   -0.298220
    12  C   -0.299618
    13  C   -0.475696
    14  H    0.149527
    15  H    0.149579
    16  H    0.151961
    17  H    0.151909
    18  H    0.155152
    19  H    0.155188
    20  H    0.160253
    21  C   -0.298268
    22  C   -0.299647
    23  C   -0.475693
    24  H    0.149554
    25  H    0.149481
    26  H    0.151898
    27  H    0.151948
    28  H    0.155173
    29  H    0.155135
    30  H    0.160224
    31  C   -0.298123
    32  C   -0.300709
    33  C   -0.479707
    34  H    0.149525
    35  H    0.149749
    36  H    0.152037
    37  H    0.151600
    38  H    0.154719
    39  H    0.155230
    40  H    0.165427
 Sum of Mulliken charges =  -0.00000

 Dipole moment (field-independent basis, Debye):
    X=             -0.0094    Y=              0.0088    Z=              0.0018  Tot=              0.0130
 Quadrupole moment (field-independent basis, Debye-Ang):
   XX=            -85.6006   YY=            -85.4514   ZZ=            -83.7921
   XY=              0.0125   XZ=             -0.0879   YZ=             -1.2784

 Normal termination of Gaussian 16 at Thu May  6 13:11:34 2021.
