 Gaussian 16, Revision A.03,
 Gaussian 16:  EM64L-G16RevA.03 25-Dec-2016

 -------------
 #p 6-31g* mp2
 -------------

 ------------------------------------------------------
 Input file generated by CHIRIPA (05-May-2021 14:53:11)
 ------------------------------------------------------
 Symbolic Z-matrix:
 Charge =  0 Multiplicity = 1

                         Standard orientation:
 ---------------------------------------------------------------------
 Center     Atomic      Atomic             Coordinates (Angstroms)
 Number     Number       Type             X           Y           Z
 ---------------------------------------------------------------------
      1          6           0       -2.880253    0.873373    0.129330
      2          6           0       -2.912762    1.640680   -1.192853
      3          6           0       -2.642030    3.135066   -1.015910
      4          1           0       -3.623907    1.303639    0.814016
      5          1           0       -1.899393    1.015601    0.603756
      6          1           0       -3.892784    1.495917   -1.665311
      7          1           0       -2.169077    1.208415   -1.874540
      8          1           0       -1.656801    3.297578   -0.567007
      9          1           0       -3.390302    3.586715   -0.356589
     10          1           0       -2.669998    3.664279   -1.973517
     11          6           0       -3.149129   -0.621842   -0.031186
     12          6           0       -3.116620   -1.389149    1.290997
     13          6           0       -3.387351   -2.883535    1.114054
     14          1           0       -4.129988   -0.764070   -0.505612
     15          1           0       -2.405475   -1.052108   -0.715872
     16          1           0       -3.860304   -0.956884    1.972684
     17          1           0       -2.136598   -1.244386    1.763455
     18          1           0       -2.639080   -3.335184    0.454733
     19          1           0       -4.372581   -3.046047    0.665151
     20          1           0       -3.359383   -3.412747    2.071661
     21          6           0        2.016106   -2.268261   -1.280108
     22          6           0        3.283940   -1.929543   -0.795971
     23          6           0        3.483473   -0.729784   -0.106541
     24          6           0        2.388012    0.111534    0.081712
     25          6           0        1.112714   -0.197912   -0.388552
     26          6           0        0.936443   -1.402890   -1.075214
     27          1           0        1.870139   -3.202289   -1.814599
     28          1           0        4.124249   -2.599671   -0.953625
     29          1           0        4.454290   -0.442831    0.278933
     30          1           0        0.294315    0.490446   -0.215911
     31          1           0       -0.049295   -1.663350   -1.450083
     32          7           0        2.586936    1.384427    0.810116
     33          8           0        1.605570    2.108457    0.962896
     34          8           0        3.720450    1.633989    1.214468
 ---------------------------------------------------------------------

 SCF Done:  E(RHF) =  -669.535413266     A.U. after   15 cycles
 E2 =    -0.2093013710D+01 EUMP2 =    -0.67162842697599D+03

 The electronic state is 1-A.
 Alpha  occ. eigenvalues --  -20.60828 -20.60822 -15.85876 -11.31217 -11.27788
 Alpha  occ. eigenvalues --  -11.27768 -11.27526 -11.26801 -11.26784 -11.22081
 Alpha  occ. eigenvalues --  -11.22020 -11.21934 -11.21784 -11.21572 -11.21005
 Alpha  occ. eigenvalues --   -1.59898  -1.39453  -1.19391  -1.08910  -1.08789
 Alpha  occ. eigenvalues --   -1.04792  -1.03883  -0.96328  -0.95628  -0.87334
 Alpha  occ. eigenvalues --   -0.86194  -0.82465  -0.79952  -0.78713  -0.77521
 Alpha  occ. eigenvalues --   -0.72097  -0.71218  -0.70519  -0.65639  -0.65031
 Alpha  occ. eigenvalues --   -0.64813  -0.62101  -0.61272  -0.59699  -0.57930
 Alpha  occ. eigenvalues --   -0.55650  -0.55260  -0.53120  -0.52979  -0.52918
 Alpha  occ. eigenvalues --   -0.52725  -0.50244  -0.48855  -0.48849  -0.48247
 Alpha  occ. eigenvalues --   -0.47000  -0.46248  -0.46148  -0.44861  -0.44174
 Alpha  occ. eigenvalues --   -0.37370  -0.36390
 Alpha virt. eigenvalues --    0.04996   0.11230   0.16455   0.18211   0.22933
 Alpha virt. eigenvalues --    0.23323   0.24923   0.26042   0.27559   0.28418
 Alpha virt. eigenvalues --    0.30074   0.30975   0.31496   0.31662   0.31974

 Mulliken charges:
               1
     1  C   -0.307623
     2  C   -0.300461
     3  C   -0.479596
     4  H    0.156416
     5  H    0.154621
     6  H    0.153123
     7  H    0.144125
     8  H    0.167703
     9  H    0.156638
    10  H    0.160482
    11  C   -0.300762
    12  C   -0.300642
    13  C   -0.474878
    14  H    0.153087
    15  H    0.138344
    16  H    0.156218
    17  H    0.154462
    18  H    0.149305
    19  H    0.156360
    20  H    0.163244
    21  C   -0.170750
    22  C   -0.218826
    23  C   -0.169933
    24  C    0.157921
    25  C   -0.180147
    26  C   -0.226070
    27  H    0.226159
    28  H    0.223631
    29  H    0.275714
    30  H    0.287976
    31  H    0.228590
    32  N    0.487548
    33  O   -0.462262
    34  O   -0.459719
 Sum of Mulliken charges =  -0.00000

 Dipole moment (field-independent basis, Debye):
    X=             -0.7856    Y=             -4.3649    Z=             -2.4436  Tot=              5.0637
 Quadrupole moment (field-independent basis, Debye-Ang):
   XX=            -91.8499   YY=            -96.9765   ZZ=            -95.9008
   XY=            -12.7734   XZ=             -6.1013   YZ=             -0.7040

 Normal termination of Gaussian 16 at Wed May  5 21:41:42 2021.
