 Gaussian 16, Revision A.03,
 Gaussian 16:  EM64L-G16RevA.03 25-Dec-2016

 -------------
 #p 6-31g* mp2
 -------------

 ------------------------------------------------------
 Input file generated by CHIRIPA (05-May-2021 14:53:16)
 ------------------------------------------------------
 Symbolic Z-matrix:
 Charge =  0 Multiplicity = 1

                         Standard orientation:
 ---------------------------------------------------------------------
 Center     Atomic      Atomic             Coordinates (Angstroms)
 Number     Number       Type             X           Y           Z
 ---------------------------------------------------------------------
      1          6           0        4.269042   -0.694656    0.468576
      2          6           0        2.836809   -0.163178    0.533580
      3          6           0        1.866975   -1.154681    1.177115
      4          1           0        4.278294   -1.637397   -0.095426
      5          1           0        4.609954   -0.935203    1.485095
      6          1           0        2.499190    0.077596   -0.482617
      7          1           0        2.830995    0.778507    1.097329
      8          1           0        2.176853   -1.387256    2.201071
      9          1           0        1.843162   -2.092148    0.612148
     10          1           0        0.848949   -0.754469    1.213366
     11          6           0        5.250341    0.285228   -0.172212
     12          6           0        6.682573   -0.246250   -0.237217
     13          6           0        7.652408    0.745253   -0.880751
     14          1           0        4.909428    0.525775   -1.188731
     15          1           0        5.241089    1.227969    0.391790
     16          1           0        6.688388   -1.187935   -0.800965
     17          1           0        7.020193   -0.487024    0.778981
     18          1           0        7.676220    1.682720   -0.315784
     19          1           0        7.342530    0.977828   -1.904707
     20          1           0        8.670434    0.345041   -0.917002
     21          6           0       -1.282573    0.799761    0.035099
     22          6           0       -2.272709    1.731577    0.363537
     23          6           0       -3.625539    1.388050    0.283613
     24          6           0       -3.954006    0.098076   -0.130353
     25          6           0       -2.990685   -0.852593   -0.464313
     26          6           0       -1.644084   -0.487082   -0.377050
     27          1           0       -0.234082    1.075160    0.100037
     28          1           0       -1.994888    2.731682    0.683926
     29          1           0       -4.412519    2.089773    0.531940
     30          1           0       -3.298539   -1.841887   -0.780447
     31          1           0       -0.877275   -1.212803   -0.632742
     32          7           0       -5.382889   -0.277237   -0.218849
     33          8           0       -5.646174   -1.420173   -0.586292
     34          8           0       -6.212508    0.578635    0.080909
 ---------------------------------------------------------------------

 SCF Done:  E(RHF) =  -669.534780408     A.U. after   15 cycles
 E2 =    -0.2092297726D+01 EUMP2 =    -0.67162707813389D+03

 The electronic state is 1-A.
 Alpha  occ. eigenvalues --  -20.60746 -20.60741 -15.85799 -11.31169 -11.27734
 Alpha  occ. eigenvalues --  -11.27723 -11.27434 -11.26745 -11.26710 -11.22788
 Alpha  occ. eigenvalues --  -11.22272 -11.22207 -11.22192 -11.22094 -11.21569
 Alpha  occ. eigenvalues --   -1.59821  -1.39374  -1.19339  -1.09284  -1.08735
 Alpha  occ. eigenvalues --   -1.04742  -1.04396  -0.96839  -0.95565  -0.87852
 Alpha  occ. eigenvalues --   -0.86132  -0.82398  -0.80486  -0.79053  -0.77445
 Alpha  occ. eigenvalues --   -0.72018  -0.71144  -0.70481  -0.65911  -0.65001
 Alpha  occ. eigenvalues --   -0.64776  -0.62130  -0.61761  -0.60215  -0.58452
 Alpha  occ. eigenvalues --   -0.56089  -0.55213  -0.53617  -0.53292  -0.52931
 Alpha  occ. eigenvalues --   -0.52788  -0.50751  -0.48805  -0.48773  -0.48758
 Alpha  occ. eigenvalues --   -0.47515  -0.46598  -0.46493  -0.44779  -0.44636
 Alpha  occ. eigenvalues --   -0.37289  -0.36334
 Alpha virt. eigenvalues --    0.05059   0.11208   0.16517   0.19755   0.22430
 Alpha virt. eigenvalues --    0.23984   0.25652   0.25846   0.26578   0.27636
 Alpha virt. eigenvalues --    0.29427   0.30051   0.30857   0.31413   0.31924

 Mulliken charges:
               1
     1  C   -0.298445
     2  C   -0.303757
     3  C   -0.485683
     4  H    0.151727
     5  H    0.152804
     6  H    0.147405
     7  H    0.151958
     8  H    0.162645
     9  H    0.155766
    10  H    0.159575
    11  C   -0.299033
    12  C   -0.300340
    13  C   -0.476152
    14  H    0.149658
    15  H    0.150079
    16  H    0.153005
    17  H    0.153175
    18  H    0.155655
    19  H    0.155667
    20  H    0.162207
    21  C   -0.176153
    22  C   -0.219886
    23  C   -0.170938
    24  C    0.158419
    25  C   -0.171738
    26  C   -0.219854
    27  H    0.232640
    28  H    0.223635
    29  H    0.275508
    30  H    0.275663
    31  H    0.227562
    32  N    0.488080
    33  O   -0.460386
    34  O   -0.460467
 Sum of Mulliken charges =  -0.00000

 Dipole moment (field-independent basis, Debye):
    X=              5.2405    Y=              1.2944    Z=              0.3426  Tot=              5.4088
 Quadrupole moment (field-independent basis, Debye-Ang):
   XX=           -134.4971   YY=            -90.5454   ZZ=            -94.4356
   XY=             -6.6671   XZ=             -1.6990   YZ=              2.1185

 Normal termination of Gaussian 16 at Thu May  6 12:14:09 2021.
