 Gaussian 16, Revision A.03,
 Gaussian 16:  EM64L-G16RevA.03 25-Dec-2016

 -------------
 #p 6-31g* mp2
 -------------

 ------------------------------------------------------
 Input file generated by CHIRIPA (05-May-2021 14:55:25)
 ------------------------------------------------------
 Symbolic Z-matrix:
 Charge =  0 Multiplicity = 1

                         Standard orientation:
 ---------------------------------------------------------------------
 Center     Atomic      Atomic             Coordinates (Angstroms)
 Number     Number       Type             X           Y           Z
 ---------------------------------------------------------------------
      1          6           0        5.344623   -1.590121    0.499174
      2          6           0        4.209409   -2.147587   -0.098357
      3          6           0        3.118317   -1.342445   -0.438671
      4          6           0        3.196679    0.022394   -0.165975
      5          6           0        4.313693    0.607492    0.428357
      6          6           0        5.393056   -0.216782    0.760164
      7          1           0        6.187654   -2.223005    0.760233
      8          1           0        4.169010   -3.213820   -0.302216
      9          1           0        2.227095   -1.747827   -0.902143
     10          1           0        4.324623    1.673731    0.619232
     11          1           0        6.273381    0.218898    1.224121
     12          7           0        2.047797    0.884889   -0.521747
     13          8           0        2.141606    2.084473   -0.271082
     14          8           0        1.075249    0.344996   -1.044530
     15          6           0       -3.763621    0.543405   -0.187835
     16          6           0       -3.228670    1.677647    0.686984
     17          6           0       -2.087716    2.448821    0.022672
     18          1           0       -2.942317   -0.146517   -0.425346
     19          1           0       -4.109067    0.959229   -1.144471
     20          1           0       -2.885613    1.259989    1.642227
     21          1           0       -4.051385    2.364845    0.922599
     22          1           0       -2.420816    2.892344   -0.921220
     23          1           0       -1.248420    1.781209   -0.197502
     24          1           0       -1.720405    3.254984    0.665357
     25          6           0       -4.904613   -0.236831    0.462625
     26          6           0       -5.439564   -1.371073   -0.412194
     27          6           0       -6.580518   -2.142246    0.252118
     28          1           0       -4.559167   -0.652656    1.419261
     29          1           0       -5.725917    0.453091    0.700136
     30          1           0       -4.616848   -2.058272   -0.647809
     31          1           0       -5.782621   -0.953414   -1.367437
     32          1           0       -7.419814   -1.474636    0.472292
     33          1           0       -6.247417   -2.585770    1.196010
     34          1           0       -6.947828   -2.948410   -0.390567
 ---------------------------------------------------------------------

 SCF Done:  E(RHF) =  -669.536582605     A.U. after   15 cycles
 E2 =    -0.2091208491D+01 EUMP2 =    -0.67162779109533D+03

 The electronic state is 1-A.
 Alpha  occ. eigenvalues --  -20.61042 -20.61033 -15.86048 -11.31350 -11.27907
 Alpha  occ. eigenvalues --  -11.27901 -11.27638 -11.26906 -11.26896 -11.20972
 Alpha  occ. eigenvalues --  -11.20588 -11.20582 -11.20343 -11.20269 -11.19200
 Alpha  occ. eigenvalues --   -1.60081  -1.39639  -1.19512  -1.08920  -1.07483
 Alpha  occ. eigenvalues --   -1.04903  -1.02501  -0.95766  -0.94918  -0.86305
 Alpha  occ. eigenvalues --   -0.85925  -0.82599  -0.78609  -0.77657  -0.77237
 Alpha  occ. eigenvalues --   -0.72257  -0.71392  -0.70619  -0.65166  -0.64905
 Alpha  occ. eigenvalues --   -0.64125  -0.62250  -0.59904  -0.58378  -0.56525
 Alpha  occ. eigenvalues --   -0.55412  -0.54205  -0.53236  -0.52994  -0.51613
 Alpha  occ. eigenvalues --   -0.51343  -0.49244  -0.49015  -0.48635  -0.46869
 Alpha  occ. eigenvalues --   -0.45652  -0.45069  -0.44770  -0.44627  -0.42761
 Alpha  occ. eigenvalues --   -0.37488  -0.36502
 Alpha virt. eigenvalues --    0.04850   0.11153   0.16352   0.21293   0.23736
 Alpha virt. eigenvalues --    0.25424   0.27213   0.27565   0.28162   0.28415
 Alpha virt. eigenvalues --    0.29200   0.30856   0.32360   0.32492   0.32637

 Mulliken charges:
               1
     1  C   -0.170462
     2  C   -0.218566
     3  C   -0.170740
     4  C    0.158760
     5  C   -0.170697
     6  C   -0.218603
     7  H    0.226204
     8  H    0.224004
     9  H    0.275762
    10  H    0.276097
    11  H    0.224046
    12  N    0.488388
    13  O   -0.457420
    14  O   -0.460009
    15  C   -0.298179
    16  C   -0.298911
    17  C   -0.485183
    18  H    0.154371
    19  H    0.148091
    20  H    0.146828
    21  H    0.145779
    22  H    0.149788
    23  H    0.183344
    24  H    0.155559
    25  C   -0.297352
    26  C   -0.298728
    27  C   -0.475063
    28  H    0.146940
    29  H    0.147587
    30  H    0.150866
    31  H    0.151475
    32  H    0.154421
    33  H    0.153611
    34  H    0.157989
 Sum of Mulliken charges =  -0.00000

 Dipole moment (field-independent basis, Debye):
    X=              4.4831    Y=             -3.0565    Z=              1.1747  Tot=              5.5516
 Quadrupole moment (field-independent basis, Debye-Ang):
   XX=            -69.5623   YY=            -92.2518   ZZ=            -95.4267
   XY=             -8.4541   XZ=              5.3394   YZ=              2.0171

 Normal termination of Gaussian 16 at Wed May  5 19:10:29 2021.
