 Gaussian 16, Revision A.03,
 Gaussian 16:  EM64L-G16RevA.03 25-Dec-2016

 -------------
 #p 6-31g* mp2
 -------------

 ------------------------------------------------------
 Input file generated by CHIRIPA (05-May-2021 14:57:22)
 ------------------------------------------------------
 Symbolic Z-matrix:
 Charge =  0 Multiplicity = 1

                         Standard orientation:
 ---------------------------------------------------------------------
 Center     Atomic      Atomic             Coordinates (Angstroms)
 Number     Number       Type             X           Y           Z
 ---------------------------------------------------------------------
      1          6           0       -2.874104    2.165245   -0.000832
      2          6           0       -4.082503    2.125328    0.702517
      3          6           0       -4.851252    0.957874    0.727505
      4          6           0       -4.379424   -0.156180    0.035009
      5          6           0       -3.179690   -0.147695   -0.674818
      6          6           0       -2.427342    1.030606   -0.686047
      7          1           0       -2.283292    3.076364   -0.014899
      8          1           0       -4.431935    3.004985    1.235571
      9          1           0       -5.790480    0.899367    1.264018
     10          1           0       -2.857387   -1.040578   -1.196642
     11          1           0       -1.489274    1.058713   -1.233115
     12          7           0       -5.184583   -1.397854    0.054180
     13          8           0       -4.746927   -2.365832   -0.563974
     14          8           0       -6.238076   -1.379588    0.686995
     15          6           0        2.013756    0.946626   -0.656009
     16          6           0        3.110331    1.781734   -0.418022
     17          6           0        4.352314    1.241381   -0.071541
     18          6           0        4.462599   -0.144664    0.028492
     19          6           0        3.388733   -1.003009   -0.202469
     20          6           0        2.156205   -0.440635   -0.547664
     21          1           0        1.052627    1.374938   -0.924664
     22          1           0        3.002629    2.859456   -0.501431
     23          1           0        5.217726    1.864682    0.118128
     24          1           0        3.526929   -2.073553   -0.111611
     25          1           0        1.306318   -1.091624   -0.731920
     26          7           0        5.772426   -0.728368    0.394614
     27          8           0        5.843555   -1.952669    0.476233
     28          8           0        6.703136    0.049481    0.593030
 ---------------------------------------------------------------------

 SCF Done:  E(RHF) =  -868.336232227     A.U. after   16 cycles
 E2 =    -0.2599699877D+01 EUMP2 =    -0.87093593210440D+03

 The electronic state is 1-A.
 Alpha  occ. eigenvalues --  -20.61392 -20.61381 -20.61155 -20.61149 -15.86451
 Alpha  occ. eigenvalues --  -15.86212 -11.31967 -11.31716 -11.28633 -11.28526
 Alpha  occ. eigenvalues --  -11.28386 -11.28295 -11.28280 -11.28212 -11.27765
 Alpha  occ. eigenvalues --  -11.27555 -11.27400 -11.27389  -1.60462  -1.60227
 Alpha  occ. eigenvalues --   -1.40011  -1.39776  -1.20173  -1.19916  -1.09546
 Alpha  occ. eigenvalues --   -1.09315  -1.05614  -1.05331  -0.96348  -0.96123
 Alpha  occ. eigenvalues --   -0.87015  -0.86741  -0.83190  -0.82940  -0.78206
 Alpha  occ. eigenvalues --   -0.77936  -0.72667  -0.72430  -0.71787  -0.71550
 Alpha  occ. eigenvalues --   -0.71297  -0.71120  -0.65837  -0.65685  -0.65574
 Alpha  occ. eigenvalues --   -0.65336  -0.62972  -0.62666  -0.56160  -0.55928
 Alpha  occ. eigenvalues --   -0.53912  -0.53709  -0.53657  -0.53438  -0.49438
 Alpha  occ. eigenvalues --   -0.49411  -0.49201  -0.49174  -0.45384  -0.45150
 Alpha  occ. eigenvalues --   -0.38162  -0.37942  -0.37211  -0.36918
 Alpha virt. eigenvalues --    0.04360   0.04590   0.10388   0.10726   0.15774
 Alpha virt. eigenvalues --    0.16038   0.17526   0.22011   0.24644   0.26164
 Alpha virt. eigenvalues --    0.27654   0.28889   0.29818   0.31044   0.32142

 Mulliken charges:
               1
     1  C   -0.170217
     2  C   -0.218069
     3  C   -0.169270
     4  C    0.159528
     5  C   -0.170783
     6  C   -0.221591
     7  H    0.223998
     8  H    0.226373
     9  H    0.278544
    10  H    0.275276
    11  H    0.216259
    12  N    0.488020
    13  O   -0.459645
    14  O   -0.457696
    15  C   -0.171685
    16  C   -0.218605
    17  C   -0.170043
    18  C    0.159243
    19  C   -0.169879
    20  C   -0.218102
    21  H    0.217086
    22  H    0.223017
    23  H    0.277184
    24  H    0.278532
    25  H    0.222135
    26  N    0.487877
    27  O   -0.458263
    28  O   -0.459222
 Sum of Mulliken charges =  -0.00000

 Dipole moment (field-independent basis, Debye):
    X=             -1.8430    Y=              6.3597    Z=             -1.2238  Tot=              6.7335
 Quadrupole moment (field-independent basis, Debye-Ang):
   XX=           -166.5906   YY=           -101.9545   ZZ=           -104.7653
   XY=             -9.7496   XZ=             -7.8682   YZ=              2.3720

 Normal termination of Gaussian 16 at Thu May  6 00:11:23 2021.
