 Gaussian 16, Revision A.03,
 Gaussian 16:  EM64L-G16RevA.03 25-Dec-2016

 -------------
 #p 6-31g* mp2
 -------------

 ------------------------------------------------------
 Input file generated by CHIRIPA (05-May-2021 14:53:16)
 ------------------------------------------------------
 Symbolic Z-matrix:
 Charge =  0 Multiplicity = 1

                         Standard orientation:
 ---------------------------------------------------------------------
 Center     Atomic      Atomic             Coordinates (Angstroms)
 Number     Number       Type             X           Y           Z
 ---------------------------------------------------------------------
      1          6           0        4.162047   -0.392616    0.081885
      2          6           0        3.591181   -1.747822    0.500829
      3          6           0        4.639657   -2.860617    0.487396
      4          1           0        4.594079   -0.479164   -0.924496
      5          1           0        4.988777   -0.126869    0.755153
      6          1           0        2.764872   -2.010290   -0.172178
      7          1           0        3.160288   -1.657990    1.506253
      8          1           0        5.460368   -2.624930    1.172586
      9          1           0        5.062705   -2.979231   -0.515381
     10          1           0        4.210060   -3.820653    0.790113
     11          6           0        3.125962    0.729963    0.090345
     12          6           0        3.696828    2.085169   -0.328599
     13          6           0        2.648352    3.197964   -0.315165
     14          1           0        2.299232    0.464215   -0.582923
     15          1           0        2.693931    0.816510    1.096727
     16          1           0        4.127722    1.995337   -1.334022
     17          1           0        4.523138    2.347637    0.344409
     18          1           0        2.225304    3.316578    0.687612
     19          1           0        1.827641    2.962277   -1.000356
     20          1           0        3.077949    4.157999   -0.617883
     21          6           0       -5.323013   -0.087596    0.415142
     22          6           0       -4.488798    0.902133    0.945278
     23          6           0       -3.115349    0.887582    0.684556
     24          6           0       -2.607495   -0.136048   -0.113916
     25          6           0       -3.412746   -1.136247   -0.656558
     26          6           0       -4.783276   -1.101838   -0.382677
     27          1           0       -6.388808   -0.068579    0.622788
     28          1           0       -4.905199    1.691020    1.565207
     29          1           0       -2.446677    1.641346    1.082215
     30          1           0       -2.968518   -1.909869   -1.271041
     31          1           0       -5.428744   -1.871780   -0.795725
     32          7           0       -1.155032   -0.161963   -0.396897
     33          8           0       -0.732212   -1.074571   -1.103300
     34          8           0       -0.466913    0.730823    0.093066
 ---------------------------------------------------------------------

 SCF Done:  E(RHF) =  -669.536357484     A.U. after   15 cycles
 E2 =    -0.2091892782D+01 EUMP2 =    -0.67162825026612D+03

 The electronic state is 1-A.
 Alpha  occ. eigenvalues --  -20.61063 -20.61058 -15.86067 -11.31358 -11.27914
 Alpha  occ. eigenvalues --  -11.27909 -11.27645 -11.26912 -11.26902 -11.20186
 Alpha  occ. eigenvalues --  -11.20138 -11.19994 -11.19898 -11.19662 -11.19379
 Alpha  occ. eigenvalues --   -1.60108  -1.39664  -1.19520  -1.08933  -1.06866
 Alpha  occ. eigenvalues --   -1.04910  -1.02126  -0.95779  -0.94571  -0.86312
 Alpha  occ. eigenvalues --   -0.85594  -0.82614  -0.78188  -0.77671  -0.76603
 Alpha  occ. eigenvalues --   -0.72270  -0.71412  -0.70628  -0.65175  -0.64913
 Alpha  occ. eigenvalues --   -0.63510  -0.62257  -0.59542  -0.57948  -0.56176
 Alpha  occ. eigenvalues --   -0.55417  -0.53865  -0.53244  -0.53001  -0.51350
 Alpha  occ. eigenvalues --   -0.51005  -0.49125  -0.49047  -0.48497  -0.46490
 Alpha  occ. eigenvalues --   -0.45219  -0.45081  -0.44171  -0.43909  -0.42322
 Alpha  occ. eigenvalues --   -0.37498  -0.36509
 Alpha virt. eigenvalues --    0.04848   0.11147   0.16349   0.21282   0.24337
 Alpha virt. eigenvalues --    0.25600   0.27208   0.28121   0.28209   0.29087
 Alpha virt. eigenvalues --    0.29386   0.30895   0.32393   0.32705   0.33004

 Mulliken charges:
               1
     1  C   -0.297735
     2  C   -0.300690
     3  C   -0.474638
     4  H    0.145173
     5  H    0.142039
     6  H    0.163523
     7  H    0.148410
     8  H    0.151172
     9  H    0.152971
    10  H    0.156140
    11  C   -0.300988
    12  C   -0.299509
    13  C   -0.472647
    14  H    0.175747
    15  H    0.147558
    16  H    0.146864
    17  H    0.144421
    18  H    0.152715
    19  H    0.162261
    20  H    0.150757
    21  C   -0.170445
    22  C   -0.218571
    23  C   -0.170768
    24  C    0.158186
    25  C   -0.170624
    26  C   -0.218604
    27  H    0.226232
    28  H    0.224106
    29  H    0.276172
    30  H    0.275870
    31  H    0.224017
    32  N    0.489064
    33  O   -0.460461
    34  O   -0.457718
 Sum of Mulliken charges =  -0.00000

 Dipole moment (field-independent basis, Debye):
    X=             -5.6357    Y=              0.0375    Z=              0.9250  Tot=              5.7112
 Quadrupole moment (field-independent basis, Debye-Ang):
   XX=            -70.9495   YY=            -93.3786   ZZ=            -93.2569
   XY=              1.5016   XZ=             -1.8034   YZ=              2.9628

 Normal termination of Gaussian 16 at Thu May  6 13:54:46 2021.
