 Gaussian 16, Revision A.03,
 Gaussian 16:  EM64L-G16RevA.03 25-Dec-2016

 -------------
 #p 6-31g* mp2
 -------------

 ------------------------------------------------------
 Input file generated by CHIRIPA (05-May-2021 14:53:18)
 ------------------------------------------------------
 Symbolic Z-matrix:
 Charge =  0 Multiplicity = 1

                         Standard orientation:
 ---------------------------------------------------------------------
 Center     Atomic      Atomic             Coordinates (Angstroms)
 Number     Number       Type             X           Y           Z
 ---------------------------------------------------------------------
      1          6           0        3.134289   -0.459316    0.852256
      2          6           0        1.839682    0.121297    1.422227
      3          6           0        1.215564   -0.768899    2.497319
      4          1           0        2.929283   -1.453943    0.433168
      5          1           0        3.853082   -0.606848    1.670159
      6          1           0        1.124036    0.268982    0.603291
      7          1           0        2.047754    1.114738    1.839836
      8          1           0        1.908735   -0.906766    3.333445
      9          1           0        0.979769   -1.757328    2.089875
     10          1           0        0.291169   -0.334892    2.891010
     11          6           0        3.770146    0.419238   -0.223642
     12          6           0        5.064753   -0.161376   -0.793613
     13          6           0        5.688871    0.728820   -1.868704
     14          1           0        3.051352    0.566769   -1.041544
     15          1           0        3.975152    1.413865    0.195446
     16          1           0        4.856680   -1.154817   -1.211221
     17          1           0        5.780399   -0.309061    0.025323
     18          1           0        5.924666    1.717249   -1.461260
     19          1           0        4.995700    0.866688   -2.704830
     20          1           0        6.613266    0.294813   -2.262395
     21          6           0       -2.918711    2.474180    0.276414
     22          6           0       -3.386073    1.972505   -0.942773
     23          6           0       -3.268491    0.612061   -1.242633
     24          6           0       -2.675615   -0.222025   -0.296014
     25          6           0       -2.200288    0.247655    0.927405
     26          6           0       -2.328351    1.611673    1.205973
     27          1           0       -3.014122    3.532393    0.501082
     28          1           0       -3.844986    2.640004   -1.666574
     29          1           0       -3.621764    0.197078   -2.178798
     30          1           0       -1.747388   -0.442348    1.628972
     31          1           0       -1.964496    1.998491    2.153616
     32          7           0       -2.545589   -1.664159   -0.602192
     33          8           0       -2.019408   -2.378215    0.248627
     34          8           0       -2.972318   -2.053139   -1.687197
 ---------------------------------------------------------------------

 SCF Done:  E(RHF) =  -669.535535798     A.U. after   15 cycles
 E2 =    -0.2092098155D+01 EUMP2 =    -0.67162763395298D+03

 The electronic state is 1-A.
 Alpha  occ. eigenvalues --  -20.60800 -20.60795 -15.85849 -11.31188 -11.27767
 Alpha  occ. eigenvalues --  -11.27718 -11.27506 -11.26778 -11.26765 -11.21722
 Alpha  occ. eigenvalues --  -11.21557 -11.21401 -11.21341 -11.21265 -11.21047
 Alpha  occ. eigenvalues --   -1.59873  -1.39426  -1.19367  -1.08766  -1.08450
 Alpha  occ. eigenvalues --   -1.04770  -1.03584  -0.96048  -0.95597  -0.87062
 Alpha  occ. eigenvalues --   -0.86160  -0.82435  -0.79645  -0.78253  -0.77485
 Alpha  occ. eigenvalues --   -0.72068  -0.71196  -0.70484  -0.65084  -0.65021
 Alpha  occ. eigenvalues --   -0.64765  -0.62189  -0.60946  -0.59415  -0.57659
 Alpha  occ. eigenvalues --   -0.55349  -0.55212  -0.53098  -0.52988  -0.52641
 Alpha  occ. eigenvalues --   -0.52422  -0.49941  -0.48824  -0.48819  -0.47965
 Alpha  occ. eigenvalues --   -0.46653  -0.45799  -0.45706  -0.44833  -0.43848
 Alpha  occ. eigenvalues --   -0.37349  -0.36345
 Alpha virt. eigenvalues --    0.05021   0.11246   0.16501   0.20484   0.22961
 Alpha virt. eigenvalues --    0.24014   0.26328   0.26638   0.27427   0.27958
 Alpha virt. eigenvalues --    0.29195   0.30783   0.31393   0.31787   0.32243

 Mulliken charges:
               1
     1  C   -0.299374
     2  C   -0.301531
     3  C   -0.479707
     4  H    0.155455
     5  H    0.149250
     6  H    0.153724
     7  H    0.147715
     8  H    0.157161
     9  H    0.171539
    10  H    0.144240
    11  C   -0.298327
    12  C   -0.300022
    13  C   -0.475742
    14  H    0.150188
    15  H    0.147595
    16  H    0.154294
    17  H    0.151718
    18  H    0.153989
    19  H    0.155393
    20  H    0.160710
    21  C   -0.170620
    22  C   -0.218770
    23  C   -0.170735
    24  C    0.157017
    25  C   -0.173967
    26  C   -0.219986
    27  H    0.225699
    28  H    0.223471
    29  H    0.275478
    30  H    0.283658
    31  H    0.223684
    32  N    0.488056
    33  O   -0.460923
    34  O   -0.460331
 Sum of Mulliken charges =  -0.00000

 Dipole moment (field-independent basis, Debye):
    X=             -0.4159    Y=              4.9775    Z=              1.0246  Tot=              5.0989
 Quadrupole moment (field-independent basis, Debye-Ang):
   XX=            -91.9871   YY=            -97.4261   ZZ=            -91.9709
   XY=            -14.4084   XZ=              0.3136   YZ=             -1.8709

 Normal termination of Gaussian 16 at Thu May  6 04:26:38 2021.
