 Gaussian 16, Revision A.03,
 Gaussian 16:  EM64L-G16RevA.03 25-Dec-2016

 -------------
 #p 6-31g* mp2
 -------------

 ------------------------------------------------------
 Input file generated by CHIRIPA (05-May-2021 14:53:15)
 ------------------------------------------------------
 Symbolic Z-matrix:
 Charge =  0 Multiplicity = 1

                         Standard orientation:
 ---------------------------------------------------------------------
 Center     Atomic      Atomic             Coordinates (Angstroms)
 Number     Number       Type             X           Y           Z
 ---------------------------------------------------------------------
      1          6           0        3.873306   -0.397745   -0.406531
      2          6           0        4.463346   -1.703041    0.128295
      3          6           0        4.719187   -2.731460   -0.973837
      4          1           0        2.933421   -0.615776   -0.931910
      5          1           0        4.557874    0.026899   -1.153820
      6          1           0        3.778526   -2.124385    0.875360
      7          1           0        5.401839   -1.481853    0.652627
      8          1           0        5.419964   -2.334907   -1.715631
      9          1           0        3.787428   -2.981090   -1.491632
     10          1           0        5.140971   -3.656860   -0.569372
     11          6           0        3.611959    0.640335    0.683339
     12          6           0        3.021919    1.945631    0.148513
     13          6           0        2.766079    2.974050    1.250645
     14          1           0        2.927392    0.215691    1.430628
     15          1           0        4.551845    0.858366    1.208718
     16          1           0        2.083427    1.724443   -0.375819
     17          1           0        3.706739    2.366975   -0.598552
     18          1           0        3.697837    3.223680    1.768440
     19          1           0        2.065302    2.577497    1.992439
     20          1           0        2.344294    3.899450    0.846180
     21          6           0       -2.156299    2.136799   -1.000765
     22          6           0       -3.507714    1.927918   -0.706542
     23          6           0       -3.944329    0.695510   -0.211483
     24          6           0       -2.998144   -0.310501   -0.021832
     25          6           0       -1.644880   -0.133104   -0.305549
     26          6           0       -1.230826    1.107436   -0.799684
     27          1           0       -1.825890    3.097322   -1.384980
     28          1           0       -4.228678    2.725525   -0.861715
     29          1           0       -4.984535    0.506698    0.024612
     30          1           0       -0.949687   -0.947270   -0.140446
     31          1           0       -0.180669    1.266814   -1.027311
     32          7           0       -3.448425   -1.619501    0.501777
     33          8           0       -2.594995   -2.489695    0.660064
     34          8           0       -4.646262   -1.750515    0.743978
 ---------------------------------------------------------------------

 SCF Done:  E(RHF) =  -669.535480659     A.U. after   15 cycles
 E2 =    -0.2091201832D+01 EUMP2 =    -0.67162668249158D+03

 The electronic state is 1-A.
 Alpha  occ. eigenvalues --  -20.60773 -20.60768 -15.85826 -11.31191 -11.27762
 Alpha  occ. eigenvalues --  -11.27758 -11.27498 -11.26773 -11.26752 -11.22486
 Alpha  occ. eigenvalues --  -11.22019 -11.21965 -11.21910 -11.21780 -11.21315
 Alpha  occ. eigenvalues --   -1.59848  -1.39402  -1.19363  -1.09030  -1.08757
 Alpha  occ. eigenvalues --   -1.04768  -1.04086  -0.96509  -0.95592  -0.87527
 Alpha  occ. eigenvalues --   -0.86167  -0.82428  -0.80177  -0.78826  -0.77474
 Alpha  occ. eigenvalues --   -0.72045  -0.71171  -0.70471  -0.65708  -0.65015
 Alpha  occ. eigenvalues --   -0.64763  -0.62156  -0.61445  -0.59899  -0.58122
 Alpha  occ. eigenvalues --   -0.55787  -0.55266  -0.53211  -0.53094  -0.52955
 Alpha  occ. eigenvalues --   -0.52848  -0.50449  -0.48812  -0.48800  -0.48463
 Alpha  occ. eigenvalues --   -0.47210  -0.46365  -0.46268  -0.44808  -0.44344
 Alpha  occ. eigenvalues --   -0.37341  -0.36369
 Alpha virt. eigenvalues --    0.05061   0.11258   0.16529   0.19108   0.22858
 Alpha virt. eigenvalues --    0.23753   0.24864   0.26571   0.27317   0.28296
 Alpha virt. eigenvalues --    0.29413   0.29885   0.31257   0.31301   0.32139

 Mulliken charges:
               1
     1  C   -0.297411
     2  C   -0.300654
     3  C   -0.476117
     4  H    0.143327
     5  H    0.150802
     6  H    0.154741
     7  H    0.153295
     8  H    0.154965
     9  H    0.155998
    10  H    0.162946
    11  C   -0.299285
    12  C   -0.303813
    13  C   -0.476010
    14  H    0.151623
    15  H    0.153331
    16  H    0.142262
    17  H    0.154886
    18  H    0.159206
    19  H    0.158087
    20  H    0.158175
    21  C   -0.172613
    22  C   -0.218512
    23  C   -0.171034
    24  C    0.158814
    25  C   -0.173615
    26  C   -0.225228
    27  H    0.226176
    28  H    0.223458
    29  H    0.275618
    30  H    0.275194
    31  H    0.234317
    32  N    0.488119
    33  O   -0.460632
    34  O   -0.460415
 Sum of Mulliken charges =  -0.00000

 Dipole moment (field-independent basis, Debye):
    X=              1.7462    Y=              4.5955    Z=             -1.7686  Tot=              5.2246
 Quadrupole moment (field-independent basis, Debye-Ang):
   XX=            -98.2367   YY=            -98.0101   ZZ=            -95.9223
   XY=            -15.8548   XZ=              5.6338   YZ=             -0.0397

 Normal termination of Gaussian 16 at Thu May  6 05:52:27 2021.
