 Gaussian 16, Revision A.03,
 Gaussian 16:  EM64L-G16RevA.03 25-Dec-2016

 -------------
 #p 6-31g* mp2
 -------------

 ------------------------------------------------------
 Input file generated by CHIRIPA (05-May-2021 14:57:24)
 ------------------------------------------------------
 Symbolic Z-matrix:
 Charge =  0 Multiplicity = 1

                         Standard orientation:
 ---------------------------------------------------------------------
 Center     Atomic      Atomic             Coordinates (Angstroms)
 Number     Number       Type             X           Y           Z
 ---------------------------------------------------------------------
      1          6           0        1.585687    1.172683   -1.232984
      2          6           0        1.351677   -0.048711   -0.592706
      3          6           0        2.397540   -0.734871    0.031716
      4          6           0        3.670654   -0.168100   -0.003552
      5          6           0        3.935568    1.047014   -0.633319
      6          6           0        2.874614    1.715690   -1.251215
      7          1           0        0.767373    1.698917   -1.715515
      8          1           0        0.351704   -0.472800   -0.576965
      9          1           0        2.244405   -1.682013    0.534596
     10          1           0        4.943185    1.444663   -0.632341
     11          1           0        3.059287    2.664075   -1.747709
     12          7           0        4.785851   -0.885252    0.654041
     13          8           0        5.898352   -0.364732    0.608897
     14          8           0        4.526325   -1.954296    1.202154
     15          6           0       -2.662365    2.243583    1.046766
     16          6           0       -2.224540    1.808875   -0.208567
     17          6           0       -2.674772    0.595113   -0.736414
     18          6           0       -3.566564   -0.162172    0.021555
     19          6           0       -4.021126    0.243861    1.275270
     20          6           0       -3.557682    1.461068    1.783379
     21          1           0       -2.307482    3.187801    1.449142
     22          1           0       -1.529247    2.414518   -0.782856
     23          1           0       -2.352009    0.234683   -1.705605
     24          1           0       -4.714457   -0.381660    1.824299
     25          1           0       -3.899400    1.796165    2.758563
     26          7           0       -4.050198   -1.448951   -0.526804
     27          8           0       -4.835675   -2.097727    0.160765
     28          8           0       -3.634636   -1.784385   -1.633795
 ---------------------------------------------------------------------

 SCF Done:  E(RHF) =  -868.336674381     A.U. after   16 cycles
 E2 =    -0.2600984403D+01 EUMP2 =    -0.87093765878377D+03

 The electronic state is 1-A.
 Alpha  occ. eigenvalues --  -20.61558 -20.61538 -20.60985 -20.60976 -15.86612
 Alpha  occ. eigenvalues --  -15.86037 -11.32134 -11.31500 -11.28789 -11.28633
 Alpha  occ. eigenvalues --  -11.28415 -11.28070 -11.28018 -11.27946 -11.27850
 Alpha  occ. eigenvalues --  -11.27652 -11.27174 -11.27077  -1.60626  -1.60056
 Alpha  occ. eigenvalues --   -1.40175  -1.39606  -1.20310  -1.19682  -1.09656
 Alpha  occ. eigenvalues --   -1.09092  -1.05751  -1.05080  -0.96470  -0.95909
 Alpha  occ. eigenvalues --   -0.87121  -0.86495  -0.83316  -0.82720  -0.78357
 Alpha  occ. eigenvalues --   -0.77723  -0.72819  -0.72255  -0.71959  -0.71379
 Alpha  occ. eigenvalues --   -0.71378  -0.70892  -0.65958  -0.65747  -0.65341
 Alpha  occ. eigenvalues --   -0.65101  -0.63091  -0.62407  -0.56192  -0.55710
 Alpha  occ. eigenvalues --   -0.54073  -0.53816  -0.53404  -0.53140  -0.49592
 Alpha  occ. eigenvalues --   -0.49570  -0.49022  -0.49003  -0.45547  -0.44989
 Alpha  occ. eigenvalues --   -0.38267  -0.37766  -0.37301  -0.36646
 Alpha virt. eigenvalues --    0.04165   0.04770   0.10188   0.11005   0.15561
 Alpha virt. eigenvalues --    0.16187   0.18438   0.22020   0.24832   0.26283
 Alpha virt. eigenvalues --    0.27693   0.29013   0.29784   0.31387   0.32493

 Mulliken charges:
               1
     1  C   -0.174313
     2  C   -0.218531
     3  C   -0.171404
     4  C    0.159488
     5  C   -0.171233
     6  C   -0.218433
     7  H    0.215404
     8  H    0.228413
     9  H    0.278715
    10  H    0.276374
    11  H    0.222788
    12  N    0.487830
    13  O   -0.459994
    14  O   -0.458416
    15  C   -0.169672
    16  C   -0.217768
    17  C   -0.180575
    18  C    0.159184
    19  C   -0.169580
    20  C   -0.217360
    21  H    0.229304
    22  H    0.218389
    23  H    0.273271
    24  H    0.279196
    25  H    0.227886
    26  N    0.487962
    27  O   -0.456233
    28  O   -0.460693
 Sum of Mulliken charges =  -0.00000

 Dipole moment (field-independent basis, Debye):
    X=             -2.3955    Y=              6.9699    Z=             -0.1322  Tot=              7.3712
 Quadrupole moment (field-independent basis, Debye-Ang):
   XX=           -141.9490   YY=           -105.2375   ZZ=           -101.8544
   XY=             -3.6654   XZ=            -19.5181   YZ=             -1.3520

 Normal termination of Gaussian 16 at Thu May  6 19:37:30 2021.
