 Gaussian 16, Revision A.03,
 Gaussian 16:  EM64L-G16RevA.03 25-Dec-2016

 -------------
 #p 6-31g* mp2
 -------------

 ------------------------------------------------------
 Input file generated by CHIRIPA (05-May-2021 14:55:25)
 ------------------------------------------------------
 Symbolic Z-matrix:
 Charge =  0 Multiplicity = 1

                         Standard orientation:
 ---------------------------------------------------------------------
 Center     Atomic      Atomic             Coordinates (Angstroms)
 Number     Number       Type             X           Y           Z
 ---------------------------------------------------------------------
      1          6           0       -2.033689   -2.575171    0.937912
      2          6           0       -3.288918   -1.959442    0.980314
      3          6           0       -3.480585   -0.697900    0.409066
      4          6           0       -2.390197   -0.077943   -0.199209
      5          6           0       -1.127417   -0.665537   -0.257621
      6          6           0       -0.958839   -1.927396    0.320169
      7          1           0       -1.893765   -3.555290    1.384213
      8          1           0       -4.125462   -2.460160    1.459396
      9          1           0       -4.441608   -0.198393    0.427627
     10          1           0       -0.312501   -0.141605   -0.742209
     11          1           0        0.017113   -2.403186    0.285744
     12          7           0       -2.580884    1.257762   -0.807426
     13          8           0       -1.604215    1.783015   -1.337394
     14          8           0       -3.703402    1.754144   -0.742664
     15          6           0        2.981355    0.921552    0.665559
     16          6           0        2.055396    2.081406    0.297698
     17          6           0        1.990131    3.153694    1.385692
     18          1           0        2.637737    0.470666    1.606608
     19          1           0        3.990058    1.313218    0.856639
     20          1           0        1.049060    1.687496    0.106020
     21          1           0        2.401146    2.529461   -0.642685
     22          1           0        2.983606    3.574167    1.572265
     23          1           0        1.623839    2.727418    2.325223
     24          1           0        1.322634    3.973350    1.102016
     25          6           0        3.057093   -0.158457   -0.412203
     26          6           0        3.983053   -1.318311   -0.044342
     27          6           0        4.048318   -2.390599   -1.132337
     28          1           0        2.048391   -0.550124   -0.603283
     29          1           0        3.400712    0.292428   -1.353253
     30          1           0        3.637303   -1.766366    0.896040
     31          1           0        4.989389   -0.924401    0.147335
     32          1           0        4.414610   -1.964323   -2.071868
     33          1           0        3.054843   -2.811073   -1.318909
     34          1           0        4.715815   -3.210256   -0.848661
 ---------------------------------------------------------------------

 SCF Done:  E(RHF) =  -669.535074326     A.U. after   15 cycles
 E2 =    -0.2093402429D+01 EUMP2 =    -0.67162847675444D+03

 The electronic state is 1-A.
 Alpha  occ. eigenvalues --  -20.60853 -20.60848 -15.85884 -11.31225 -11.27796
 Alpha  occ. eigenvalues --  -11.27756 -11.27538 -11.26811 -11.26800 -11.22141
 Alpha  occ. eigenvalues --  -11.21936 -11.21644 -11.21557 -11.21364 -11.20788
 Alpha  occ. eigenvalues --   -1.59915  -1.39470  -1.19400  -1.08801  -1.08736
 Alpha  occ. eigenvalues --   -1.04804  -1.03708  -0.96192  -0.95640  -0.87205
 Alpha  occ. eigenvalues --   -0.86204  -0.82476  -0.79817  -0.78539  -0.77490
 Alpha  occ. eigenvalues --   -0.72107  -0.71230  -0.70527  -0.65453  -0.65048
 Alpha  occ. eigenvalues --   -0.64802  -0.62134  -0.61110  -0.59575  -0.57760
 Alpha  occ. eigenvalues --   -0.55523  -0.55298  -0.53130  -0.52950  -0.52794
 Alpha  occ. eigenvalues --   -0.52599  -0.50166  -0.48893  -0.48865  -0.48092
 Alpha  occ. eigenvalues --   -0.46903  -0.46006  -0.45914  -0.44816  -0.43990
 Alpha  occ. eigenvalues --   -0.37380  -0.36395
 Alpha virt. eigenvalues --    0.04964   0.11175   0.16476   0.18889   0.22936
 Alpha virt. eigenvalues --    0.23783   0.24907   0.26604   0.27447   0.28236
 Alpha virt. eigenvalues --    0.29246   0.31143   0.31475   0.32046   0.32499

 Mulliken charges:
               1
     1  C   -0.170560
     2  C   -0.218675
     3  C   -0.170432
     4  C    0.159506
     5  C   -0.179081
     6  C   -0.222610
     7  H    0.225887
     8  H    0.223705
     9  H    0.275664
    10  H    0.285776
    11  H    0.224826
    12  N    0.488584
    13  O   -0.461071
    14  O   -0.459515
    15  C   -0.299412
    16  C   -0.306798
    17  C   -0.476408
    18  H    0.147047
    19  H    0.151328
    20  H    0.161361
    21  H    0.155755
    22  H    0.153081
    23  H    0.152317
    24  H    0.168184
    25  C   -0.300845
    26  C   -0.300171
    27  C   -0.475176
    28  H    0.137321
    29  H    0.155879
    30  H    0.148671
    31  H    0.156256
    32  H    0.159298
    33  H    0.148411
    34  H    0.161901
 Sum of Mulliken charges =  -0.00000

 Dipole moment (field-independent basis, Debye):
    X=              0.6968    Y=             -4.5541    Z=              2.1005  Tot=              5.0633
 Quadrupole moment (field-independent basis, Debye-Ang):
   XX=            -92.2151   YY=            -94.8629   ZZ=            -96.3600
   XY=             12.0514   XZ=             -7.3278   YZ=             -0.2462

 Normal termination of Gaussian 16 at Wed May  5 17:38:57 2021.
