 Gaussian 16, Revision A.03,
 Gaussian 16:  EM64L-G16RevA.03 25-Dec-2016

 -------------
 #p 6-31g* mp2
 -------------

 ------------------------------------------------------
 Input file generated by CHIRIPA (05-May-2021 14:53:15)
 ------------------------------------------------------
 Symbolic Z-matrix:
 Charge =  0 Multiplicity = 1

                         Standard orientation:
 ---------------------------------------------------------------------
 Center     Atomic      Atomic             Coordinates (Angstroms)
 Number     Number       Type             X           Y           Z
 ---------------------------------------------------------------------
      1          6           0       -2.642547    0.421911    0.299446
      2          6           0       -2.883361   -1.049487   -0.039647
      3          6           0       -3.862040   -1.725096    0.921359
      4          1           0       -2.260700    0.497099    1.326814
      5          1           0       -3.602326    0.956646    0.282793
      6          1           0       -1.923230   -1.581004   -0.023716
      7          1           0       -3.264497   -1.121196   -1.066394
      8          1           0       -4.833482   -1.220688    0.899583
      9          1           0       -3.484593   -1.683109    1.948185
     10          1           0       -4.019667   -2.776286    0.660564
     11          6           0       -1.666386    1.111047   -0.652356
     12          6           0       -1.425572    2.582444   -0.313263
     13          6           0       -0.446893    3.258053   -1.274269
     14          1           0       -0.706606    0.576311   -0.635703
     15          1           0       -2.048232    1.035858   -1.679724
     16          1           0       -1.044435    2.654153    0.713483
     17          1           0       -2.385703    3.113961   -0.329195
     18          1           0       -0.824339    3.216066   -2.301096
     19          1           0        0.524549    2.753645   -1.252493
     20          1           0       -0.289266    4.309243   -1.013474
     21          6           0        1.181256   -2.505356   -1.436657
     22          6           0        1.736725   -1.319398   -1.928063
     23          6           0        2.018956   -0.256500   -1.064848
     24          6           0        1.731701   -0.414494    0.290074
     25          6           0        1.178274   -1.583536    0.810024
     26          6           0        0.904291   -2.633414   -0.071587
     27          1           0        0.965216   -3.325983   -2.114368
     28          1           0        1.952865   -1.217134   -2.987720
     29          1           0        2.448983    0.672706   -1.418500
     30          1           0        0.973836   -1.655845    1.871341
     31          1           0        0.472907   -3.553282    0.312853
     32          7           0        2.026120    0.703857    1.213659
     33          8           0        1.763742    0.539646    2.403125
     34          8           0        2.513689    1.723454    0.730610
 ---------------------------------------------------------------------

 SCF Done:  E(RHF) =  -669.534350314     A.U. after   15 cycles
 E2 =    -0.2097095058D+01 EUMP2 =    -0.67163144537246D+03

 The electronic state is 1-A.
 Alpha  occ. eigenvalues --  -20.61017 -20.61000 -15.86032 -11.31349 -11.27952
 Alpha  occ. eigenvalues --  -11.27923 -11.27690 -11.26974 -11.26948 -11.21562
 Alpha  occ. eigenvalues --  -11.21208 -11.21186 -11.21136 -11.21026 -11.20545
 Alpha  occ. eigenvalues --   -1.60069  -1.39623  -1.19583  -1.08963  -1.08220
 Alpha  occ. eigenvalues --   -1.04972  -1.03315  -0.95796  -0.95769  -0.86793
 Alpha  occ. eigenvalues --   -0.86360  -0.82626  -0.79393  -0.78037  -0.77677
 Alpha  occ. eigenvalues --   -0.72255  -0.71417  -0.70658  -0.65222  -0.64958
 Alpha  occ. eigenvalues --   -0.64880  -0.62317  -0.60712  -0.59167  -0.57382
 Alpha  occ. eigenvalues --   -0.55453  -0.55128  -0.53407  -0.53045  -0.52444
 Alpha  occ. eigenvalues --   -0.52183  -0.49760  -0.49012  -0.49006  -0.47731
 Alpha  occ. eigenvalues --   -0.46471  -0.45524  -0.45388  -0.44920  -0.43553
 Alpha  occ. eigenvalues --   -0.37469  -0.36498
 Alpha virt. eigenvalues --    0.04801   0.10959   0.16268   0.20979   0.22984
 Alpha virt. eigenvalues --    0.24119   0.26638   0.26852   0.27694   0.27792
 Alpha virt. eigenvalues --    0.28687   0.30251   0.31404   0.31895   0.32208

 Mulliken charges:
               1
     1  C   -0.298225
     2  C   -0.305199
     3  C   -0.475514
     4  H    0.152382
     5  H    0.149578
     6  H    0.152341
     7  H    0.149109
     8  H    0.156855
     9  H    0.154910
    10  H    0.155693
    11  C   -0.306718
    12  C   -0.302388
    13  C   -0.478250
    14  H    0.155976
    15  H    0.145459
    16  H    0.160258
    17  H    0.150182
    18  H    0.147902
    19  H    0.159792
    20  H    0.163443
    21  C   -0.170334
    22  C   -0.213862
    23  C   -0.175340
    24  C    0.158743
    25  C   -0.171742
    26  C   -0.216738
    27  H    0.227133
    28  H    0.224995
    29  H    0.276865
    30  H    0.276443
    31  H    0.225461
    32  N    0.489749
    33  O   -0.459546
    34  O   -0.459411
 Sum of Mulliken charges =  -0.00000

 Dipole moment (field-independent basis, Debye):
    X=             -0.7913    Y=             -3.9597    Z=             -3.1905  Tot=              5.1463
 Quadrupole moment (field-independent basis, Debye-Ang):
   XX=            -98.7329   YY=            -90.6167   ZZ=            -94.0063
   XY=             -6.1752   XZ=             -6.8242   YZ=             -1.5421

 Normal termination of Gaussian 16 at Wed May  5 21:55:51 2021.
