 Gaussian 16, Revision A.03,
 Gaussian 16:  EM64L-G16RevA.03 25-Dec-2016

 -------------
 #p 6-31g* mp2
 -------------

 ------------------------------------------------------
 Input file generated by CHIRIPA (05-May-2021 14:53:13)
 ------------------------------------------------------
 Symbolic Z-matrix:
 Charge =  0 Multiplicity = 1

                         Standard orientation:
 ---------------------------------------------------------------------
 Center     Atomic      Atomic             Coordinates (Angstroms)
 Number     Number       Type             X           Y           Z
 ---------------------------------------------------------------------
      1          6           0        3.806443   -0.674618    0.073011
      2          6           0        4.555162    0.658216    0.042066
      3          6           0        5.945194    0.570190    0.672825
      4          1           0        3.717408   -1.013804    1.114150
      5          1           0        4.401506   -1.433792   -0.453250
      6          1           0        3.958224    1.414981    0.567031
      7          1           0        4.642257    0.994364   -0.999104
      8          1           0        6.561969   -0.164329    0.144930
      9          1           0        5.874049    0.258678    1.719964
     10          1           0        6.462719    1.534011    0.640008
     11          6           0        2.415231   -0.602659   -0.553948
     12          6           0        1.666512   -1.935493   -0.523002
     13          6           0        0.276480   -1.847466   -1.153761
     14          1           0        1.820168    0.156515   -0.027687
     15          1           0        2.504266   -0.263472   -1.595087
     16          1           0        1.579417   -2.271640    0.518168
     17          1           0        2.263450   -2.692258   -1.047968
     18          1           0        0.347625   -1.535955   -2.200900
     19          1           0       -0.340295   -1.112948   -0.625866
     20          1           0       -0.241045   -2.811287   -1.120944
     21          6           0       -3.648649   -1.649353    0.704108
     22          6           0       -2.768740   -1.100653    1.642835
     23          6           0       -2.088324    0.089213    1.367514
     24          6           0       -2.312560    0.706625    0.137958
     25          6           0       -3.182871    0.184790   -0.817834
     26          6           0       -3.852547   -1.006015   -0.521071
     27          1           0       -4.173042   -2.574033    0.926312
     28          1           0       -2.608440   -1.598099    2.595147
     29          1           0       -1.401510    0.535922    2.076145
     30          1           0       -3.322114    0.703631   -1.758489
     31          1           0       -4.535307   -1.429843   -1.251996
     32          7           0       -1.597919    1.966779   -0.164862
     33          8           0       -1.812822    2.491333   -1.255411
     34          8           0       -0.836411    2.406072    0.694070
 ---------------------------------------------------------------------

 SCF Done:  E(RHF) =  -669.534770296     A.U. after   15 cycles
 E2 =    -0.2093675030D+01 EUMP2 =    -0.67162844532617D+03

 The electronic state is 1-A.
 Alpha  occ. eigenvalues --  -20.60860 -20.60855 -15.85899 -11.31224 -11.27818
 Alpha  occ. eigenvalues --  -11.27813 -11.27580 -11.26855 -11.26844 -11.21418
 Alpha  occ. eigenvalues --  -11.21146 -11.21048 -11.20971 -11.20847 -11.20712
 Alpha  occ. eigenvalues --   -1.59926  -1.39480  -1.19451  -1.08835  -1.08097
 Alpha  occ. eigenvalues --   -1.04839  -1.03231  -0.95709  -0.95645  -0.86709
 Alpha  occ. eigenvalues --   -0.86236  -0.82499  -0.79297  -0.77892  -0.77547
 Alpha  occ. eigenvalues --   -0.72120  -0.71256  -0.70541  -0.65090  -0.64839
 Alpha  occ. eigenvalues --   -0.64735  -0.62183  -0.60665  -0.59059  -0.57318
 Alpha  occ. eigenvalues --   -0.55339  -0.55172  -0.53283  -0.52927  -0.52359
 Alpha  occ. eigenvalues --   -0.51958  -0.49529  -0.48882  -0.48875  -0.47591
 Alpha  occ. eigenvalues --   -0.46299  -0.45444  -0.45371  -0.44839  -0.43475
 Alpha  occ. eigenvalues --   -0.37368  -0.36437
 Alpha virt. eigenvalues --    0.04968   0.11173   0.16453   0.21336   0.23129
 Alpha virt. eigenvalues --    0.24530   0.26816   0.27330   0.27702   0.28133
 Alpha virt. eigenvalues --    0.28437   0.30866   0.31632   0.32073   0.32200

 Mulliken charges:
               1
     1  C   -0.297661
     2  C   -0.300698
     3  C   -0.475588
     4  H    0.146876
     5  H    0.147571
     6  H    0.157871
     7  H    0.152876
     8  H    0.153452
     9  H    0.153642
    10  H    0.160749
    11  C   -0.301727
    12  C   -0.298354
    13  C   -0.480682
    14  H    0.156262
    15  H    0.151583
    16  H    0.147013
    17  H    0.150449
    18  H    0.155175
    19  H    0.161642
    20  H    0.154654
    21  C   -0.170955
    22  C   -0.213550
    23  C   -0.176692
    24  C    0.158290
    25  C   -0.170659
    26  C   -0.215328
    27  H    0.226069
    28  H    0.223878
    29  H    0.275343
    30  H    0.275983
    31  H    0.224053
    32  N    0.489368
    33  O   -0.459499
    34  O   -0.461410
 Sum of Mulliken charges =  -0.00000

 Dipole moment (field-independent basis, Debye):
    X=             -2.6605    Y=             -4.3244    Z=              1.0583  Tot=              5.1864
 Quadrupole moment (field-independent basis, Debye-Ang):
   XX=            -83.5754   YY=           -101.9579   ZZ=            -89.9758
   XY=              8.8022   XZ=             -1.3393   YZ=             -0.0347

 Normal termination of Gaussian 16 at Wed May  5 18:35:26 2021.
