 Gaussian 16, Revision A.03,
 Gaussian 16:  EM64L-G16RevA.03 25-Dec-2016

 -------------
 #p 6-31g* mp2
 -------------

 ------------------------------------------------------
 Input file generated by CHIRIPA (05-May-2021 14:53:17)
 ------------------------------------------------------
 Symbolic Z-matrix:
 Charge =  0 Multiplicity = 1

                         Standard orientation:
 ---------------------------------------------------------------------
 Center     Atomic      Atomic             Coordinates (Angstroms)
 Number     Number       Type             X           Y           Z
 ---------------------------------------------------------------------
      1          6           0       -4.193488   -0.195885    0.533626
      2          6           0       -2.945332   -0.656848   -0.219769
      3          6           0       -1.735083   -0.838697    0.696757
      4          1           0       -3.975336    0.750382    1.047372
      5          1           0       -4.432219   -0.928863    1.316661
      6          1           0       -2.709831    0.076081   -1.002054
      7          1           0       -3.166539   -1.602029   -0.731938
      8          1           0       -1.945685   -1.585198    1.469404
      9          1           0       -1.486382    0.102447    1.197753
     10          1           0       -0.853959   -1.168512    0.137558
     11          6           0       -5.411739   -0.009636   -0.369095
     12          6           0       -6.659895    0.451328    0.384300
     13          6           0       -7.870144    0.633177   -0.532226
     14          1           0       -5.173008    0.723342   -1.152131
     15          1           0       -5.629891   -0.955902   -0.882841
     16          1           0       -6.438688    1.396509    0.896469
     17          1           0       -6.895396   -0.281602    1.166585
     18          1           0       -8.118845   -0.307968   -1.033222
     19          1           0       -7.659542    1.379678   -1.304873
     20          1           0       -8.751268    0.962991    0.026973
     21          6           0        3.469566   -2.425389   -0.152285
     22          6           0        4.749104   -1.868045   -0.059156
     23          6           0        4.917522   -0.481056   -0.009708
     24          6           0        3.779350    0.322520   -0.055761
     25          6           0        2.491381   -0.202672   -0.148489
     26          6           0        2.346769   -1.592392   -0.196576
     27          1           0        3.347981   -3.503896   -0.190169
     28          1           0        5.622887   -2.512524   -0.024581
     29          1           0        5.896507   -0.023016    0.062441
     30          1           0        1.639354    0.465465   -0.181079
     31          1           0        1.351848   -2.022449   -0.268895
     32          7           0        3.945046    1.792310   -0.004132
     33          8           0        2.926272    2.478573   -0.046290
     34          8           0        5.090556    2.230236    0.077513
 ---------------------------------------------------------------------

 SCF Done:  E(RHF) =  -669.535449941     A.U. after   15 cycles
 E2 =    -0.2090938521D+01 EUMP2 =    -0.67162638846123D+03

 The electronic state is 1-A.
 Alpha  occ. eigenvalues --  -20.60724 -20.60719 -15.85777 -11.31129 -11.27704
 Alpha  occ. eigenvalues --  -11.27680 -11.27445 -11.26719 -11.26688 -11.22167
 Alpha  occ. eigenvalues --  -11.21929 -11.21799 -11.21765 -11.21641 -11.21220
 Alpha  occ. eigenvalues --   -1.59800  -1.39353  -1.19302  -1.08798  -1.08702
 Alpha  occ. eigenvalues --   -1.04707  -1.03947  -0.96416  -0.95537  -0.87440
 Alpha  occ. eigenvalues --   -0.86104  -0.82374  -0.80011  -0.78575  -0.77421
 Alpha  occ. eigenvalues --   -0.71996  -0.71122  -0.70414  -0.65418  -0.64959
 Alpha  occ. eigenvalues --   -0.64732  -0.62119  -0.61329  -0.59795  -0.58008
 Alpha  occ. eigenvalues --   -0.55682  -0.55214  -0.53236  -0.53029  -0.52889
 Alpha  occ. eigenvalues --   -0.52650  -0.50332  -0.48754  -0.48751  -0.48324
 Alpha  occ. eigenvalues --   -0.47017  -0.46127  -0.46024  -0.44762  -0.44198
 Alpha  occ. eigenvalues --   -0.37287  -0.36304
 Alpha virt. eigenvalues --    0.05114   0.11346   0.16600   0.19852   0.22696
 Alpha virt. eigenvalues --    0.23821   0.25872   0.26305   0.27104   0.27971
 Alpha virt. eigenvalues --    0.28900   0.29834   0.31088   0.31682   0.32336

 Mulliken charges:
               1
     1  C   -0.299523
     2  C   -0.299237
     3  C   -0.481399
     4  H    0.152665
     5  H    0.149814
     6  H    0.154802
     7  H    0.151593
     8  H    0.158233
     9  H    0.162211
    10  H    0.149068
    11  C   -0.298763
    12  C   -0.300095
    13  C   -0.475977
    14  H    0.151134
    15  H    0.149343
    16  H    0.153390
    17  H    0.151893
    18  H    0.154955
    19  H    0.156069
    20  H    0.161152
    21  C   -0.171050
    22  C   -0.218660
    23  C   -0.170971
    24  C    0.158512
    25  C   -0.172592
    26  C   -0.222884
    27  H    0.225688
    28  H    0.223162
    29  H    0.275376
    30  H    0.276638
    31  H    0.228595
    32  N    0.488181
    33  O   -0.460623
    34  O   -0.460700
 Sum of Mulliken charges =  -0.00000

 Dipole moment (field-independent basis, Debye):
    X=             -0.7716    Y=             -5.1378    Z=             -0.1463  Tot=              5.1975
 Quadrupole moment (field-independent basis, Debye-Ang):
   XX=            -94.4467   YY=            -97.7956   ZZ=            -95.8618
   XY=            -20.3224   XZ=             -0.9400   YZ=              0.1273

 Normal termination of Gaussian 16 at Thu May  6 13:58:24 2021.
