 Gaussian 16, Revision A.03,
 Gaussian 16:  EM64L-G16RevA.03 25-Dec-2016

 -------------
 #p 6-31g* mp2
 -------------

 ------------------------------------------------------
 Input file generated by CHIRIPA (05-May-2021 14:55:20)
 ------------------------------------------------------
 Symbolic Z-matrix:
 Charge =  0 Multiplicity = 1

                         Standard orientation:
 ---------------------------------------------------------------------
 Center     Atomic      Atomic             Coordinates (Angstroms)
 Number     Number       Type             X           Y           Z
 ---------------------------------------------------------------------
      1          6           0        4.882854    2.137315    0.298700
      2          6           0        5.424472    0.892205    0.634665
      3          6           0        4.713235   -0.283875    0.378688
      4          6           0        3.457439   -0.177515   -0.217092
      5          6           0        2.890912    1.048196   -0.563458
      6          6           0        3.620029    2.211206   -0.298237
      7          1           0        5.442305    3.045846    0.501140
      8          1           0        6.404978    0.831792    1.098350
      9          1           0        5.108801   -1.260877    0.628515
     10          1           0        1.911168    1.076510   -1.024671
     11          1           0        3.196914    3.176804   -0.560228
     12          7           0        2.695020   -1.415661   -0.492977
     13          8           0        1.590627   -1.295018   -1.018714
     14          8           0        3.216265   -2.483317   -0.178254
     15          6           0       -5.125443    0.149243   -0.289491
     16          6           0       -6.435687    0.606384    0.352591
     17          6           0       -7.504350    0.969462   -0.678878
     18          1           0       -4.748398    0.945881   -0.945350
     19          1           0       -5.324131   -0.718307   -0.933909
     20          1           0       -6.234354    1.471960    0.996687
     21          1           0       -6.809557   -0.191360    1.007144
     22          1           0       -7.734154    0.108492   -1.314898
     23          1           0       -7.155681    1.781261   -1.325416
     24          1           0       -8.432653    1.293507   -0.198143
     25          6           0       -4.047280   -0.217202    0.728846
     26          6           0       -2.737038   -0.674343    0.086764
     27          6           0       -1.668374   -1.037420    1.118233
     28          1           0       -3.848593    0.650349    1.373265
     29          1           0       -4.424326   -1.013840    1.384705
     30          1           0       -2.363167    0.123401   -0.567790
     31          1           0       -2.938370   -1.539918   -0.557332
     32          1           0       -2.017043   -1.849220    1.764770
     33          1           0       -1.438570   -0.176450    1.754254
     34          1           0       -0.740070   -1.361466    0.637497
 ---------------------------------------------------------------------

 SCF Done:  E(RHF) =  -669.536342887     A.U. after   15 cycles
 E2 =    -0.2090781664D+01 EUMP2 =    -0.67162712455168D+03

 The electronic state is 1-A.
 Alpha  occ. eigenvalues --  -20.60962 -20.60956 -15.85982 -11.31283 -11.27846
 Alpha  occ. eigenvalues --  -11.27842 -11.27584 -11.26851 -11.26841 -11.21266
 Alpha  occ. eigenvalues --  -11.20945 -11.20831 -11.20800 -11.20772 -11.20001
 Alpha  occ. eigenvalues --   -1.60015  -1.39572  -1.19451  -1.08860  -1.07898
 Alpha  occ. eigenvalues --   -1.04846  -1.02934  -0.95707  -0.95376  -0.86400
 Alpha  occ. eigenvalues --   -0.86247  -0.82540  -0.79021  -0.77696  -0.77595
 Alpha  occ. eigenvalues --   -0.72208  -0.71323  -0.70562  -0.65109  -0.64850
 Alpha  occ. eigenvalues --   -0.64542  -0.62193  -0.60349  -0.58752  -0.56954
 Alpha  occ. eigenvalues --   -0.55353  -0.54694  -0.53179  -0.52938  -0.52030
 Alpha  occ. eigenvalues --   -0.51802  -0.49359  -0.48972  -0.48956  -0.47326
 Alpha  occ. eigenvalues --   -0.46083  -0.45243  -0.45169  -0.44968  -0.43142
 Alpha  occ. eigenvalues --   -0.37429  -0.36445
 Alpha virt. eigenvalues --    0.04896   0.11210   0.16365   0.21305   0.23341
 Alpha virt. eigenvalues --    0.24894   0.27080   0.27284   0.27882   0.28189
 Alpha virt. eigenvalues --    0.28792   0.30858   0.31912   0.32181   0.32425

 Mulliken charges:
               1
     1  C   -0.170526
     2  C   -0.218597
     3  C   -0.170694
     4  C    0.158448
     5  C   -0.170430
     6  C   -0.218595
     7  H    0.225965
     8  H    0.223792
     9  H    0.275837
    10  H    0.275953
    11  H    0.223778
    12  N    0.488425
    13  O   -0.459995
    14  O   -0.458326
    15  C   -0.297572
    16  C   -0.299095
    17  C   -0.475341
    18  H    0.147664
    19  H    0.150148
    20  H    0.150335
    21  H    0.151816
    22  H    0.155405
    23  H    0.154097
    24  H    0.158985
    25  C   -0.297579
    26  C   -0.296537
    27  C   -0.487270
    28  H    0.146034
    29  H    0.148989
    30  H    0.148219
    31  H    0.154633
    32  H    0.151910
    33  H    0.145652
    34  H    0.184472
 Sum of Mulliken charges =  -0.00000

 Dipole moment (field-independent basis, Debye):
    X=              2.9595    Y=              4.2797    Z=              0.9001  Tot=              5.2806
 Quadrupole moment (field-independent basis, Debye-Ang):
   XX=            -74.9208   YY=            -94.2511   ZZ=            -95.8180
   XY=             13.2997   XZ=              4.2053   YZ=             -2.1232

 Normal termination of Gaussian 16 at Wed May  5 18:56:07 2021.
