 Gaussian 16, Revision A.03,
 Gaussian 16:  EM64L-G16RevA.03 25-Dec-2016

 -------------
 #p 6-31g* mp2
 -------------

 ------------------------------------------------------
 Input file generated by CHIRIPA (05-May-2021 14:51:13)
 ------------------------------------------------------
 Symbolic Z-matrix:
 Charge =  0 Multiplicity = 1

                         Standard orientation:
 ---------------------------------------------------------------------
 Center     Atomic      Atomic             Coordinates (Angstroms)
 Number     Number       Type             X           Y           Z
 ---------------------------------------------------------------------
      1          6           0       -3.471144    0.162134    0.155027
      2          6           0       -4.366860   -0.218704   -1.024227
      3          6           0       -5.296835   -1.389918   -0.706112
      4          1           0       -2.874640   -0.711560    0.451315
      5          1           0       -4.101691    0.417315    1.017980
      6          1           0       -3.734833   -0.471756   -1.885112
      7          1           0       -4.961161    0.656052   -1.317865
      8          1           0       -5.951346   -1.144288    0.136433
      9          1           0       -4.718051   -2.278504   -0.434037
     10          1           0       -5.928137   -1.645452   -1.562862
     11          6           0       -2.535761    1.331419   -0.147563
     12          6           0       -1.640045    1.712258    1.031691
     13          6           0       -0.710070    2.883472    0.713576
     14          1           0       -1.905214    1.076238   -1.010516
     15          1           0       -3.132265    2.205114   -0.443851
     16          1           0       -1.045744    0.837501    1.325329
     17          1           0       -2.272072    1.965310    1.892576
     18          1           0       -1.288854    3.772058    0.441501
     19          1           0       -0.055559    2.637842   -0.128969
     20          1           0       -0.078768    3.139005    1.570326
     21          6           0        2.723270   -1.371235    0.335358
     22          6           0        1.198788   -1.466673    0.265841
     23          6           0        0.653280   -2.721312    0.948553
     24          1           0        3.161835   -2.264156   -0.130796
     25          1           0        3.036753   -1.382465    1.388447
     26          1           0        0.888187   -1.453872   -0.786765
     27          1           0        0.763804   -0.573331    0.732043
     28          1           0        0.934594   -2.737429    2.006477
     29          1           0        1.059684   -3.622974    0.479040
     30          1           0       -0.438400   -2.769390    0.887023
     31          6           0        3.283635   -0.122318   -0.342822
     32          6           0        4.808117   -0.026881   -0.273304
     33          6           0        5.353625    1.227758   -0.956017
     34          1           0        2.970153   -0.111088   -1.395911
     35          1           0        2.845070    0.770602    0.123332
     36          1           0        5.243100   -0.920223   -0.739506
     37          1           0        5.118718   -0.039682    0.779301
     38          1           0        4.947221    2.129420   -0.486504
     39          1           0        5.072311    1.243876   -2.013941
     40          1           0        6.445304    1.275836   -0.894487
 ---------------------------------------------------------------------

 SCF Done:  E(RHF) =  -470.733405250     A.U. after   11 cycles
 E2 =    -0.1583301049D+01 EUMP2 =    -0.47231670629900D+03

 The electronic state is 1-A.
 Alpha  occ. eigenvalues --  -11.21654 -11.21621 -11.21598 -11.21582 -11.21442
 Alpha  occ. eigenvalues --  -11.21396 -11.21381 -11.21335 -11.21145 -11.21081
 Alpha  occ. eigenvalues --  -11.21080 -11.21069  -1.08477  -1.08416  -1.03582
 Alpha  occ. eigenvalues --   -1.03518  -0.96019  -0.95977  -0.87037  -0.86989
 Alpha  occ. eigenvalues --   -0.79683  -0.79550  -0.78309  -0.78212  -0.65196
 Alpha  occ. eigenvalues --   -0.64976  -0.61103  -0.60808  -0.59392  -0.59335
 Alpha  occ. eigenvalues --   -0.57631  -0.57588  -0.55304  -0.55263  -0.52717
 Alpha  occ. eigenvalues --   -0.52672  -0.52447  -0.52398  -0.50011  -0.49878
 Alpha  occ. eigenvalues --   -0.48069  -0.47834  -0.46886  -0.46441  -0.45948
 Alpha  occ. eigenvalues --   -0.45791  -0.45716  -0.45462  -0.43823  -0.43780
 Alpha virt. eigenvalues --    0.20058   0.22776   0.23705   0.24240   0.26030
 Alpha virt. eigenvalues --    0.26515   0.26597   0.27726   0.28983   0.29142
 Alpha virt. eigenvalues --    0.29960   0.31458   0.31710   0.31765   0.32196

 Mulliken charges:
               1
     1  C   -0.299704
     2  C   -0.299649
     3  C   -0.475667
     4  H    0.150566
     5  H    0.149532
     6  H    0.151968
     7  H    0.151980
     8  H    0.155209
     9  H    0.155025
    10  H    0.160263
    11  C   -0.298044
    12  C   -0.305675
    13  C   -0.476987
    14  H    0.150311
    15  H    0.149564
    16  H    0.157409
    17  H    0.152019
    18  H    0.155519
    19  H    0.156535
    20  H    0.159474
    21  C   -0.297539
    22  C   -0.307873
    23  C   -0.476649
    24  H    0.149827
    25  H    0.149675
    26  H    0.151500
    27  H    0.159520
    28  H    0.155611
    29  H    0.155744
    30  H    0.160348
    31  C   -0.299360
    32  C   -0.299653
    33  C   -0.475817
    34  H    0.149252
    35  H    0.150774
    36  H    0.151982
    37  H    0.152034
    38  H    0.155511
    39  H    0.155139
    40  H    0.160324
 Sum of Mulliken charges =  -0.00000

 Dipole moment (field-independent basis, Debye):
    X=              0.0162    Y=              0.0003    Z=             -0.0006  Tot=              0.0162
 Quadrupole moment (field-independent basis, Debye-Ang):
   XX=            -85.0827   YY=            -85.5370   ZZ=            -84.1075
   XY=             -1.6077   XZ=              0.0303   YZ=              1.1058

 Normal termination of Gaussian 16 at Wed May  5 18:23:50 2021.
