 Gaussian 16, Revision A.03,
 Gaussian 16:  EM64L-G16RevA.03 25-Dec-2016

 -------------
 #p 6-31g* mp2
 -------------

 ------------------------------------------------------
 Input file generated by CHIRIPA (05-May-2021 14:53:12)
 ------------------------------------------------------
 Symbolic Z-matrix:
 Charge =  0 Multiplicity = 1

                         Standard orientation:
 ---------------------------------------------------------------------
 Center     Atomic      Atomic             Coordinates (Angstroms)
 Number     Number       Type             X           Y           Z
 ---------------------------------------------------------------------
      1          6           0       -3.323277   -0.665176    0.278888
      2          6           0       -3.532804   -1.368310   -1.062636
      3          6           0       -3.888747   -2.846993   -0.905805
      4          1           0       -2.526531   -1.178671    0.834283
      5          1           0       -4.236720   -0.761423    0.882007
      6          1           0       -2.619722   -1.269575   -1.663593
      7          1           0       -4.329012   -0.852965   -1.614984
      8          1           0       -4.811584   -2.961917   -0.328081
      9          1           0       -3.092582   -3.380895   -0.376966
     10          1           0       -4.034124   -3.330131   -1.877043
     11          6           0       -2.966823    0.813671    0.138601
     12          6           0       -2.757296    1.516804    1.480125
     13          6           0       -2.401352    2.995487    1.323294
     14          1           0       -2.053379    0.909917   -0.464518
     15          1           0       -3.763569    1.327166   -0.416794
     16          1           0       -1.961087    1.001459    2.032473
     17          1           0       -3.670378    1.418069    2.081082
     18          1           0       -3.197517    3.529389    0.794455
     19          1           0       -1.478515    3.110412    0.745570
     20          1           0       -2.255975    3.478625    2.294532
     21          6           0        3.343671   -1.973544    1.219154
     22          6           0        1.979403   -1.899169    0.919547
     23          6           0        1.477070   -0.842327    0.154501
     24          6           0        2.371357    0.127181   -0.296711
     25          6           0        3.735812    0.080872   -0.014918
     26          6           0        4.215983   -0.985029    0.751790
     27          1           0        3.725287   -2.798043    1.814105
     28          1           0        1.299625   -2.665442    1.281173
     29          1           0        0.425491   -0.760228   -0.092192
     30          1           0        4.388909    0.859712   -0.389472
     31          1           0        5.275972   -1.040218    0.982923
     32          7           0        1.851290    1.250808   -1.107510
     33          8           0        2.659877    2.092298   -1.493152
     34          8           0        0.644924    1.268740   -1.342019
 ---------------------------------------------------------------------

 SCF Done:  E(RHF) =  -669.536302420     A.U. after   15 cycles
 E2 =    -0.2092057545D+01 EUMP2 =    -0.67162835996496D+03

 The electronic state is 1-A.
 Alpha  occ. eigenvalues --  -20.61003 -20.60989 -15.86032 -11.31320 -11.27883
 Alpha  occ. eigenvalues --  -11.27876 -11.27610 -11.26882 -11.26872 -11.21468
 Alpha  occ. eigenvalues --  -11.21250 -11.21135 -11.21104 -11.20726 -11.20369
 Alpha  occ. eigenvalues --   -1.60057  -1.39615  -1.19486  -1.08895  -1.08105
 Alpha  occ. eigenvalues --   -1.04879  -1.03202  -0.95746  -0.95645  -0.86657
 Alpha  occ. eigenvalues --   -0.86281  -0.82581  -0.79290  -0.77892  -0.77610
 Alpha  occ. eigenvalues --   -0.72259  -0.71367  -0.70596  -0.65152  -0.64937
 Alpha  occ. eigenvalues --   -0.64695  -0.62219  -0.60605  -0.59033  -0.57245
 Alpha  occ. eigenvalues --   -0.55385  -0.54940  -0.53211  -0.52967  -0.52358
 Alpha  occ. eigenvalues --   -0.52050  -0.49594  -0.49005  -0.48999  -0.47594
 Alpha  occ. eigenvalues --   -0.46351  -0.45454  -0.45341  -0.44908  -0.43447
 Alpha  occ. eigenvalues --   -0.37462  -0.36478
 Alpha virt. eigenvalues --    0.04871   0.11164   0.16365   0.19277   0.22735
 Alpha virt. eigenvalues --    0.24647   0.25932   0.27187   0.27898   0.28114
 Alpha virt. eigenvalues --    0.29594   0.31267   0.31724   0.31993   0.32449

 Mulliken charges:
               1
     1  C   -0.296870
     2  C   -0.301218
     3  C   -0.474310
     4  H    0.136888
     5  H    0.149131
     6  H    0.154475
     7  H    0.155009
     8  H    0.155544
     9  H    0.148429
    10  H    0.161001
    11  C   -0.313948
    12  C   -0.296861
    13  C   -0.479059
    14  H    0.176997
    15  H    0.149860
    16  H    0.144609
    17  H    0.148333
    18  H    0.154569
    19  H    0.168223
    20  H    0.155858
    21  C   -0.170332
    22  C   -0.219458
    23  C   -0.173462
    24  C    0.157685
    25  C   -0.170453
    26  C   -0.218682
    27  H    0.226227
    28  H    0.224234
    29  H    0.279927
    30  H    0.275868
    31  H    0.223974
    32  N    0.493423
    33  O   -0.458299
    34  O   -0.467316
 Sum of Mulliken charges =  -0.00000

 Dipole moment (field-independent basis, Debye):
    X=              1.9948    Y=             -3.8214    Z=              2.6889  Tot=              5.0805
 Quadrupole moment (field-independent basis, Debye-Ang):
   XX=            -80.9141   YY=            -96.8417   ZZ=            -97.4561
   XY=             -8.0554   XZ=              6.4649   YZ=              1.0200

 Normal termination of Gaussian 16 at Thu May  6 05:45:11 2021.
