 Gaussian 16, Revision A.03,
 Gaussian 16:  EM64L-G16RevA.03 25-Dec-2016

 -------------
 #p 6-31g* mp2
 -------------

 ------------------------------------------------------
 Input file generated by CHIRIPA (05-May-2021 14:57:24)
 ------------------------------------------------------
 Symbolic Z-matrix:
 Charge =  0 Multiplicity = 1

                         Standard orientation:
 ---------------------------------------------------------------------
 Center     Atomic      Atomic             Coordinates (Angstroms)
 Number     Number       Type             X           Y           Z
 ---------------------------------------------------------------------
      1          6           0        1.320913    2.407669   -0.167465
      2          6           0        0.944181    1.280289    0.569834
      3          6           0        1.801593    0.180948    0.673958
      4          6           0        3.033837    0.243161    0.025119
      5          6           0        3.437787    1.352036   -0.716845
      6          6           0        2.564322    2.439887   -0.807323
      7          1           0        0.648620    3.257201   -0.243051
      8          1           0       -0.020856    1.252483    1.067804
      9          1           0        1.535177   -0.704504    1.238243
     10          1           0        4.406210    1.350407   -1.202203
     11          1           0        2.859542    3.314097   -1.380601
     12          7           0        3.950038   -0.914580    0.128128
     13          8           0        5.030222   -0.834992   -0.452824
     14          8           0        3.570624   -1.879684    0.787868
     15          6           0       -4.054862    1.774899    0.328268
     16          6           0       -3.195900    1.280744    1.315444
     17          6           0       -2.541209    0.058018    1.139750
     18          6           0       -2.769529   -0.647516   -0.040666
     19          6           0       -3.619381   -0.181677   -1.042681
     20          6           0       -4.263493    1.043401   -0.845574
     21          1           0       -4.559334    2.725655    0.473068
     22          1           0       -3.031982    1.846681    2.228072
     23          1           0       -1.870975   -0.347923    1.887693
     24          1           0       -3.762846   -0.768515   -1.941823
     25          1           0       -4.930023    1.424718   -1.613936
     26          7           0       -2.082037   -1.943207   -0.237999
     27          8           0       -2.300019   -2.545633   -1.286905
     28          8           0       -1.338215   -2.331809    0.659975
 ---------------------------------------------------------------------

 SCF Done:  E(RHF) =  -868.336357031     A.U. after   16 cycles
 E2 =    -0.2602145372D+01 EUMP2 =    -0.87093850240360D+03

 The electronic state is 1-A.
 Alpha  occ. eigenvalues --  -20.61429 -20.61404 -20.60308 -20.60271 -15.86471
 Alpha  occ. eigenvalues --  -15.85350 -11.32048 -11.30831 -11.28700 -11.28577
 Alpha  occ. eigenvalues --  -11.28375 -11.27736 -11.27619 -11.27472 -11.27359
 Alpha  occ. eigenvalues --  -11.27286 -11.26525 -11.26453  -1.60476  -1.59367
 Alpha  occ. eigenvalues --   -1.40030  -1.38914  -1.20245  -1.19044  -1.09576
 Alpha  occ. eigenvalues --   -1.08433  -1.05694  -1.04467  -0.96385  -0.95235
 Alpha  occ. eigenvalues --   -0.87058  -0.85869  -0.83216  -0.82074  -0.78250
 Alpha  occ. eigenvalues --   -0.77076  -0.72677  -0.71803  -0.71568  -0.71333
 Alpha  occ. eigenvalues --   -0.70692  -0.70169  -0.65888  -0.65670  -0.64701
 Alpha  occ. eigenvalues --   -0.64533  -0.63029  -0.61786  -0.56130  -0.55032
 Alpha  occ. eigenvalues --   -0.54047  -0.53753  -0.52793  -0.52478  -0.49446
 Alpha  occ. eigenvalues --   -0.49427  -0.48346  -0.48307  -0.45385  -0.44293
 Alpha  occ. eigenvalues --   -0.38213  -0.37317  -0.37031  -0.36047
 Alpha virt. eigenvalues --    0.04235   0.05458   0.10268   0.11607   0.15625
 Alpha virt. eigenvalues --    0.16899   0.20017   0.21986   0.25569   0.27030
 Alpha virt. eigenvalues --    0.28285   0.28914   0.30396   0.31325   0.32161

 Mulliken charges:
               1
     1  C   -0.172990
     2  C   -0.222600
     3  C   -0.172874
     4  C    0.158397
     5  C   -0.170671
     6  C   -0.219065
     7  H    0.221034
     8  H    0.219330
     9  H    0.286380
    10  H    0.275077
    11  H    0.221236
    12  N    0.487864
    13  O   -0.462964
    14  O   -0.454993
    15  C   -0.171465
    16  C   -0.222252
    17  C   -0.182602
    18  C    0.164031
    19  C   -0.169784
    20  C   -0.217828
    21  H    0.227893
    22  H    0.224771
    23  H    0.274363
    24  H    0.279373
    25  H    0.226780
    26  N    0.488817
    27  O   -0.454375
    28  O   -0.460883
 Sum of Mulliken charges =  -0.00000

 Dipole moment (field-independent basis, Debye):
    X=             -5.8932    Y=              8.3643    Z=              0.1967  Tot=             10.2338
 Quadrupole moment (field-independent basis, Debye-Ang):
   XX=           -107.9811   YY=           -108.7505   ZZ=            -99.9858
   XY=              2.2463   XZ=             -2.4354   YZ=             -1.7222

 Normal termination of Gaussian 16 at Fri May  7 12:35:37 2021.
