 Gaussian 16, Revision A.03,
 Gaussian 16:  EM64L-G16RevA.03 25-Dec-2016

 -------------
 #p 6-31g* mp2
 -------------

 ------------------------------------------------------
 Input file generated by CHIRIPA (05-May-2021 14:53:13)
 ------------------------------------------------------
 Symbolic Z-matrix:
 Charge =  0 Multiplicity = 1

                         Standard orientation:
 ---------------------------------------------------------------------
 Center     Atomic      Atomic             Coordinates (Angstroms)
 Number     Number       Type             X           Y           Z
 ---------------------------------------------------------------------
      1          6           0        4.217766    0.790183   -0.425333
      2          6           0        2.759197    1.179807   -0.182938
      3          6           0        2.381284    2.501483   -0.852376
      4          1           0        4.871271    1.591198   -0.053511
      5          1           0        4.395890    0.718373   -1.507234
      6          1           0        2.583522    1.249510    0.898217
      7          1           0        2.109095    0.377685   -0.555207
      8          1           0        2.528402    2.440579   -1.935542
      9          1           0        3.005525    3.317357   -0.473860
     10          1           0        1.334414    2.760861   -0.666242
     11          6           0        4.610677   -0.528846    0.237622
     12          6           0        6.069246   -0.918469   -0.004773
     13          6           0        6.447159   -2.240146    0.664666
     14          1           0        4.432553   -0.457036    1.319523
     15          1           0        3.957173   -1.329861   -0.134200
     16          1           0        6.719349   -0.116348    0.367496
     17          1           0        6.244921   -0.988172   -1.085928
     18          1           0        5.822919   -3.056020    0.286149
     19          1           0        6.300042   -2.179242    1.747831
     20          1           0        7.494029   -2.499524    0.478531
     21          6           0       -1.180933    0.947401    0.422808
     22          6           0       -2.224086    1.221987    1.313288
     23          6           0       -3.484676    0.646090    1.129428
     24          6           0       -3.667841   -0.203546    0.039537
     25          6           0       -2.648447   -0.496633   -0.865020
     26          6           0       -1.396063    0.090478   -0.661591
     27          1           0       -0.204864    1.399128    0.573236
     28          1           0       -2.059897    1.887102    2.156323
     29          1           0       -4.309833    0.841450    1.803498
     30          1           0       -2.842501   -1.163686   -1.696165
     31          1           0       -0.587778   -0.124574   -1.354754
     32          7           0       -4.998028   -0.819158   -0.165464
     33          8           0       -5.133747   -1.564281   -1.133457
     34          8           0       -5.879720   -0.544895    0.645729
 ---------------------------------------------------------------------

 SCF Done:  E(RHF) =  -669.535242804     A.U. after   15 cycles
 E2 =    -0.2091824663D+01 EUMP2 =    -0.67162706746752D+03

 The electronic state is 1-A.
 Alpha  occ. eigenvalues --  -20.60716 -20.60710 -15.85769 -11.31122 -11.27694
 Alpha  occ. eigenvalues --  -11.27690 -11.27366 -11.26695 -11.26685 -11.22956
 Alpha  occ. eigenvalues --  -11.22375 -11.22367 -11.22233 -11.22151 -11.21580
 Alpha  occ. eigenvalues --   -1.59792  -1.39346  -1.19291  -1.09376  -1.08681
 Alpha  occ. eigenvalues --   -1.04697  -1.04486  -0.96909  -0.95518  -0.87913
 Alpha  occ. eigenvalues --   -0.86091  -0.82360  -0.80589  -0.79132  -0.77411
 Alpha  occ. eigenvalues --   -0.71987  -0.71115  -0.70424  -0.66005  -0.64941
 Alpha  occ. eigenvalues --   -0.64713  -0.62078  -0.61835  -0.60361  -0.58553
 Alpha  occ. eigenvalues --   -0.56153  -0.55132  -0.53601  -0.53295  -0.53004
 Alpha  occ. eigenvalues --   -0.52787  -0.50825  -0.48890  -0.48743  -0.48742
 Alpha  occ. eigenvalues --   -0.47616  -0.46672  -0.46560  -0.44754  -0.44718
 Alpha  occ. eigenvalues --   -0.37254  -0.36304
 Alpha virt. eigenvalues --    0.05110   0.11332   0.16554   0.19233   0.22391
 Alpha virt. eigenvalues --    0.23986   0.24744   0.26001   0.26507   0.27488
 Alpha virt. eigenvalues --    0.29426   0.29526   0.30725   0.31385   0.31588

 Mulliken charges:
               1
     1  C   -0.298280
     2  C   -0.306891
     3  C   -0.480952
     4  H    0.153073
     5  H    0.152217
     6  H    0.150926
     7  H    0.147785
     8  H    0.160762
     9  H    0.161746
    10  H    0.154763
    11  C   -0.299095
    12  C   -0.300484
    13  C   -0.476229
    14  H    0.150496
    15  H    0.149913
    16  H    0.153102
    17  H    0.153026
    18  H    0.156067
    19  H    0.155960
    20  H    0.162346
    21  C   -0.177395
    22  C   -0.220364
    23  C   -0.170635
    24  C    0.158275
    25  C   -0.170864
    26  C   -0.223322
    27  H    0.239037
    28  H    0.223439
    29  H    0.275274
    30  H    0.275306
    31  H    0.224246
    32  N    0.488030
    33  O   -0.460680
    34  O   -0.460600
 Sum of Mulliken charges =  -0.00000

 Dipole moment (field-independent basis, Debye):
    X=              4.9879    Y=              2.1762    Z=              0.7095  Tot=              5.4881
 Quadrupole moment (field-independent basis, Debye-Ang):
   XX=           -128.1729   YY=            -95.6437   ZZ=            -91.0581
   XY=             -9.2644   XZ=             -4.1213   YZ=              2.9583

 Normal termination of Gaussian 16 at Wed May  5 18:34:10 2021.
