 Gaussian 16, Revision A.03,
 Gaussian 16:  EM64L-G16RevA.03 25-Dec-2016

 -------------
 #p 6-31g* mp2
 -------------

 ------------------------------------------------------
 Input file generated by CHIRIPA (05-May-2021 14:53:18)
 ------------------------------------------------------
 Symbolic Z-matrix:
 Charge =  0 Multiplicity = 1

                         Standard orientation:
 ---------------------------------------------------------------------
 Center     Atomic      Atomic             Coordinates (Angstroms)
 Number     Number       Type             X           Y           Z
 ---------------------------------------------------------------------
      1          6           0       -4.343385   -0.571092   -0.381350
      2          6           0       -5.716351   -1.071099    0.069143
      3          6           0       -6.026023   -2.481480   -0.433573
      4          1           0       -4.295470   -0.589495   -1.478761
      5          1           0       -3.571896   -1.266685   -0.023091
      6          1           0       -6.484902   -0.374029   -0.288681
      7          1           0       -5.761071   -1.051323    1.165603
      8          1           0       -5.280877   -3.194007   -0.065248
      9          1           0       -6.008821   -2.512864   -1.527795
     10          1           0       -7.012217   -2.819086   -0.099953
     11          6           0       -4.019344    0.837449    0.113358
     12          6           0       -2.646378    1.337456   -0.337135
     13          6           0       -2.336706    2.747837    0.165581
     14          1           0       -4.790833    1.533043   -0.244902
     15          1           0       -4.067259    0.855852    1.210768
     16          1           0       -2.601659    1.317680   -1.433595
     17          1           0       -1.877827    0.640386    0.020688
     18          1           0       -2.353909    2.779222    1.259802
     19          1           0       -3.081853    3.460364   -0.202744
     20          1           0       -1.350512    3.085444   -0.168040
     21          6           0        1.078067    0.950094    0.786329
     22          6           0        1.824872    1.501689   -0.259877
     23          6           0        3.038939    0.925971   -0.646058
     24          6           0        3.478279   -0.205956    0.038785
     25          6           0        2.756982   -0.778867    1.085110
     26          6           0        1.545682   -0.186422    1.454306
     27          1           0        0.136025    1.403823    1.079726
     28          1           0        1.464172    2.384284   -0.780423
     29          1           0        3.637175    1.332401   -1.452500
     30          1           0        3.142425   -1.659082    1.585184
     31          1           0        0.967809   -0.616957    2.267169
     32          7           0        4.762094   -0.824299   -0.361056
     33          8           0        5.127303   -1.821189    0.258191
     34          8           0        5.378827   -0.300356   -1.286130
 ---------------------------------------------------------------------

 SCF Done:  E(RHF) =  -669.534905523     A.U. after   15 cycles
 E2 =    -0.2092186071D+01 EUMP2 =    -0.67162709159423D+03

 The electronic state is 1-A.
 Alpha  occ. eigenvalues --  -20.60734 -20.60729 -15.85789 -11.31148 -11.27724
 Alpha  occ. eigenvalues --  -11.27720 -11.27385 -11.26729 -11.26718 -11.22706
 Alpha  occ. eigenvalues --  -11.22443 -11.22265 -11.22171 -11.22060 -11.21527
 Alpha  occ. eigenvalues --   -1.59810  -1.39364  -1.19321  -1.09276  -1.08710
 Alpha  occ. eigenvalues --   -1.04726  -1.04412  -0.96872  -0.95544  -0.87874
 Alpha  occ. eigenvalues --   -0.86122  -0.82388  -0.80474  -0.79023  -0.77436
 Alpha  occ. eigenvalues --   -0.72006  -0.71134  -0.70484  -0.65904  -0.64973
 Alpha  occ. eigenvalues --   -0.64747  -0.62084  -0.61819  -0.60281  -0.58458
 Alpha  occ. eigenvalues --   -0.56238  -0.55036  -0.53566  -0.53269  -0.53054
 Alpha  occ. eigenvalues --   -0.52812  -0.50796  -0.48800  -0.48762  -0.48744
 Alpha  occ. eigenvalues --   -0.47504  -0.46568  -0.46467  -0.44771  -0.44639
 Alpha  occ. eigenvalues --   -0.37266  -0.36336
 Alpha virt. eigenvalues --    0.05072   0.11305   0.16471   0.19453   0.22490
 Alpha virt. eigenvalues --    0.24042   0.25148   0.25989   0.26676   0.27090
 Alpha virt. eigenvalues --    0.29185   0.30246   0.30825   0.31480   0.31946

 Mulliken charges:
               1
     1  C   -0.298777
     2  C   -0.300266
     3  C   -0.476132
     4  H    0.151964
     5  H    0.149414
     6  H    0.153118
     7  H    0.151881
     8  H    0.155685
     9  H    0.156495
    10  H    0.161952
    11  C   -0.298152
    12  C   -0.305506
    13  C   -0.483939
    14  H    0.152444
    15  H    0.148865
    16  H    0.157297
    17  H    0.149607
    18  H    0.154534
    19  H    0.165212
    20  H    0.152985
    21  C   -0.172996
    22  C   -0.222878
    23  C   -0.170732
    24  C    0.158314
    25  C   -0.170439
    26  C   -0.221725
    27  H    0.237332
    28  H    0.223601
    29  H    0.275497
    30  H    0.275361
    31  H    0.223068
    32  N    0.488042
    33  O   -0.460582
    34  O   -0.460543
 Sum of Mulliken charges =  -0.00000

 Dipole moment (field-independent basis, Debye):
    X=             -4.7624    Y=              2.1629    Z=              1.3506  Tot=              5.4021
 Quadrupole moment (field-independent basis, Debye-Ang):
   XX=           -126.0083   YY=            -94.3937   ZZ=            -91.9010
   XY=              8.4317   XZ=              4.7097   YZ=             -3.7749

 Normal termination of Gaussian 16 at Thu May  6 17:18:38 2021.
