 Gaussian 16, Revision A.03,
 Gaussian 16:  EM64L-G16RevA.03 25-Dec-2016

 -------------
 #p 6-31g* mp2
 -------------

 ------------------------------------------------------
 Input file generated by CHIRIPA (05-May-2021 14:55:19)
 ------------------------------------------------------
 Symbolic Z-matrix:
 Charge =  0 Multiplicity = 1

                         Standard orientation:
 ---------------------------------------------------------------------
 Center     Atomic      Atomic             Coordinates (Angstroms)
 Number     Number       Type             X           Y           Z
 ---------------------------------------------------------------------
      1          6           0        0.681030   -0.741225    0.337032
      2          6           0        1.089930    0.134017   -0.674538
      3          6           0        2.448610    0.377665   -0.896289
      4          6           0        3.375554   -0.273831   -0.084121
      5          6           0        2.999545   -1.151338    0.931698
      6          6           0        1.635459   -1.379982    1.135514
      7          1           0       -0.376525   -0.924669    0.502327
      8          1           0        0.350925    0.631480   -1.296187
      9          1           0        2.792863    1.050411   -1.672382
     10          1           0        3.759589   -1.632532    1.535191
     11          1           0        1.320805   -2.060214    1.921849
     12          7           0        4.816789   -0.023833   -0.309385
     13          8           0        5.613700   -0.610214    0.419812
     14          8           0        5.122228    0.753761   -1.210878
     15          6           0       -3.514916    0.940487   -0.147321
     16          6           0       -2.749226    1.542638    1.031287
     17          6           0       -1.749226    2.615934    0.600206
     18          1           0       -2.798427    0.510767   -0.860714
     19          1           0       -4.043728    1.742762   -0.680337
     20          1           0       -2.223130    0.739274    1.562743
     21          1           0       -3.467631    1.970805    1.742052
     22          1           0       -2.261943    3.437041    0.088830
     23          1           0       -1.010371    2.198513   -0.091497
     24          1           0       -1.212973    3.032890    1.458367
     25          6           0       -4.518419   -0.134002    0.267627
     26          6           0       -5.284109   -0.736153   -0.910982
     27          6           0       -6.284109   -1.809448   -0.479900
     28          1           0       -3.989607   -0.936277    0.800644
     29          1           0       -5.234909    0.295718    0.981021
     30          1           0       -4.565704   -1.164319   -1.621745
     31          1           0       -5.810205    0.067211   -1.442437
     32          1           0       -7.022964   -1.392028    0.211803
     33          1           0       -5.771392   -2.630556    0.031477
     34          1           0       -6.820362   -2.226405   -1.338061
 ---------------------------------------------------------------------

 SCF Done:  E(RHF) =  -669.534915460     A.U. after   15 cycles
 E2 =    -0.2092475866D+01 EUMP2 =    -0.67162739132610D+03

 The electronic state is 1-A.
 Alpha  occ. eigenvalues --  -20.60768 -20.60763 -15.85822 -11.31201 -11.27774
 Alpha  occ. eigenvalues --  -11.27769 -11.27514 -11.26789 -11.26778 -11.22644
 Alpha  occ. eigenvalues --  -11.22467 -11.22389 -11.22304 -11.21967 -11.21729
 Alpha  occ. eigenvalues --   -1.59843  -1.39396  -1.19378  -1.09401  -1.08769
 Alpha  occ. eigenvalues --   -1.04789  -1.04412  -0.96854  -0.95601  -0.87868
 Alpha  occ. eigenvalues --   -0.86186  -0.82437  -0.80481  -0.79206  -0.77482
 Alpha  occ. eigenvalues --   -0.72041  -0.71166  -0.70506  -0.66085  -0.65028
 Alpha  occ. eigenvalues --   -0.64802  -0.62218  -0.61728  -0.60212  -0.58459
 Alpha  occ. eigenvalues --   -0.56175  -0.55289  -0.53508  -0.53322  -0.53072
 Alpha  occ. eigenvalues --   -0.52860  -0.50782  -0.48827  -0.48794  -0.48756
 Alpha  occ. eigenvalues --   -0.47523  -0.46730  -0.46680  -0.44799  -0.44681
 Alpha  occ. eigenvalues --   -0.37340  -0.36371
 Alpha virt. eigenvalues --    0.05044   0.11144   0.16455   0.18107   0.22580
 Alpha virt. eigenvalues --    0.23958   0.24680   0.25253   0.26986   0.28243
 Alpha virt. eigenvalues --    0.29395   0.30275   0.30975   0.31675   0.31776

 Mulliken charges:
               1
     1  C   -0.172426
     2  C   -0.219197
     3  C   -0.171735
     4  C    0.158530
     5  C   -0.170527
     6  C   -0.219185
     7  H    0.229266
     8  H    0.224730
     9  H    0.275936
    10  H    0.275708
    11  H    0.223519
    12  N    0.488049
    13  O   -0.460393
    14  O   -0.460259
    15  C   -0.299717
    16  C   -0.302500
    17  C   -0.477180
    18  H    0.140723
    19  H    0.154832
    20  H    0.145837
    21  H    0.157689
    22  H    0.158460
    23  H    0.149565
    24  H    0.166096
    25  C   -0.297998
    26  C   -0.300139
    27  C   -0.476094
    28  H    0.144970
    29  H    0.153616
    30  H    0.150990
    31  H    0.154370
    32  H    0.156862
    33  H    0.154802
    34  H    0.162799
 Sum of Mulliken charges =  -0.00000

 Dipole moment (field-independent basis, Debye):
    X=             -5.2465    Y=             -0.8098    Z=              0.8290  Tot=              5.3729
 Quadrupole moment (field-independent basis, Debye-Ang):
   XX=           -128.4460   YY=            -92.6417   ZZ=            -92.4475
   XY=             -3.7273   XZ=              4.1128   YZ=             -2.5735

 Normal termination of Gaussian 16 at Thu May  6 06:06:24 2021.
