 Gaussian 16, Revision A.03,
 Gaussian 16:  EM64L-G16RevA.03 25-Dec-2016

 -------------
 #p 6-31g* mp2
 -------------

 ------------------------------------------------------
 Input file generated by CHIRIPA (05-May-2021 14:53:14)
 ------------------------------------------------------
 Symbolic Z-matrix:
 Charge =  0 Multiplicity = 1

                         Standard orientation:
 ---------------------------------------------------------------------
 Center     Atomic      Atomic             Coordinates (Angstroms)
 Number     Number       Type             X           Y           Z
 ---------------------------------------------------------------------
      1          6           0       -3.315939   -0.078735   -0.316904
      2          6           0       -4.676374   -0.570415    0.178530
      3          6           0       -4.904853   -2.056498   -0.099226
      4          1           0       -3.235512   -0.268114   -1.396076
      5          1           0       -2.523334   -0.668660    0.163888
      6          1           0       -5.466128    0.021185   -0.302006
      7          1           0       -4.753648   -0.379669    1.256612
      8          1           0       -4.138047   -2.662869    0.393646
      9          1           0       -4.854575   -2.259737   -1.173827
     10          1           0       -5.883348   -2.386835    0.263108
     11          6           0       -3.072794    1.404999   -0.046456
     12          6           0       -1.712360    1.896679   -0.541889
     13          6           0       -1.483880    3.382762   -0.264134
     14          1           0       -3.865399    1.994924   -0.527248
     15          1           0       -3.153221    1.594378    1.032716
     16          1           0       -1.635086    1.705933   -1.619971
     17          1           0       -0.922605    1.305079   -0.061354
     18          1           0       -1.534158    3.586001    0.810467
     19          1           0       -2.250686    3.989133   -0.757006
     20          1           0       -0.505386    3.713099   -0.626468
     21          6           0        0.268801   -1.629883    0.555662
     22          6           0        1.106776   -2.098253   -0.461661
     23          6           0        2.342794   -1.489913   -0.699843
     24          6           0        2.710878   -0.410586    0.101941
     25          6           0        1.898080    0.079143    1.123124
     26          6           0        0.666426   -0.544593    1.343419
     27          1           0       -0.689673   -2.108436    0.733740
     28          1           0        0.800572   -2.940922   -1.075008
     29          1           0        3.011025   -1.832146   -1.480716
     30          1           0        2.230686    0.921079    1.718047
     31          1           0        0.017687   -0.178716    2.134189
     32          7           0        4.017084    0.241586   -0.140745
     33          8           0        4.318263    1.190850    0.579551
     34          8           0        4.714978   -0.208855   -1.046661
 ---------------------------------------------------------------------

 SCF Done:  E(RHF) =  -669.534116815     A.U. after   15 cycles
 E2 =    -0.2094141425D+01 EUMP2 =    -0.67162825823985D+03

 The electronic state is 1-A.
 Alpha  occ. eigenvalues --  -20.60816 -20.60811 -15.85871 -11.31266 -11.27843
 Alpha  occ. eigenvalues --  -11.27830 -11.27565 -11.26858 -11.26838 -11.22355
 Alpha  occ. eigenvalues --  -11.22180 -11.21965 -11.21905 -11.21842 -11.21349
 Alpha  occ. eigenvalues --   -1.59891  -1.39444  -1.19451  -1.09092  -1.08824
 Alpha  occ. eigenvalues --   -1.04863  -1.04098  -0.96578  -0.95666  -0.87588
 Alpha  occ. eigenvalues --   -0.86254  -0.82502  -0.80175  -0.78889  -0.77535
 Alpha  occ. eigenvalues --   -0.72089  -0.71214  -0.70575  -0.65776  -0.65096
 Alpha  occ. eigenvalues --   -0.64823  -0.62204  -0.61516  -0.59947  -0.58175
 Alpha  occ. eigenvalues --   -0.55944  -0.55331  -0.53345  -0.53124  -0.52985
 Alpha  occ. eigenvalues --   -0.52937  -0.50532  -0.48853  -0.48842  -0.48477
 Alpha  occ. eigenvalues --   -0.47228  -0.46396  -0.46338  -0.44842  -0.44367
 Alpha  occ. eigenvalues --   -0.37347  -0.36392
 Alpha virt. eigenvalues --    0.04959   0.11111   0.16332   0.19562   0.22987
 Alpha virt. eigenvalues --    0.23225   0.25604   0.26496   0.27132   0.27740
 Alpha virt. eigenvalues --    0.29705   0.30132   0.31196   0.31628   0.32159

 Mulliken charges:
               1
     1  C   -0.300119
     2  C   -0.299950
     3  C   -0.474998
     4  H    0.152263
     5  H    0.140011
     6  H    0.155831
     7  H    0.151406
     8  H    0.147363
     9  H    0.156970
    10  H    0.163907
    11  C   -0.298151
    12  C   -0.309054
    13  C   -0.476070
    14  H    0.152264
    15  H    0.146053
    16  H    0.152925
    17  H    0.159866
    18  H    0.152058
    19  H    0.156109
    20  H    0.164421
    21  C   -0.166613
    22  C   -0.219280
    23  C   -0.170498
    24  C    0.159041
    25  C   -0.170106
    26  C   -0.221758
    27  H    0.227151
    28  H    0.224302
    29  H    0.276008
    30  H    0.276292
    31  H    0.224636
    32  N    0.488059
    33  O   -0.460186
    34  O   -0.460154
 Sum of Mulliken charges =  -0.00000

 Dipole moment (field-independent basis, Debye):
    X=             -4.5797    Y=             -2.2861    Z=              0.7823  Tot=              5.1780
 Quadrupole moment (field-independent basis, Debye-Ang):
   XX=           -119.8939   YY=            -92.3063   ZZ=            -91.3204
   XY=             -5.4965   XZ=              1.6145   YZ=              1.8174

 Normal termination of Gaussian 16 at Thu May  6 08:58:23 2021.
