 Gaussian 16, Revision A.03,
 Gaussian 16:  EM64L-G16RevA.03 25-Dec-2016

 -------------
 #p 6-31g* mp2
 -------------

 ------------------------------------------------------
 Input file generated by CHIRIPA (05-May-2021 14:55:21)
 ------------------------------------------------------
 Symbolic Z-matrix:
 Charge =  0 Multiplicity = 1

                         Standard orientation:
 ---------------------------------------------------------------------
 Center     Atomic      Atomic             Coordinates (Angstroms)
 Number     Number       Type             X           Y           Z
 ---------------------------------------------------------------------
      1          6           0        2.579447    2.098172   -0.014742
      2          6           0        1.861101    0.898273    0.012484
      3          6           0        2.529633   -0.329572    0.015426
      4          6           0        3.923402   -0.320515   -0.009425
      5          6           0        4.667293    0.858114   -0.036848
      6          6           0        3.977785    2.074305   -0.039278
      7          1           0        2.051968    3.047466   -0.016829
      8          1           0        0.775080    0.913772    0.031576
      9          1           0        1.998383   -1.273371    0.036242
     10          1           0        5.749337    0.810662   -0.055484
     11          1           0        4.538270    3.004603   -0.060449
     12          7           0        4.642250   -1.614211   -0.006581
     13          8           0        5.870630   -1.579214   -0.028810
     14          8           0        3.963691   -2.638710    0.017822
     15          6           0       -5.479238   -0.135960   -0.358740
     16          6           0       -6.337051   -1.074108    0.490978
     17          6           0       -7.551502   -1.612673   -0.265892
     18          1           0       -6.098132    0.702676   -0.706021
     19          1           0       -5.144258   -0.670726   -1.258300
     20          1           0       -6.669171   -0.538158    1.389349
     21          1           0       -5.715996   -1.910507    0.836435
     22          1           0       -7.235934   -2.170992   -1.153190
     23          1           0       -8.194525   -0.790846   -0.597135
     24          1           0       -8.150712   -2.281111    0.360205
     25          6           0       -4.261375    0.410642    0.384068
     26          6           0       -3.403562    1.348791   -0.465650
     27          6           0       -2.189112    1.887355    0.291221
     28          1           0       -4.596355    0.945408    1.283628
     29          1           0       -3.642481   -0.427994    0.731348
     30          1           0       -4.024619    2.185190   -0.811107
     31          1           0       -3.071442    0.812841   -1.364021
     32          1           0       -1.546088    1.065528    0.622462
     33          1           0       -2.504679    2.445675    1.178519
     34          1           0       -1.589901    2.555793   -0.334876
 ---------------------------------------------------------------------

 SCF Done:  E(RHF) =  -669.535541420     A.U. after   15 cycles
 E2 =    -0.2090865530D+01 EUMP2 =    -0.67162640694975D+03

 The electronic state is 1-A.
 Alpha  occ. eigenvalues --  -20.60713 -20.60708 -15.85765 -11.31113 -11.27680
 Alpha  occ. eigenvalues --  -11.27666 -11.27406 -11.26696 -11.26620 -11.22462
 Alpha  occ. eigenvalues --  -11.22297 -11.22038 -11.21982 -11.21859 -11.21369
 Alpha  occ. eigenvalues --   -1.59789  -1.39343  -1.19279  -1.09049  -1.08676
 Alpha  occ. eigenvalues --   -1.04679  -1.04196  -0.96672  -0.95516  -0.87702
 Alpha  occ. eigenvalues --   -0.86073  -0.82350  -0.80271  -0.78810  -0.77400
 Alpha  occ. eigenvalues --   -0.71984  -0.71111  -0.70389  -0.65692  -0.64929
 Alpha  occ. eigenvalues --   -0.64696  -0.62095  -0.61537  -0.60068  -0.58247
 Alpha  occ. eigenvalues --   -0.55986  -0.55167  -0.53424  -0.53115  -0.53007
 Alpha  occ. eigenvalues --   -0.52714  -0.50581  -0.48742  -0.48740  -0.48570
 Alpha  occ. eigenvalues --   -0.47274  -0.46365  -0.46256  -0.44752  -0.44432
 Alpha  occ. eigenvalues --   -0.37259  -0.36282
 Alpha virt. eigenvalues --    0.05131   0.11360   0.16626   0.20134   0.22512
 Alpha virt. eigenvalues --    0.23810   0.25650   0.26344   0.26830   0.27697
 Alpha virt. eigenvalues --    0.29008   0.29808   0.31079   0.31543   0.32408

 Mulliken charges:
               1
     1  C   -0.173568
     2  C   -0.226186
     3  C   -0.173450
     4  C    0.158953
     5  C   -0.171469
     6  C   -0.218437
     7  H    0.225827
     8  H    0.235914
     9  H    0.275133
    10  H    0.275255
    11  H    0.223019
    12  N    0.488080
    13  O   -0.460701
    14  O   -0.460735
    15  C   -0.298960
    16  C   -0.300236
    17  C   -0.476107
    18  H    0.150528
    19  H    0.150649
    20  H    0.152454
    21  H    0.152999
    22  H    0.156023
    23  H    0.155483
    24  H    0.161749
    25  C   -0.299250
    26  C   -0.299624
    27  C   -0.482454
    28  H    0.151018
    29  H    0.150222
    30  H    0.155403
    31  H    0.153496
    32  H    0.151352
    33  H    0.161250
    34  H    0.156370
 Sum of Mulliken charges =  -0.00000

 Dipole moment (field-independent basis, Debye):
    X=             -2.8026    Y=              4.5765    Z=             -0.0056  Tot=              5.3665
 Quadrupole moment (field-independent basis, Debye-Ang):
   XX=           -110.6141   YY=            -96.5210   ZZ=            -95.7306
   XY=             20.4027   XZ=             -0.6912   YZ=             -0.0020

 Normal termination of Gaussian 16 at Thu May  6 20:44:21 2021.
