 Gaussian 16, Revision A.03,
 Gaussian 16:  EM64L-G16RevA.03 25-Dec-2016

 -------------
 #p 6-31g* mp2
 -------------

 ------------------------------------------------------
 Input file generated by CHIRIPA (05-May-2021 14:53:16)
 ------------------------------------------------------
 Symbolic Z-matrix:
 Charge =  0 Multiplicity = 1

                         Standard orientation:
 ---------------------------------------------------------------------
 Center     Atomic      Atomic             Coordinates (Angstroms)
 Number     Number       Type             X           Y           Z
 ---------------------------------------------------------------------
      1          6           0        3.819046    1.019394   -0.265344
      2          6           0        2.476453    1.743145   -0.157582
      3          6           0        2.595316    3.248384   -0.398249
      4          1           0        4.521642    1.453629    0.459048
      5          1           0        4.245999    1.199777   -1.261621
      6          1           0        2.051508    1.560312    0.837712
      7          1           0        1.776913    1.307008   -0.882182
      8          1           0        2.995967    3.448325   -1.397300
      9          1           0        3.272121    3.703068    0.332366
     10          1           0        1.623936    3.745968   -0.316444
     11          6           0        3.716533   -0.486106   -0.027248
     12          6           0        5.059126   -1.209857   -0.135011
     13          6           0        4.940263   -2.715096    0.105657
     14          1           0        3.289579   -0.666489    0.969029
     15          1           0        3.013937   -0.920341   -0.751641
     16          1           0        5.758665   -0.773721    0.589589
     17          1           0        5.484071   -1.027025   -1.130304
     18          1           0        4.263457   -3.169780   -0.624958
     19          1           0        4.539612   -2.915037    1.104708
     20          1           0        5.911642   -3.212680    0.023852
     21          6           0       -5.315476   -0.334860   -0.736613
     22          6           0       -4.246569   -0.585568   -1.603277
     23          6           0       -2.928269   -0.518283   -1.142729
     24          6           0       -2.714280   -0.196082    0.196557
     25          6           0       -3.758115    0.059014    1.084601
     26          6           0       -5.068273   -0.013936    0.602200
     27          1           0       -6.336402   -0.389328   -1.102866
     28          1           0       -4.435562   -0.835029   -2.643515
     29          1           0       -2.082101   -0.707689   -1.791993
     30          1           0       -3.538234    0.305295    2.116307
     31          1           0       -5.896445    0.181258    1.277533
     32          7           0       -1.322964   -0.121853    0.695686
     33          8           0       -1.161020    0.164030    1.880035
     34          8           0       -0.420739   -0.350959   -0.106897
 ---------------------------------------------------------------------

 SCF Done:  E(RHF) =  -669.535905887     A.U. after   15 cycles
 E2 =    -0.2091517570D+01 EUMP2 =    -0.67162742345641D+03

 The electronic state is 1-A.
 Alpha  occ. eigenvalues --  -20.60957 -20.60946 -15.85980 -11.31309 -11.27874
 Alpha  occ. eigenvalues --  -11.27868 -11.27608 -11.26880 -11.26870 -11.20538
 Alpha  occ. eigenvalues --  -11.20167 -11.20046 -11.19932 -11.19891 -11.19820
 Alpha  occ. eigenvalues --   -1.60007  -1.39565  -1.19476  -1.08879  -1.07081
 Alpha  occ. eigenvalues --   -1.04874  -1.02276  -0.95721  -0.94782  -0.86274
 Alpha  occ. eigenvalues --   -0.85803  -0.82558  -0.78309  -0.77610  -0.76820
 Alpha  occ. eigenvalues --   -0.72196  -0.71319  -0.70585  -0.65133  -0.64876
 Alpha  occ. eigenvalues --   -0.63726  -0.62222  -0.59685  -0.58149  -0.56365
 Alpha  occ. eigenvalues --   -0.55377  -0.54093  -0.53205  -0.52966  -0.51521
 Alpha  occ. eigenvalues --   -0.51194  -0.49002  -0.48958  -0.48743  -0.46627
 Alpha  occ. eigenvalues --   -0.45380  -0.44968  -0.44309  -0.44220  -0.42512
 Alpha  occ. eigenvalues --   -0.37454  -0.36475
 Alpha virt. eigenvalues --    0.04905   0.11180   0.16389   0.21306   0.24119
 Alpha virt. eigenvalues --    0.25449   0.27230   0.27875   0.28197   0.28889
 Alpha virt. eigenvalues --    0.29192   0.30900   0.32342   0.32606   0.32970

 Mulliken charges:
               1
     1  C   -0.299076
     2  C   -0.300703
     3  C   -0.475399
     4  H    0.144265
     5  H    0.142566
     6  H    0.163227
     7  H    0.163092
     8  H    0.148886
     9  H    0.150891
    10  H    0.155843
    11  C   -0.296456
    12  C   -0.299062
    13  C   -0.474407
    14  H    0.155768
    15  H    0.154660
    16  H    0.148862
    17  H    0.147680
    18  H    0.153927
    19  H    0.155700
    20  H    0.155698
    21  C   -0.170610
    22  C   -0.218500
    23  C   -0.170742
    24  C    0.158228
    25  C   -0.170693
    26  C   -0.218540
    27  H    0.226040
    28  H    0.223826
    29  H    0.275312
    30  H    0.275850
    31  H    0.223866
    32  N    0.489811
    33  O   -0.460024
    34  O   -0.459785
 Sum of Mulliken charges =  -0.00000

 Dipole moment (field-independent basis, Debye):
    X=             -5.2863    Y=             -0.3797    Z=             -1.6781  Tot=              5.5592
 Quadrupole moment (field-independent basis, Debye-Ang):
   XX=            -69.6764   YY=            -97.3802   ZZ=            -90.4397
   XY=              1.1035   XZ=              2.5842   YZ=              2.0429

 Normal termination of Gaussian 16 at Thu May  6 12:14:21 2021.
