 Gaussian 16, Revision A.03,
 Gaussian 16:  EM64L-G16RevA.03 25-Dec-2016

 -------------
 #p 6-31g* mp2
 -------------

 ------------------------------------------------------
 Input file generated by CHIRIPA (05-May-2021 14:51:07)
 ------------------------------------------------------
 Symbolic Z-matrix:
 Charge =  0 Multiplicity = 1

                         Standard orientation:
 ---------------------------------------------------------------------
 Center     Atomic      Atomic             Coordinates (Angstroms)
 Number     Number       Type             X           Y           Z
 ---------------------------------------------------------------------
      1          6           0       -3.846683    0.786577    0.102674
      2          6           0       -5.169266    1.489486   -0.205026
      3          6           0       -5.130483    2.985533    0.108236
      4          1           0       -3.598120    0.934399    1.162537
      5          1           0       -3.043128    1.262635   -0.476172
      6          1           0       -5.970317    1.011350    0.373178
      7          1           0       -5.414807    1.339811   -1.264235
      8          1           0       -4.351274    3.482027   -0.479070
      9          1           0       -4.909941    3.151700    1.167647
     10          1           0       -6.086084    3.468220   -0.119137
     11          6           0       -3.869788   -0.709537   -0.205282
     12          6           0       -2.547205   -1.412446    0.102417
     13          6           0       -2.585989   -2.908493   -0.210844
     14          1           0       -4.673343   -1.185595    0.373564
     15          1           0       -4.118352   -0.857359   -1.265145
     16          1           0       -2.301665   -1.262772    1.161626
     17          1           0       -1.746154   -0.934310   -0.475786
     18          1           0       -2.806530   -3.074660   -1.270255
     19          1           0       -3.365197   -3.404988    0.376462
     20          1           0       -1.630387   -3.391180    0.016529
     21          6           0        3.189372   -0.184845    0.389893
     22          6           0        2.455209   -1.384093   -0.210770
     23          6           0        1.118784   -1.664244    0.477183
     24          1           0        3.357095   -0.364418    1.460672
     25          1           0        2.546110    0.703167    0.318881
     26          1           0        3.100210   -2.269285   -0.139897
     27          1           0        2.289384   -1.201728   -1.280284
     28          1           0        0.454020   -0.798291    0.394635
     29          1           0        1.269454   -1.871914    1.541501
     30          1           0        0.610879   -2.525498    0.032057
     31          6           0        4.527099    0.107805   -0.287284
     32          6           0        5.261262    1.307053    0.313377
     33          6           0        6.597688    1.587205   -0.374574
     34          1           0        5.170362   -0.780207   -0.216273
     35          1           0        4.359376    0.287378   -1.358064
     36          1           0        5.427087    1.124687    1.382892
     37          1           0        4.616261    2.192245    0.242506
     38          1           0        6.447017    1.794875   -1.438892
     39          1           0        7.262452    0.721251   -0.292026
     40          1           0        7.105593    2.448457    0.070550
 ---------------------------------------------------------------------

 SCF Done:  E(RHF) =  -470.731978136     A.U. after   11 cycles
 E2 =    -0.1583404853D+01 EUMP2 =    -0.47231538298942D+03

 The electronic state is 1-A.
 Alpha  occ. eigenvalues --  -11.21595 -11.21588 -11.21567 -11.21486 -11.21393
 Alpha  occ. eigenvalues --  -11.21373 -11.21333 -11.21300 -11.21067 -11.21065
 Alpha  occ. eigenvalues --  -11.20999 -11.20965  -1.08426  -1.08382  -1.03565
 Alpha  occ. eigenvalues --   -1.03437  -0.96040  -0.95869  -0.86996  -0.86953
 Alpha  occ. eigenvalues --   -0.79696  -0.79458  -0.78273  -0.78153  -0.65081
 Alpha  occ. eigenvalues --   -0.64995  -0.61020  -0.60802  -0.59647  -0.59085
 Alpha  occ. eigenvalues --   -0.57672  -0.57458  -0.55305  -0.55170  -0.52913
 Alpha  occ. eigenvalues --   -0.52517  -0.52428  -0.52144  -0.50007  -0.49830
 Alpha  occ. eigenvalues --   -0.48097  -0.47662  -0.46736  -0.46467  -0.45847
 Alpha  occ. eigenvalues --   -0.45734  -0.45683  -0.45491  -0.43822  -0.43656
 Alpha virt. eigenvalues --    0.22028   0.23071   0.23500   0.24919   0.26219
 Alpha virt. eigenvalues --    0.26722   0.26893   0.27025   0.27768   0.29137
 Alpha virt. eigenvalues --    0.30052   0.31073   0.31425   0.31784   0.32472

 Mulliken charges:
               1
     1  C   -0.298178
     2  C   -0.299529
     3  C   -0.475679
     4  H    0.149593
     5  H    0.148621
     6  H    0.152013
     7  H    0.151882
     8  H    0.154980
     9  H    0.155168
    10  H    0.160224
    11  C   -0.298082
    12  C   -0.300304
    13  C   -0.479450
    14  H    0.149134
    15  H    0.149148
    16  H    0.152496
    17  H    0.155079
    18  H    0.154423
    19  H    0.154968
    20  H    0.163306
    21  C   -0.298655
    22  C   -0.299871
    23  C   -0.480999
    24  H    0.149617
    25  H    0.149442
    26  H    0.151518
    27  H    0.151334
    28  H    0.160274
    29  H    0.154270
    30  H    0.163342
    31  C   -0.298170
    32  C   -0.299605
    33  C   -0.475685
    34  H    0.149529
    35  H    0.149497
    36  H    0.151934
    37  H    0.151878
    38  H    0.155128
    39  H    0.155178
    40  H    0.160231
 Sum of Mulliken charges =  -0.00000

 Dipole moment (field-independent basis, Debye):
    X=              0.0013    Y=             -0.0039    Z=              0.0115  Tot=              0.0122
 Quadrupole moment (field-independent basis, Debye-Ang):
   XX=            -85.7075   YY=            -85.7256   ZZ=            -83.6178
   XY=             -0.4094   XZ=              0.3914   YZ=             -0.6869

 Normal termination of Gaussian 16 at Wed May  5 15:01:15 2021.
