 Gaussian 16, Revision A.03,
 Gaussian 16:  EM64L-G16RevA.03 25-Dec-2016

 -------------
 #p 6-31g* mp2
 -------------

 ------------------------------------------------------
 Input file generated by CHIRIPA (05-May-2021 14:51:12)
 ------------------------------------------------------
 Symbolic Z-matrix:
 Charge =  0 Multiplicity = 1

                         Standard orientation:
 ---------------------------------------------------------------------
 Center     Atomic      Atomic             Coordinates (Angstroms)
 Number     Number       Type             X           Y           Z
 ---------------------------------------------------------------------
      1          6           0       -2.878355    1.096379    0.361068
      2          6           0       -2.807479    2.394494   -0.443829
      3          6           0       -1.967753    3.471385    0.243893
      4          1           0       -3.296250    1.310592    1.354256
      5          1           0       -1.859570    0.718929    0.525396
      6          1           0       -3.826176    2.768650   -0.607777
      7          1           0       -2.389882    2.177133   -1.435284
      8          1           0       -0.940956    3.122195    0.393417
      9          1           0       -2.385411    3.717073    1.225626
     10          1           0       -1.930520    4.390794   -0.348694
     11          6           0       -3.714333    0.010176   -0.313492
     12          6           0       -3.785209   -1.287939    0.491405
     13          6           0       -4.624935   -2.364829   -0.196316
     14          1           0       -4.733118    0.387626   -0.477820
     15          1           0       -3.296438   -0.204037   -1.306679
     16          1           0       -4.202806   -1.070578    1.482861
     17          1           0       -2.766512   -1.662095    0.655354
     18          1           0       -4.207277   -2.610518   -1.178049
     19          1           0       -5.651732   -2.015640   -0.345840
     20          1           0       -4.662168   -3.284239    0.396271
     21          6           0        4.047125   -0.594148    0.110706
     22          6           0        4.790748    0.704794   -0.201963
     23          6           0        6.291795    0.607331    0.072177
     24          1           0        4.212492   -0.859465    1.163894
     25          1           0        4.478054   -1.408443   -0.488141
     26          1           0        4.357634    1.516671    0.396272
     27          1           0        4.623434    0.967151   -1.254479
     28          1           0        6.743832   -0.183300   -0.535414
     29          1           0        6.476521    0.369342    1.124717
     30          1           0        6.803797    1.546836   -0.158134
     31          6           0        2.545562   -0.512408   -0.158283
     32          6           0        1.801940   -1.811349    0.154386
     33          6           0        0.300893   -1.713886   -0.119754
     34          1           0        2.114633    0.301888    0.440564
     35          1           0        2.380196   -0.247091   -1.211471
     36          1           0        1.969253   -2.073706    1.206903
     37          1           0        2.235054   -2.623225   -0.443848
     38          1           0        0.116167   -1.475897   -1.172293
     39          1           0       -0.151143   -0.923255    0.487837
     40          1           0       -0.211109   -2.653392    0.110557
 ---------------------------------------------------------------------

 SCF Done:  E(RHF) =  -470.732935961     A.U. after   11 cycles
 E2 =    -0.1583441598D+01 EUMP2 =    -0.47231637755951D+03

 The electronic state is 1-A.
 Alpha  occ. eigenvalues --  -11.21680 -11.21636 -11.21552 -11.21469 -11.21463
 Alpha  occ. eigenvalues --  -11.21404 -11.21319 -11.21259 -11.21176 -11.21097
 Alpha  occ. eigenvalues --  -11.21046 -11.20991  -1.08494  -1.08350  -1.03597
 Alpha  occ. eigenvalues --   -1.03455  -0.96055  -0.95911  -0.87076  -0.86928
 Alpha  occ. eigenvalues --   -0.79678  -0.79516  -0.78324  -0.78146  -0.65155
 Alpha  occ. eigenvalues --   -0.64965  -0.60994  -0.60866  -0.59425  -0.59269
 Alpha  occ. eigenvalues --   -0.57696  -0.57499  -0.55393  -0.55163  -0.52767
 Alpha  occ. eigenvalues --   -0.52615  -0.52483  -0.52317  -0.50037  -0.49837
 Alpha  occ. eigenvalues --   -0.48015  -0.47834  -0.46768  -0.46550  -0.45954
 Alpha  occ. eigenvalues --   -0.45793  -0.45687  -0.45329  -0.43828  -0.43707
 Alpha virt. eigenvalues --    0.21161   0.22953   0.23996   0.24351   0.25535
 Alpha virt. eigenvalues --    0.26572   0.27284   0.27467   0.27841   0.29559
 Alpha virt. eigenvalues --    0.30186   0.31438   0.31717   0.31917   0.32267

 Mulliken charges:
               1
     1  C   -0.305107
     2  C   -0.299040
     3  C   -0.475658
     4  H    0.149059
     5  H    0.155704
     6  H    0.151772
     7  H    0.151944
     8  H    0.154701
     9  H    0.154973
    10  H    0.160178
    11  C   -0.297133
    12  C   -0.306097
    13  C   -0.475476
    14  H    0.149012
    15  H    0.149703
    16  H    0.150867
    17  H    0.160062
    18  H    0.155052
    19  H    0.154747
    20  H    0.159600
    21  C   -0.298346
    22  C   -0.299729
    23  C   -0.475753
    24  H    0.149869
    25  H    0.149714
    26  H    0.152086
    27  H    0.151991
    28  H    0.155221
    29  H    0.155274
    30  H    0.160430
    31  C   -0.298506
    32  C   -0.299894
    33  C   -0.482617
    34  H    0.149059
    35  H    0.149676
    36  H    0.152433
    37  H    0.152276
    38  H    0.155264
    39  H    0.161267
    40  H    0.161419
 Sum of Mulliken charges =  -0.00000

 Dipole moment (field-independent basis, Debye):
    X=              0.0609    Y=             -0.0220    Z=             -0.0015  Tot=              0.0647
 Quadrupole moment (field-independent basis, Debye-Ang):
   XX=            -85.7931   YY=            -85.3951   ZZ=            -83.7822
   XY=             -0.9598   XZ=             -0.9101   YZ=              0.1264

 Normal termination of Gaussian 16 at Wed May  5 21:32:16 2021.
