 Gaussian 16, Revision A.03,
 Gaussian 16:  EM64L-G16RevA.03 25-Dec-2016

 -------------
 #p 6-31g* mp2
 -------------

 ------------------------------------------------------
 Input file generated by CHIRIPA (05-May-2021 14:55:19)
 ------------------------------------------------------
 Symbolic Z-matrix:
 Charge =  0 Multiplicity = 1

                         Standard orientation:
 ---------------------------------------------------------------------
 Center     Atomic      Atomic             Coordinates (Angstroms)
 Number     Number       Type             X           Y           Z
 ---------------------------------------------------------------------
      1          6           0       -2.101490    2.893059    0.267121
      2          6           0       -1.796310    2.043245    1.335392
      3          6           0       -1.991566    0.663449    1.223202
      4          6           0       -2.495894    0.165222    0.022906
      5          6           0       -2.809507    0.986057   -1.059299
      6          6           0       -2.606225    2.362687   -0.924714
      7          1           0       -1.946694    3.963688    0.362971
      8          1           0       -1.404192    2.452346    2.262174
      9          1           0       -1.763734   -0.017261    2.034463
     10          1           0       -3.198977    0.548818   -1.970646
     11          1           0       -2.844116    3.020272   -1.755999
     12          7           0       -2.706851   -1.293831   -0.107719
     13          8           0       -3.152358   -1.707926   -1.175748
     14          8           0       -2.422698   -1.995714    0.860400
     15          6           0        3.864311   -0.249389   -0.083220
     16          6           0        3.933055    1.274376   -0.189976
     17          6           0        5.368211    1.799205   -0.241697
     18          1           0        4.407011   -0.572472    0.815691
     19          1           0        4.387637   -0.694067   -0.941000
     20          1           0        3.408562    1.716048    0.667023
     21          1           0        3.389966    1.593884   -1.088634
     22          1           0        5.898587    1.386039   -1.105755
     23          1           0        5.917289    1.508898    0.659877
     24          1           0        5.394019    2.890711   -0.317921
     25          6           0        2.436172   -0.789180   -0.030532
     26          6           0        2.367428   -2.312945    0.076225
     27          6           0        0.932271   -2.837776    0.127946
     28          1           0        1.912846   -0.344504    0.827249
     29          1           0        1.893472   -0.466097   -0.929442
     30          1           0        2.910517   -2.632453    0.974883
     31          1           0        2.891921   -2.754619   -0.780774
     32          1           0        0.383194   -2.547468   -0.773628
     33          1           0        0.401895   -2.424610    0.992004
     34          1           0        0.906464   -3.929282    0.204170
 ---------------------------------------------------------------------

 SCF Done:  E(RHF) =  -669.535825975     A.U. after   15 cycles
 E2 =    -0.2092017849D+01 EUMP2 =    -0.67162784382408D+03

 The electronic state is 1-A.
 Alpha  occ. eigenvalues --  -20.60840 -20.60821 -15.85855 -11.31218 -11.27793
 Alpha  occ. eigenvalues --  -11.27782 -11.27525 -11.26803 -11.26793 -11.21664
 Alpha  occ. eigenvalues --  -11.21294 -11.21174 -11.21156 -11.21073 -11.20137
 Alpha  occ. eigenvalues --   -1.59887  -1.39445  -1.19387  -1.08784  -1.08242
 Alpha  occ. eigenvalues --   -1.04792  -1.03251  -0.95683  -0.95609  -0.86677
 Alpha  occ. eigenvalues --   -0.86191  -0.82460  -0.79336  -0.78042  -0.77505
 Alpha  occ. eigenvalues --   -0.72088  -0.71198  -0.70500  -0.65047  -0.64883
 Alpha  occ. eigenvalues --   -0.64796  -0.62144  -0.60650  -0.59098  -0.57283
 Alpha  occ. eigenvalues --   -0.55294  -0.54954  -0.53121  -0.52888  -0.52334
 Alpha  occ. eigenvalues --   -0.52087  -0.49629  -0.48845  -0.48842  -0.47653
 Alpha  occ. eigenvalues --   -0.46404  -0.45630  -0.45509  -0.44670  -0.43509
 Alpha  occ. eigenvalues --   -0.37361  -0.36390
 Alpha virt. eigenvalues --    0.04998   0.11235   0.16473   0.21271   0.22979
 Alpha virt. eigenvalues --    0.24444   0.26509   0.27216   0.27619   0.27924
 Alpha virt. eigenvalues --    0.28684   0.30730   0.31481   0.31919   0.32372

 Mulliken charges:
               1
     1  C   -0.170456
     2  C   -0.218261
     3  C   -0.170535
     4  C    0.159236
     5  C   -0.171194
     6  C   -0.218432
     7  H    0.225763
     8  H    0.223429
     9  H    0.275043
    10  H    0.275537
    11  H    0.223515
    12  N    0.488812
    13  O   -0.460205
    14  O   -0.457943
    15  C   -0.297818
    16  C   -0.298566
    17  C   -0.475424
    18  H    0.149317
    19  H    0.150250
    20  H    0.148286
    21  H    0.150907
    22  H    0.156048
    23  H    0.155331
    24  H    0.158284
    25  C   -0.296677
    26  C   -0.301398
    27  C   -0.475347
    28  H    0.144269
    29  H    0.148607
    30  H    0.149464
    31  H    0.150328
    32  H    0.154524
    33  H    0.162932
    34  H    0.162374
 Sum of Mulliken charges =  -0.00000

 Dipole moment (field-independent basis, Debye):
    X=              0.5870    Y=              5.0626    Z=              0.4643  Tot=              5.1176
 Quadrupole moment (field-independent basis, Debye-Ang):
   XX=           -100.0456   YY=            -93.6163   ZZ=            -89.4409
   XY=            -13.5770   XZ=              0.7155   YZ=             -0.4753

 Normal termination of Gaussian 16 at Wed May  5 20:29:09 2021.
