 Gaussian 16, Revision A.03,
 Gaussian 16:  EM64L-G16RevA.03 25-Dec-2016

 -------------
 #p 6-31g* mp2
 -------------

 ------------------------------------------------------
 Input file generated by CHIRIPA (05-May-2021 14:55:18)
 ------------------------------------------------------
 Symbolic Z-matrix:
 Charge =  0 Multiplicity = 1

                         Standard orientation:
 ---------------------------------------------------------------------
 Center     Atomic      Atomic             Coordinates (Angstroms)
 Number     Number       Type             X           Y           Z
 ---------------------------------------------------------------------
      1          6           0       -1.586477    2.125962    1.087182
      2          6           0       -1.037817    0.866940    0.821928
      3          6           0       -1.805594   -0.127107    0.207976
      4          6           0       -3.124495    0.173493   -0.128818
      5          6           0       -3.699678    1.418221    0.122393
      6          6           0       -2.913317    2.397106    0.737185
      7          1           0       -0.982831    2.892272    1.564441
      8          1           0       -0.007659    0.653550    1.092639
      9          1           0       -1.406023   -1.110328   -0.008906
     10          1           0       -4.729575    1.601262   -0.159079
     11          1           0       -3.342052    3.373984    0.941976
     12          7           0       -3.947143   -0.870834   -0.779226
     13          8           0       -5.106576   -0.580950   -1.066136
     14          8           0       -3.416923   -1.959488   -0.989790
     15          6           0        4.551866   -0.218013   -0.049335
     16          6           0        4.715518    1.008240   -0.947948
     17          6           0        6.173667    1.445017   -1.092249
     18          1           0        4.969583    0.003617    0.942298
     19          1           0        5.144908   -1.046797   -0.460205
     20          1           0        4.121244    1.834055   -0.536264
     21          1           0        4.297190    0.783731   -1.937499
     22          1           0        6.776142    0.639486   -1.524387
     23          1           0        6.599196    1.695777   -0.115189
     24          1           0        6.267620    2.323169   -1.738688
     25          6           0        3.099750   -0.666750    0.104689
     26          6           0        2.936098   -1.893004    1.003302
     27          6           0        1.477949   -2.329780    1.147603
     28          1           0        2.506708    0.162034    0.515558
     29          1           0        2.682032   -0.888380   -0.886945
     30          1           0        3.354426   -1.668494    1.992854
     31          1           0        3.530373   -2.718818    0.591618
     32          1           0        1.052420   -2.580541    0.170544
     33          1           0        0.875473   -1.524249    1.579741
     34          1           0        1.383997   -3.207932    1.794042
 ---------------------------------------------------------------------

 SCF Done:  E(RHF) =  -669.535158940     A.U. after   15 cycles
 E2 =    -0.2092149355D+01 EUMP2 =    -0.67162730829488D+03

 The electronic state is 1-A.
 Alpha  occ. eigenvalues --  -20.60693 -20.60688 -15.85745 -11.31090 -11.27678
 Alpha  occ. eigenvalues --  -11.27624 -11.27418 -11.26690 -11.26635 -11.22367
 Alpha  occ. eigenvalues --  -11.22237 -11.22164 -11.22012 -11.21971 -11.21527
 Alpha  occ. eigenvalues --   -1.59768  -1.39322  -1.19268  -1.09151  -1.08670
 Alpha  occ. eigenvalues --   -1.04675  -1.04212  -0.96682  -0.95505  -0.87699
 Alpha  occ. eigenvalues --   -0.86072  -0.82349  -0.80289  -0.78972  -0.77375
 Alpha  occ. eigenvalues --   -0.71965  -0.71091  -0.70383  -0.65818  -0.64923
 Alpha  occ. eigenvalues --   -0.64673  -0.62117  -0.61544  -0.60021  -0.58275
 Alpha  occ. eigenvalues --   -0.55988  -0.55186  -0.53342  -0.53137  -0.52976
 Alpha  occ. eigenvalues --   -0.52763  -0.50626  -0.48742  -0.48720  -0.48568
 Alpha  occ. eigenvalues --   -0.47299  -0.46486  -0.46406  -0.44732  -0.44468
 Alpha  occ. eigenvalues --   -0.37258  -0.36264
 Alpha virt. eigenvalues --    0.05134   0.11363   0.16573   0.19449   0.22580
 Alpha virt. eigenvalues --    0.23754   0.24740   0.25735   0.26782   0.28474
 Alpha virt. eigenvalues --    0.29054   0.30027   0.31315   0.31471   0.31762

 Mulliken charges:
               1
     1  C   -0.171874
     2  C   -0.226827
     3  C   -0.175121
     4  C    0.158494
     5  C   -0.170677
     6  C   -0.218799
     7  H    0.225245
     8  H    0.232358
     9  H    0.280233
    10  H    0.275255
    11  H    0.222975
    12  N    0.488056
    13  O   -0.460898
    14  O   -0.460484
    15  C   -0.298489
    16  C   -0.299840
    17  C   -0.476153
    18  H    0.150243
    19  H    0.153043
    20  H    0.149177
    21  H    0.154174
    22  H    0.156969
    23  H    0.155352
    24  H    0.161656
    25  C   -0.301602
    26  C   -0.300636
    27  C   -0.483667
    28  H    0.141077
    29  H    0.153671
    30  H    0.153392
    31  H    0.157345
    32  H    0.160015
    33  H    0.147700
    34  H    0.168636
 Sum of Mulliken charges =  -0.00000

 Dipole moment (field-independent basis, Debye):
    X=              3.1255    Y=              3.5509    Z=              2.2458  Tot=              5.2366
 Quadrupole moment (field-independent basis, Debye-Ang):
   XX=           -110.4216   YY=            -91.2874   ZZ=            -95.5361
   XY=            -14.6961   XZ=             -7.4257   YZ=              0.3340

 Normal termination of Gaussian 16 at Thu May  6 15:42:08 2021.
