 Gaussian 16, Revision A.03,
 Gaussian 16:  EM64L-G16RevA.03 25-Dec-2016

 -------------
 #p 6-31g* mp2
 -------------

 ------------------------------------------------------
 Input file generated by CHIRIPA (05-May-2021 14:57:24)
 ------------------------------------------------------
 Symbolic Z-matrix:
 Charge =  0 Multiplicity = 1

                         Standard orientation:
 ---------------------------------------------------------------------
 Center     Atomic      Atomic             Coordinates (Angstroms)
 Number     Number       Type             X           Y           Z
 ---------------------------------------------------------------------
      1          6           0       -6.809409    0.904009    0.351953
      2          6           0       -6.708439   -0.446558    0.002245
      3          6           0       -5.457742   -1.031763   -0.216482
      4          6           0       -4.323607   -0.233417   -0.076230
      5          6           0       -4.391497    1.114938    0.271073
      6          6           0       -5.652655    1.679080    0.485017
      7          1           0       -7.785044    1.350428    0.520008
      8          1           0       -7.605090   -1.050905   -0.101803
      9          1           0       -5.350712   -2.074898   -0.488202
     10          1           0       -3.479770    1.691922    0.367311
     11          1           0       -5.728045    2.728202    0.756501
     12          7           0       -2.994013   -0.841798   -0.305254
     13          8           0       -2.009951   -0.116960   -0.175374
     14          8           0       -2.961115   -2.031965   -0.610307
     15          6           0        2.070966    0.634122   -0.034178
     16          6           0        2.521805   -0.595751    0.456410
     17          6           0        3.889051   -0.884143    0.501333
     18          6           0        4.781702    0.084716    0.045508
     19          6           0        4.363560    1.319244   -0.448849
     20          6           0        2.991659    1.586017   -0.484448
     21          1           0        1.007048    0.849755   -0.065454
     22          1           0        1.809063   -1.336897    0.806762
     23          1           0        4.265464   -1.828174    0.876213
     24          1           0        5.098088    2.038112   -0.791071
     25          1           0        2.644402    2.542000   -0.865960
     26          7           0        6.231608   -0.209148    0.088131
     27          8           0        6.997747    0.661256   -0.319383
     28          8           0        6.574452   -1.304317    0.528244
 ---------------------------------------------------------------------

 SCF Done:  E(RHF) =  -868.340271981     A.U. after   16 cycles
 E2 =    -0.2597997453D+01 EUMP2 =    -0.87093826943408D+03

 The electronic state is 1-A.
 Alpha  occ. eigenvalues --  -20.61866 -20.61813 -20.60040 -20.60032 -15.86882
 Alpha  occ. eigenvalues --  -15.85087 -11.31971 -11.30253 -11.28529 -11.28483
 Alpha  occ. eigenvalues --  -11.28184 -11.27462 -11.27436 -11.26849 -11.26783
 Alpha  occ. eigenvalues --  -11.26314 -11.25773 -11.25629  -1.60902  -1.59120
 Alpha  occ. eigenvalues --   -1.40466  -1.38679  -1.20114  -1.18393  -1.09556
 Alpha  occ. eigenvalues --   -1.07783  -1.05477  -1.03776  -0.96440  -0.94657
 Alpha  occ. eigenvalues --   -0.86887  -0.85156  -0.83288  -0.81511  -0.78365
 Alpha  occ. eigenvalues --   -0.76621  -0.73127  -0.72201  -0.71308  -0.71217
 Alpha  occ. eigenvalues --   -0.70442  -0.69383  -0.65771  -0.65474  -0.64024
 Alpha  occ. eigenvalues --   -0.63749  -0.62830  -0.61135  -0.55979  -0.54120
 Alpha  occ. eigenvalues --   -0.53817  -0.53564  -0.52112  -0.51845  -0.49884
 Alpha  occ. eigenvalues --   -0.49827  -0.48075  -0.48045  -0.45930  -0.44130
 Alpha  occ. eigenvalues --   -0.38071  -0.37067  -0.36306  -0.35402
 Alpha virt. eigenvalues --    0.04161   0.05918   0.10592   0.12270   0.15715
 Alpha virt. eigenvalues --    0.17483   0.20730   0.22550   0.26680   0.27503
 Alpha virt. eigenvalues --    0.28341   0.29376   0.30402   0.31649   0.32372

 Mulliken charges:
               1
     1  C   -0.169757
     2  C   -0.218421
     3  C   -0.170135
     4  C    0.157699
     5  C   -0.170244
     6  C   -0.218305
     7  H    0.228230
     8  H    0.226007
     9  H    0.276975
    10  H    0.272488
    11  H    0.225158
    12  N    0.493570
    13  O   -0.475476
    14  O   -0.455834
    15  C   -0.176038
    16  C   -0.220754
    17  C   -0.172382
    18  C    0.157087
    19  C   -0.172058
    20  C   -0.220447
    21  H    0.245201
    22  H    0.230658
    23  H    0.273144
    24  H    0.271873
    25  H    0.219420
    26  N    0.488296
    27  O   -0.463503
    28  O   -0.462451
 Sum of Mulliken charges =  -0.00000

 Dipole moment (field-independent basis, Debye):
    X=            -10.4576    Y=              3.0881    Z=              0.6704  Tot=             10.9246
 Quadrupole moment (field-independent basis, Debye-Ang):
   XX=           -113.2717   YY=            -97.9471   ZZ=           -105.6450
   XY=             -0.7190   XZ=             -4.0613   YZ=             -1.2267

 Normal termination of Gaussian 16 at Thu May  6 19:39:19 2021.
