 Gaussian 16, Revision A.03,
 Gaussian 16:  EM64L-G16RevA.03 25-Dec-2016

 -------------
 #p 6-31g* mp2
 -------------

 ------------------------------------------------------
 Input file generated by CHIRIPA (05-May-2021 14:57:25)
 ------------------------------------------------------
 Symbolic Z-matrix:
 Charge =  0 Multiplicity = 1

                         Standard orientation:
 ---------------------------------------------------------------------
 Center     Atomic      Atomic             Coordinates (Angstroms)
 Number     Number       Type             X           Y           Z
 ---------------------------------------------------------------------
      1          6           0       -2.373535    2.478408   -0.065870
      2          6           0       -3.355254    1.995299    0.805539
      3          6           0       -3.802368    0.674188    0.709087
      4          6           0       -3.243551   -0.139925   -0.274902
      5          6           0       -2.264032    0.312074   -1.157812
      6          6           0       -1.832012    1.636738   -1.043042
      7          1           0       -2.032068    3.506059    0.016171
      8          1           0       -3.777591    2.646689    1.565387
      9          1           0       -4.561139    0.274297    1.370730
     10          1           0       -1.861820   -0.361106   -1.905122
     11          1           0       -1.069466    2.009213   -1.721150
     12          7           0       -3.708901   -1.540406   -0.386707
     13          8           0       -3.200716   -2.237511   -1.262167
     14          8           0       -4.573017   -1.914480    0.403236
     15          6           0        1.499788   -0.127285    2.150011
     16          6           0        1.129259    0.381460    0.900849
     17          6           0        2.044702    0.406567   -0.155504
     18          6           0        3.328022   -0.087374    0.073415
     19          6           0        3.727288   -0.600612    1.306485
     20          6           0        2.795336   -0.615837    2.348493
     21          1           0        0.782237   -0.142950    2.965041
     22          1           0        0.123810    0.761540    0.743824
     23          1           0        1.784410    0.794804   -1.132712
     24          1           0        4.736846   -0.972494    1.432642
     25          1           0        3.085877   -1.011523    3.317546
     26          7           0        4.305899   -0.066026   -1.037306
     27          8           0        5.430361   -0.507098   -0.809984
     28          8           0        3.929380    0.391375   -2.114179
 ---------------------------------------------------------------------

 SCF Done:  E(RHF) =  -868.337128346     A.U. after   16 cycles
 E2 =    -0.2601737016D+01 EUMP2 =    -0.87093886536204D+03

 The electronic state is 1-A.
 Alpha  occ. eigenvalues --  -20.61497 -20.61484 -20.60961 -20.60946 -15.86556
 Alpha  occ. eigenvalues --  -15.86007 -11.32153 -11.31360 -11.28747 -11.28744
 Alpha  occ. eigenvalues --  -11.28527 -11.27947 -11.27873 -11.27797 -11.27774
 Alpha  occ. eigenvalues --  -11.27582 -11.26892 -11.26758  -1.60566  -1.60030
 Alpha  occ. eigenvalues --   -1.40111  -1.39586  -1.20384  -1.19498  -1.09716
 Alpha  occ. eigenvalues --   -1.08888  -1.05810  -1.04894  -0.96494  -0.95742
 Alpha  occ. eigenvalues --   -0.87162  -0.86294  -0.83318  -0.82574  -0.78328
 Alpha  occ. eigenvalues --   -0.77639  -0.72762  -0.72226  -0.71900  -0.71409
 Alpha  occ. eigenvalues --   -0.71350  -0.70621  -0.65994  -0.65757  -0.65145
 Alpha  occ. eigenvalues --   -0.64923  -0.63106  -0.62291  -0.56237  -0.55426
 Alpha  occ. eigenvalues --   -0.54279  -0.53840  -0.53225  -0.52766  -0.49543
 Alpha  occ. eigenvalues --   -0.49506  -0.48990  -0.48971  -0.45464  -0.44996
 Alpha  occ. eigenvalues --   -0.38383  -0.37495  -0.37392  -0.36474
 Alpha virt. eigenvalues --    0.04175   0.04902   0.10123   0.11181   0.15555
 Alpha virt. eigenvalues --    0.16430   0.19791   0.21737   0.25044   0.27490
 Alpha virt. eigenvalues --    0.27845   0.28577   0.30153   0.31311   0.31658

 Mulliken charges:
               1
     1  C   -0.173424
     2  C   -0.219695
     3  C   -0.171592
     4  C    0.159187
     5  C   -0.171085
     6  C   -0.235687
     7  H    0.230805
     8  H    0.227107
     9  H    0.278674
    10  H    0.281580
    11  H    0.228906
    12  N    0.487950
    13  O   -0.456112
    14  O   -0.458699
    15  C   -0.172669
    16  C   -0.225421
    17  C   -0.176269
    18  C    0.160153
    19  C   -0.171340
    20  C   -0.217439
    21  H    0.226171
    22  H    0.235667
    23  H    0.266347
    24  H    0.276117
    25  H    0.224203
    26  N    0.488319
    27  O   -0.458946
    28  O   -0.462803
 Sum of Mulliken charges =  -0.00000

 Dipole moment (field-independent basis, Debye):
    X=             -2.0895    Y=              4.7974    Z=              4.3331  Tot=              6.7939
 Quadrupole moment (field-independent basis, Debye-Ang):
   XX=           -134.0811   YY=           -106.2532   ZZ=           -100.3222
   XY=            -18.6681   XZ=             10.8885   YZ=             -2.5226

 Normal termination of Gaussian 16 at Fri May  7 01:57:16 2021.
