 Gaussian 16, Revision A.03,
 Gaussian 16:  EM64L-G16RevA.03 25-Dec-2016

 -------------
 #p 6-31g* mp2
 -------------

 ------------------------------------------------------
 Input file generated by CHIRIPA (05-May-2021 14:51:11)
 ------------------------------------------------------
 Symbolic Z-matrix:
 Charge =  0 Multiplicity = 1

                         Standard orientation:
 ---------------------------------------------------------------------
 Center     Atomic      Atomic             Coordinates (Angstroms)
 Number     Number       Type             X           Y           Z
 ---------------------------------------------------------------------
      1          6           0        3.176577   -0.620291   -0.538839
      2          6           0        1.909979   -1.342718   -0.999070
      3          6           0        2.187103   -2.760267   -1.500619
      4          1           0        3.892644   -0.582835   -1.371180
      5          1           0        3.654795   -1.205505    0.258799
      6          1           0        1.433548   -0.755618   -1.794647
      7          1           0        1.196769   -1.378290   -0.165594
      8          1           0        2.641219   -3.366652   -0.710254
      9          1           0        2.879344   -2.740442   -2.348564
     10          1           0        1.267966   -3.258351   -1.824596
     11          6           0        2.915777    0.797981   -0.034641
     12          6           0        4.182376    1.520408    0.425589
     13          6           0        3.905252    2.937957    0.927139
     14          1           0        2.437559    1.383195   -0.832279
     15          1           0        2.199710    0.760525    0.797700
     16          1           0        4.895586    1.555980   -0.407886
     17          1           0        4.658806    0.933308    1.221167
     18          1           0        3.213010    2.918132    1.775083
     19          1           0        3.451135    3.544342    0.136774
     20          1           0        4.824388    3.436041    1.251116
     21          6           0       -3.096176    0.532758   -0.154327
     22          6           0       -4.523742    1.061496   -0.297427
     23          6           0       -4.607500    2.305300   -1.182713
     24          1           0       -2.458692    1.324636    0.262195
     25          1           0       -2.696461    0.301824   -1.151469
     26          1           0       -4.921138    1.290060    0.699795
     27          1           0       -5.157942    0.268207   -0.713477
     28          1           0       -4.236469    2.087329   -2.189403
     29          1           0       -3.998320    3.114988   -0.768100
     30          1           0       -5.636869    2.666417   -1.271337
     31          6           0       -2.996179   -0.710449    0.727807
     32          6           0       -1.568612   -1.239187    0.870907
     33          6           0       -1.484854   -2.482990    1.756193
     34          1           0       -3.395894   -0.479515    1.724949
     35          1           0       -3.633662   -1.502326    0.311286
     36          1           0       -0.934412   -0.445897    1.286958
     37          1           0       -1.171216   -1.467751   -0.126315
     38          1           0       -2.094035   -3.292679    1.341581
     39          1           0       -1.855885   -2.265019    2.762883
     40          1           0       -0.455485   -2.844107    1.844817
 ---------------------------------------------------------------------

 SCF Done:  E(RHF) =  -470.732795559     A.U. after   11 cycles
 E2 =    -0.1583377623D+01 EUMP2 =    -0.47231617318208D+03

 The electronic state is 1-A.
 Alpha  occ. eigenvalues --  -11.21599 -11.21590 -11.21589 -11.21488 -11.21402
 Alpha  occ. eigenvalues --  -11.21377 -11.21342 -11.21313 -11.21111 -11.21069
 Alpha  occ. eigenvalues --  -11.21068 -11.21050  -1.08450  -1.08385  -1.03578
 Alpha  occ. eigenvalues --   -1.03471  -0.96000  -0.95951  -0.87010  -0.86969
 Alpha  occ. eigenvalues --   -0.79758  -0.79456  -0.78364  -0.78079  -0.65075
 Alpha  occ. eigenvalues --   -0.65029  -0.61005  -0.60874  -0.59471  -0.59220
 Alpha  occ. eigenvalues --   -0.57686  -0.57480  -0.55288  -0.55229  -0.52695
 Alpha  occ. eigenvalues --   -0.52644  -0.52417  -0.52381  -0.49948  -0.49888
 Alpha  occ. eigenvalues --   -0.48183  -0.47722  -0.46713  -0.46519  -0.46023
 Alpha  occ. eigenvalues --   -0.45740  -0.45674  -0.45331  -0.43794  -0.43743
 Alpha virt. eigenvalues --    0.21345   0.23094   0.23492   0.24682   0.25630
 Alpha virt. eigenvalues --    0.26409   0.26789   0.27707   0.27969   0.29139
 Alpha virt. eigenvalues --    0.30619   0.30925   0.31640   0.31690   0.32330

 Mulliken charges:
               1
     1  C   -0.297693
     2  C   -0.309016
     3  C   -0.475844
     4  H    0.149241
     5  H    0.148978
     6  H    0.150757
     7  H    0.164792
     8  H    0.154798
     9  H    0.155110
    10  H    0.159619
    11  C   -0.298644
    12  C   -0.299615
    13  C   -0.475657
    14  H    0.149669
    15  H    0.149514
    16  H    0.152020
    17  H    0.151843
    18  H    0.154896
    19  H    0.155202
    20  H    0.160232
    21  C   -0.298307
    22  C   -0.299664
    23  C   -0.475691
    24  H    0.149878
    25  H    0.149589
    26  H    0.151906
    27  H    0.151879
    28  H    0.155117
    29  H    0.155248
    30  H    0.160235
    31  C   -0.297507
    32  C   -0.304593
    33  C   -0.477536
    34  H    0.149261
    35  H    0.149545
    36  H    0.151631
    37  H    0.157213
    38  H    0.155627
    39  H    0.155460
    40  H    0.160508
 Sum of Mulliken charges =  -0.00000

 Dipole moment (field-independent basis, Debye):
    X=             -0.0257    Y=              0.0005    Z=              0.0027  Tot=              0.0258
 Quadrupole moment (field-independent basis, Debye-Ang):
   XX=            -84.9443   YY=            -86.2514   ZZ=            -83.7783
   XY=              0.4182   XZ=             -0.0970   YZ=              0.2691

 Normal termination of Gaussian 16 at Thu May  6 00:40:40 2021.
