 Gaussian 16, Revision A.03,
 Gaussian 16:  EM64L-G16RevA.03 25-Dec-2016

 -------------
 #p 6-31g* mp2
 -------------

 ------------------------------------------------------
 Input file generated by CHIRIPA (05-May-2021 14:53:13)
 ------------------------------------------------------
 Symbolic Z-matrix:
 Charge =  0 Multiplicity = 1

                         Standard orientation:
 ---------------------------------------------------------------------
 Center     Atomic      Atomic             Coordinates (Angstroms)
 Number     Number       Type             X           Y           Z
 ---------------------------------------------------------------------
      1          6           0       -2.336824    1.203518   -0.461384
      2          6           0       -2.273969    2.510036    0.330478
      3          6           0       -1.286247    3.514541   -0.263802
      4          1           0       -1.334172    0.756007   -0.498385
      5          1           0       -2.618527    1.425571   -1.500003
      6          1           0       -1.993817    2.285443    1.367633
      7          1           0       -3.276924    2.954391    0.365762
      8          1           0       -1.565682    3.767593   -1.291655
      9          1           0       -0.275285    3.094844   -0.284091
     10          1           0       -1.257263    4.441220    0.317822
     11          6           0       -3.319898    0.189207    0.120396
     12          6           0       -3.382752   -1.117310   -0.671465
     13          6           0       -4.370474   -2.121815   -0.077186
     14          1           0       -3.038194   -0.032846    1.159016
     15          1           0       -4.322549    0.636719    0.157398
     16          1           0       -2.379797   -1.561666   -0.706749
     17          1           0       -3.662904   -0.892718   -1.708620
     18          1           0       -5.381436   -1.702119   -0.056896
     19          1           0       -4.091039   -2.374868    0.950667
     20          1           0       -4.399458   -3.048494   -0.658809
     21          6           0        0.424112   -2.288445    0.500326
     22          6           0        1.591170   -2.617326   -0.197052
     23          6           0        2.587169   -1.658828   -0.406374
     24          6           0        2.382277   -0.375390    0.097706
     25          6           0        1.230502   -0.017021    0.796474
     26          6           0        0.247814   -0.991628    0.993993
     27          1           0       -0.344434   -3.039286    0.658347
     28          1           0        1.730789   -3.623654   -0.581571
     29          1           0        3.500366   -1.886352   -0.942772
     30          1           0        1.119820    0.994529    1.167867
     31          1           0       -0.657521   -0.733375    1.535951
     32          7           0        3.429651    0.647856   -0.117646
     33          8           0        3.225079    1.771480    0.336508
     34          8           0        4.435320    0.306875   -0.736515
 ---------------------------------------------------------------------

 SCF Done:  E(RHF) =  -669.533976445     A.U. after   15 cycles
 E2 =    -0.2095518675D+01 EUMP2 =    -0.67162949512015D+03

 The electronic state is 1-A.
 Alpha  occ. eigenvalues --  -20.60862 -20.60856 -15.85911 -11.31314 -11.27857
 Alpha  occ. eigenvalues --  -11.27851 -11.27590 -11.26890 -11.26860 -11.22350
 Alpha  occ. eigenvalues --  -11.22166 -11.22054 -11.21885 -11.21775 -11.21232
 Alpha  occ. eigenvalues --   -1.59932  -1.39485  -1.19487  -1.09101  -1.08845
 Alpha  occ. eigenvalues --   -1.04894  -1.04111  -0.96542  -0.95699  -0.87545
 Alpha  occ. eigenvalues --   -0.86283  -0.82537  -0.80177  -0.78857  -0.77581
 Alpha  occ. eigenvalues --   -0.72128  -0.71254  -0.70585  -0.65999  -0.65138
 Alpha  occ. eigenvalues --   -0.64730  -0.62173  -0.61513  -0.59918  -0.58136
 Alpha  occ. eigenvalues --   -0.55911  -0.55350  -0.53308  -0.53160  -0.53015
 Alpha  occ. eigenvalues --   -0.52826  -0.50496  -0.48889  -0.48883  -0.48476
 Alpha  occ. eigenvalues --   -0.47256  -0.46378  -0.46331  -0.44877  -0.44350
 Alpha  occ. eigenvalues --   -0.37427  -0.36373
 Alpha virt. eigenvalues --    0.04885   0.11009   0.16268   0.18691   0.22533
 Alpha virt. eigenvalues --    0.23680   0.25132   0.26104   0.27489   0.28106
 Alpha virt. eigenvalues --    0.29888   0.30911   0.31206   0.31351   0.31996

 Mulliken charges:
               1
     1  C   -0.308946
     2  C   -0.300704
     3  C   -0.478915
     4  H    0.157852
     5  H    0.153390
     6  H    0.143780
     7  H    0.154282
     8  H    0.157608
     9  H    0.160854
    10  H    0.163367
    11  C   -0.300155
    12  C   -0.305101
    13  C   -0.476046
    14  H    0.139053
    15  H    0.154686
    16  H    0.150460
    17  H    0.156871
    18  H    0.159497
    19  H    0.149799
    20  H    0.160906
    21  C   -0.173039
    22  C   -0.218797
    23  C   -0.171093
    24  C    0.159041
    25  C   -0.175051
    26  C   -0.219939
    27  H    0.227443
    28  H    0.224263
    29  H    0.276075
    30  H    0.279016
    31  H    0.231527
    32  N    0.488181
    33  O   -0.460527
    34  O   -0.459637
 Sum of Mulliken charges =  -0.00000

 Dipole moment (field-independent basis, Debye):
    X=             -3.6358    Y=             -3.5462    Z=              0.6320  Tot=              5.1181
 Quadrupole moment (field-independent basis, Debye-Ang):
   XX=           -111.0019   YY=            -90.3120   ZZ=            -93.8341
   XY=            -10.4114   XZ=              0.8726   YZ=              1.1920

 Normal termination of Gaussian 16 at Thu May  6 18:41:53 2021.
