 Gaussian 16, Revision A.03,
 Gaussian 16:  EM64L-G16RevA.03 25-Dec-2016

 -------------
 #p 6-31g* mp2
 -------------

 ------------------------------------------------------
 Input file generated by CHIRIPA (05-May-2021 14:53:16)
 ------------------------------------------------------
 Symbolic Z-matrix:
 Charge =  0 Multiplicity = 1

                         Standard orientation:
 ---------------------------------------------------------------------
 Center     Atomic      Atomic             Coordinates (Angstroms)
 Number     Number       Type             X           Y           Z
 ---------------------------------------------------------------------
      1          6           0        3.713575    0.521294    0.552781
      2          6           0        3.059642    1.796014    0.018510
      3          6           0        1.812776    2.196265    0.807762
      4          1           0        2.981912   -0.297768    0.525347
      5          1           0        3.978593    0.668429    1.608959
      6          1           0        2.797192    1.647001   -1.036730
      7          1           0        3.793005    2.612091    0.047040
      8          1           0        2.062320    2.372030    1.859159
      9          1           0        1.060849    1.401456    0.769232
     10          1           0        1.361314    3.110018    0.408892
     11          6           0        4.961293    0.108317   -0.225922
     12          6           0        5.615225   -1.166404    0.308349
     13          6           0        6.862091   -1.566654   -0.480903
     14          1           0        4.696275   -0.038818   -1.282100
     15          1           0        5.692955    0.927379   -0.198488
     16          1           0        4.881863   -1.982481    0.279819
     17          1           0        5.877676   -1.017390    1.363589
     18          1           0        7.614019   -0.771845   -0.442373
     19          1           0        6.612548   -1.742419   -1.532300
     20          1           0        7.313553   -2.480407   -0.082033
     21          6           0       -5.878555   -0.278250    0.278648
     22          6           0       -5.270637    0.864340   -0.251864
     23          6           0       -3.891822    0.893476   -0.481143
     24          6           0       -3.147903   -0.242818   -0.166962
     25          6           0       -3.724407   -1.396246    0.362697
     26          6           0       -5.104864   -1.402915    0.583697
     27          1           0       -6.950290   -0.292158    0.453541
     28          1           0       -5.869005    1.739227   -0.489717
     29          1           0       -3.395445    1.764765   -0.890879
     30          1           0       -3.101680   -2.253013    0.589809
     31          1           0       -5.574283   -2.291656    0.995800
     32          7           0       -1.687344   -0.223866   -0.405307
     33          8           0       -1.054105   -1.237912   -0.120076
     34          8           0       -1.203452    0.804676   -0.872839
 ---------------------------------------------------------------------

 SCF Done:  E(RHF) =  -669.536356293     A.U. after   15 cycles
 E2 =    -0.2091038866D+01 EUMP2 =    -0.67162739515912D+03

 The electronic state is 1-A.
 Alpha  occ. eigenvalues --  -20.61016 -20.60996 -15.86026 -11.31325 -11.27884
 Alpha  occ. eigenvalues --  -11.27880 -11.27618 -11.26885 -11.26875 -11.20730
 Alpha  occ. eigenvalues --  -11.20357 -11.20349 -11.20194 -11.20077 -11.19405
 Alpha  occ. eigenvalues --   -1.60065  -1.39620  -1.19490  -1.08900  -1.07280
 Alpha  occ. eigenvalues --   -1.04881  -1.02357  -0.95746  -0.94806  -0.86283
 Alpha  occ. eigenvalues --   -0.85830  -0.82578  -0.78465  -0.77635  -0.77064
 Alpha  occ. eigenvalues --   -0.72242  -0.71378  -0.70598  -0.65144  -0.64885
 Alpha  occ. eigenvalues --   -0.63902  -0.62228  -0.59736  -0.58230  -0.56421
 Alpha  occ. eigenvalues --   -0.55391  -0.54084  -0.53213  -0.52972  -0.51525
 Alpha  occ. eigenvalues --   -0.51249  -0.49167  -0.49007  -0.48573  -0.46768
 Alpha  occ. eigenvalues --   -0.45516  -0.44998  -0.44608  -0.44459  -0.42623
 Alpha  occ. eigenvalues --   -0.37466  -0.36480
 Alpha virt. eigenvalues --    0.04867   0.11175   0.16370   0.21313   0.23990
 Alpha virt. eigenvalues --    0.25541   0.27233   0.27791   0.28204   0.28632
 Alpha virt. eigenvalues --    0.29197   0.30881   0.32421   0.32594   0.32776

 Mulliken charges:
               1
     1  C   -0.300528
     2  C   -0.297605
     3  C   -0.478475
     4  H    0.159815
     5  H    0.144287
     6  H    0.156497
     7  H    0.144070
     8  H    0.143782
     9  H    0.175478
    10  H    0.155010
    11  C   -0.297583
    12  C   -0.299225
    13  C   -0.475091
    14  H    0.150078
    15  H    0.145995
    16  H    0.153584
    17  H    0.149604
    18  H    0.153327
    19  H    0.154757
    20  H    0.157592
    21  C   -0.170459
    22  C   -0.218596
    23  C   -0.170572
    24  C    0.158767
    25  C   -0.170724
    26  C   -0.218611
    27  H    0.226123
    28  H    0.223980
    29  H    0.276104
    30  H    0.275850
    31  H    0.223919
    32  N    0.487764
    33  O   -0.460618
    34  O   -0.458295
 Sum of Mulliken charges =  -0.00000

 Dipole moment (field-independent basis, Debye):
    X=             -5.5418    Y=             -0.1733    Z=              0.7481  Tot=              5.5947
 Quadrupole moment (field-independent basis, Debye-Ang):
   XX=            -64.7277   YY=            -90.7752   ZZ=            -95.2734
   XY=              1.4964   XZ=             -1.1900   YZ=             -2.2044

 Normal termination of Gaussian 16 at Thu May  6 04:19:06 2021.
