 Gaussian 16, Revision A.03,
 Gaussian 16:  EM64L-G16RevA.03 25-Dec-2016

 -------------
 #p 6-31g* mp2
 -------------

 ------------------------------------------------------
 Input file generated by CHIRIPA (05-May-2021 14:51:13)
 ------------------------------------------------------
 Symbolic Z-matrix:
 Charge =  0 Multiplicity = 1

                         Standard orientation:
 ---------------------------------------------------------------------
 Center     Atomic      Atomic             Coordinates (Angstroms)
 Number     Number       Type             X           Y           Z
 ---------------------------------------------------------------------
      1          6           0       -2.287063    1.316666    0.399146
      2          6           0       -1.862291    2.549033   -0.400120
      3          6           0       -0.898076    3.450565    0.371452
      4          1           0       -2.757207    1.640422    1.337810
      5          1           0       -1.392340    0.743538    0.679130
      6          1           0       -2.757651    3.118932   -0.679697
      7          1           0       -1.393276    2.222309   -1.337078
      8          1           0        0.011887    2.903021    0.637465
      9          1           0       -1.360239    3.804738    1.298581
     10          1           0       -0.607384    4.325415   -0.218460
     11          6           0       -3.250990    0.405635   -0.358873
     12          6           0       -3.675762   -0.826733    0.440392
     13          6           0       -4.639977   -1.728265   -0.331180
     14          1           0       -4.145713    0.978762   -0.638857
     15          1           0       -2.780846    0.081879   -1.297538
     16          1           0       -4.144777   -0.500008    1.377351
     17          1           0       -2.780402   -1.396631    0.719970
     18          1           0       -4.177814   -2.082438   -1.258309
     19          1           0       -5.549940   -1.180721   -0.597193
     20          1           0       -4.930668   -2.603114    0.258733
     21          6           0        2.073509   -1.074854   -0.252553
     22          6           0        1.570671   -2.347547    0.429643
     23          6           0        0.177926   -2.762331   -0.045761
     24          1           0        1.361996   -0.259432   -0.063388
     25          1           0        2.087759   -1.231249   -1.340088
     26          1           0        1.558686   -2.189269    1.515654
     27          1           0        2.283560   -3.159986    0.238991
     28          1           0        0.178445   -2.947388   -1.124814
     29          1           0       -0.550548   -1.971156    0.159103
     30          1           0       -0.162018   -3.674380    0.454705
     31          6           0        3.464544   -0.647447    0.212280
     32          6           0        3.967382    0.625248   -0.469914
     33          6           0        5.360127    1.040030    0.005489
     34          1           0        3.450293   -0.491051    1.299816
     35          1           0        4.176057   -1.462869    0.023115
     36          1           0        3.254492    1.437686   -0.279264
     37          1           0        3.979367    0.466970   -1.555926
     38          1           0        6.088601    0.248855   -0.199375
     39          1           0        5.359608    1.225087    1.084541
     40          1           0        5.700070    1.952079   -0.494977
 ---------------------------------------------------------------------

 SCF Done:  E(RHF) =  -470.733289326     A.U. after   11 cycles
 E2 =    -0.1583565526D+01 EUMP2 =    -0.47231685485181D+03

 The electronic state is 1-A.
 Alpha  occ. eigenvalues --  -11.21663 -11.21637 -11.21624 -11.21555 -11.21469
 Alpha  occ. eigenvalues --  -11.21429 -11.21403 -11.21353 -11.21131 -11.21112
 Alpha  occ. eigenvalues --  -11.21092 -11.21029  -1.08492  -1.08434  -1.03585
 Alpha  occ. eigenvalues --   -1.03523  -0.96033  -0.95981  -0.87062  -0.86986
 Alpha  occ. eigenvalues --   -0.79670  -0.79570  -0.78332  -0.78222  -0.65253
 Alpha  occ. eigenvalues --   -0.64959  -0.61069  -0.60851  -0.59397  -0.59350
 Alpha  occ. eigenvalues --   -0.57636  -0.57591  -0.55327  -0.55269  -0.52723
 Alpha  occ. eigenvalues --   -0.52675  -0.52471  -0.52393  -0.50090  -0.49832
 Alpha  occ. eigenvalues --   -0.48023  -0.47865  -0.46813  -0.46546  -0.46037
 Alpha  occ. eigenvalues --   -0.45794  -0.45760  -0.45375  -0.43835  -0.43786
 Alpha virt. eigenvalues --    0.19236   0.22401   0.23809   0.24427   0.25557
 Alpha virt. eigenvalues --    0.26936   0.27105   0.27326   0.28195   0.29539
 Alpha virt. eigenvalues --    0.31006   0.31623   0.31706   0.31775   0.31936

 Mulliken charges:
               1
     1  C   -0.302299
     2  C   -0.299570
     3  C   -0.476088
     4  H    0.149948
     5  H    0.151171
     6  H    0.152234
     7  H    0.152647
     8  H    0.154439
     9  H    0.155348
    10  H    0.160629
    11  C   -0.298278
    12  C   -0.305937
    13  C   -0.475326
    14  H    0.149730
    15  H    0.150394
    16  H    0.151709
    17  H    0.157991
    18  H    0.155692
    19  H    0.154860
    20  H    0.160192
    21  C   -0.301004
    22  C   -0.299121
    23  C   -0.483985
    24  H    0.150811
    25  H    0.149759
    26  H    0.152181
    27  H    0.152393
    28  H    0.155363
    29  H    0.162445
    30  H    0.160796
    31  C   -0.298315
    32  C   -0.299965
    33  C   -0.475744
    34  H    0.149768
    35  H    0.149982
    36  H    0.152072
    37  H    0.152010
    38  H    0.155221
    39  H    0.155355
    40  H    0.160494
 Sum of Mulliken charges =  -0.00000

 Dipole moment (field-independent basis, Debye):
    X=              0.0113    Y=             -0.0115    Z=             -0.0089  Tot=              0.0184
 Quadrupole moment (field-independent basis, Debye-Ang):
   XX=            -85.4150   YY=            -84.8830   ZZ=            -84.3161
   XY=             -1.6307   XZ=             -1.1515   YZ=              0.1917

 Normal termination of Gaussian 16 at Wed May  5 15:20:26 2021.
