 Gaussian 16, Revision A.03,
 Gaussian 16:  EM64L-G16RevA.03 25-Dec-2016

 -------------
 #p 6-31g* mp2
 -------------

 ------------------------------------------------------
 Input file generated by CHIRIPA (05-May-2021 14:57:27)
 ------------------------------------------------------
 Symbolic Z-matrix:
 Charge =  0 Multiplicity = 1

                         Standard orientation:
 ---------------------------------------------------------------------
 Center     Atomic      Atomic             Coordinates (Angstroms)
 Number     Number       Type             X           Y           Z
 ---------------------------------------------------------------------
      1          6           0        2.157871    2.468796   -0.558212
      2          6           0        3.476636    2.019990   -0.684528
      3          6           0        3.802034    0.687369   -0.414743
      4          6           0        2.779135   -0.173110   -0.019085
      5          6           0        1.455821    0.243922    0.115875
      6          6           0        1.153444    1.580894   -0.159117
      7          1           0        1.914036    3.505698   -0.769810
      8          1           0        4.258737    2.707312   -0.994288
      9          1           0        4.814685    0.313338   -0.504496
     10          1           0        0.697782   -0.464780    0.426579
     11          1           0        0.128405    1.926656   -0.060176
     12          7           0        3.111433   -1.586199    0.269281
     13          8           0        2.192024   -2.324404    0.616235
     14          8           0        4.285007   -1.928818    0.142888
     15          6           0       -2.467519    2.312455    0.886630
     16          6           0       -2.962762    2.065637   -0.398024
     17          6           0       -3.109281    0.755290   -0.862860
     18          6           0       -2.749200   -0.289124   -0.012665
     19          6           0       -2.252909   -0.075529    1.272388
     20          6           0       -2.114795    1.242969    1.716273
     21          1           0       -2.356963    3.333531    1.239588
     22          1           0       -3.237493    2.894258   -1.044519
     23          1           0       -3.490154    0.535698   -1.852876
     24          1           0       -1.987479   -0.922142    1.893847
     25          1           0       -1.729916    1.431663    2.714426
     26          7           0       -2.899864   -1.680645   -0.493676
     27          8           0       -2.575512   -2.583380    0.274763
     28          8           0       -3.339453   -1.842233   -1.630024
 ---------------------------------------------------------------------

 SCF Done:  E(RHF) =  -868.335985054     A.U. after   16 cycles
 E2 =    -0.2603964242D+01 EUMP2 =    -0.87093994929595D+03

 The electronic state is 1-A.
 Alpha  occ. eigenvalues --  -20.61258 -20.61219 -20.60614 -20.60592 -15.86305
 Alpha  occ. eigenvalues --  -15.85656 -11.32108 -11.31120 -11.28660 -11.28632
 Alpha  occ. eigenvalues --  -11.28463 -11.27790 -11.27757 -11.27694 -11.27632
 Alpha  occ. eigenvalues --  -11.27472 -11.26765 -11.26572  -1.60309  -1.59681
 Alpha  occ. eigenvalues --   -1.39848  -1.39230  -1.20331  -1.19291  -1.09643
 Alpha  occ. eigenvalues --   -1.08682  -1.05743  -1.04694  -0.96384  -0.95503
 Alpha  occ. eigenvalues --   -0.87101  -0.86104  -0.83176  -0.82323  -0.78150
 Alpha  occ. eigenvalues --   -0.77360  -0.72504  -0.71871  -0.71650  -0.71358
 Alpha  occ. eigenvalues --   -0.71009  -0.70437  -0.65918  -0.65678  -0.64940
 Alpha  occ. eigenvalues --   -0.64743  -0.63020  -0.62129  -0.56205  -0.55336
 Alpha  occ. eigenvalues --   -0.54051  -0.53768  -0.53048  -0.52651  -0.49301
 Alpha  occ. eigenvalues --   -0.49240  -0.48639  -0.48624  -0.45151  -0.44613
 Alpha  occ. eigenvalues --   -0.38333  -0.37464  -0.37282  -0.36230
 Alpha virt. eigenvalues --    0.04303   0.05167   0.10122   0.11368   0.15691
 Alpha virt. eigenvalues --    0.16652   0.20492   0.21695   0.26336   0.27222
 Alpha virt. eigenvalues --    0.27636   0.28353   0.30278   0.31257   0.31683

 Mulliken charges:
               1
     1  C   -0.175088
     2  C   -0.218129
     3  C   -0.171542
     4  C    0.160410
     5  C   -0.179604
     6  C   -0.226580
     7  H    0.221295
     8  H    0.222293
     9  H    0.275533
    10  H    0.276059
    11  H    0.233825
    12  N    0.487488
    13  O   -0.456752
    14  O   -0.461165
    15  C   -0.188061
    16  C   -0.218779
    17  C   -0.170029
    18  C    0.160643
    19  C   -0.181887
    20  C   -0.217801
    21  H    0.228173
    22  H    0.226723
    23  H    0.280008
    24  H    0.284628
    25  H    0.230029
    26  N    0.487828
    27  O   -0.451832
    28  O   -0.457687
 Sum of Mulliken charges =  -0.00000

 Dipole moment (field-independent basis, Debye):
    X=             -1.0023    Y=              9.6108    Z=              0.7139  Tot=              9.6893
 Quadrupole moment (field-independent basis, Debye-Ang):
   XX=           -109.2208   YY=           -109.7715   ZZ=           -101.4709
   XY=              0.7036   XZ=             -6.9743   YZ=             -2.4039

 Normal termination of Gaussian 16 at Thu May  6 05:15:03 2021.
