 Gaussian 16, Revision A.03,
 Gaussian 16:  EM64L-G16RevA.03 25-Dec-2016

 -------------
 #p 6-31g* mp2
 -------------

 ------------------------------------------------------
 Input file generated by CHIRIPA (05-May-2021 14:57:26)
 ------------------------------------------------------
 Symbolic Z-matrix:
 Charge =  0 Multiplicity = 1

                         Standard orientation:
 ---------------------------------------------------------------------
 Center     Atomic      Atomic             Coordinates (Angstroms)
 Number     Number       Type             X           Y           Z
 ---------------------------------------------------------------------
      1          6           0        3.042457   -2.063732    1.136656
      2          6           0        1.844676   -1.344112    1.199824
      3          6           0        1.743823   -0.080198    0.610843
      4          6           0        2.865457    0.436168   -0.036145
      5          6           0        4.072680   -0.256308   -0.116018
      6          6           0        4.150682   -1.518494    0.480095
      7          1           0        3.111926   -3.044899    1.596961
      8          1           0        0.982397   -1.765066    1.709056
      9          1           0        0.828758    0.498524    0.644800
     10          1           0        4.915206    0.189504   -0.630624
     11          1           0        5.082175   -2.075094    0.429472
     12          7           0        2.770785    1.773302   -0.663448
     13          8           0        3.773329    2.206115   -1.227554
     14          8           0        1.695828    2.363217   -0.579144
     15          6           0       -3.680490    1.562324    1.534364
     16          6           0       -2.683423    0.663429    1.927263
     17          6           0       -2.232789   -0.325817    1.048133
     18          6           0       -2.803775   -0.387694   -0.222079
     19          6           0       -3.798701    0.493373   -0.642951
     20          6           0       -4.233970    1.474581    0.252771
     21          1           0       -4.024585    2.327671    2.223738
     22          1           0       -2.251776    0.729209    2.921947
     23          1           0       -1.462239   -1.034527    1.326343
     24          1           0       -4.209947    0.402907   -1.641005
     25          1           0       -5.008446    2.171331   -0.055079
     26          7           0       -2.334841   -1.430710   -1.161557
     27          8           0       -2.853957   -1.464205   -2.275125
     28          8           0       -1.457056   -2.194980   -0.766563
 ---------------------------------------------------------------------

 SCF Done:  E(RHF) =  -868.337503425     A.U. after   16 cycles
 E2 =    -0.2600970578D+01 EUMP2 =    -0.87093847400307D+03

 The electronic state is 1-A.
 Alpha  occ. eigenvalues --  -20.61144 -20.61113 -20.60586 -20.60576 -15.86181
 Alpha  occ. eigenvalues --  -15.85635 -11.31577 -11.30922 -11.28253 -11.28036
 Alpha  occ. eigenvalues --  -11.27781 -11.27503 -11.27480 -11.27212 -11.27191
 Alpha  occ. eigenvalues --  -11.27055 -11.26542 -11.26481  -1.60197  -1.59658
 Alpha  occ. eigenvalues --   -1.39756  -1.39215  -1.19718  -1.19088  -1.09087
 Alpha  occ. eigenvalues --   -1.08496  -1.05145  -1.04498  -0.95939  -0.95347
 Alpha  occ. eigenvalues --   -0.86530  -0.85902  -0.82780  -0.82203  -0.77872
 Alpha  occ. eigenvalues --   -0.77242  -0.72403  -0.71862  -0.71511  -0.70975
 Alpha  occ. eigenvalues --   -0.70837  -0.70198  -0.65374  -0.65159  -0.64751
 Alpha  occ. eigenvalues --   -0.64531  -0.62600  -0.61775  -0.55588  -0.54996
 Alpha  occ. eigenvalues --   -0.53433  -0.53234  -0.52793  -0.52598  -0.49176
 Alpha  occ. eigenvalues --   -0.49143  -0.48617  -0.48609  -0.45155  -0.44640
 Alpha  occ. eigenvalues --   -0.37636  -0.37041  -0.36728  -0.36061
 Alpha virt. eigenvalues --    0.04668   0.05307   0.10845   0.11594   0.16186
 Alpha virt. eigenvalues --    0.16808   0.19432   0.22201   0.25062   0.27503
 Alpha virt. eigenvalues --    0.28474   0.29270   0.29897   0.31369   0.32321

 Mulliken charges:
               1
     1  C   -0.169786
     2  C   -0.211803
     3  C   -0.171197
     4  C    0.158250
     5  C   -0.170296
     6  C   -0.218393
     7  H    0.226341
     8  H    0.218784
     9  H    0.271899
    10  H    0.274915
    11  H    0.223116
    12  N    0.488340
    13  O   -0.460638
    14  O   -0.462795
    15  C   -0.168464
    16  C   -0.218672
    17  C   -0.180867
    18  C    0.161423
    19  C   -0.167938
    20  C   -0.216092
    21  H    0.228447
    22  H    0.223450
    23  H    0.270958
    24  H    0.278076
    25  H    0.226631
    26  N    0.488288
    27  O   -0.455787
    28  O   -0.466192
 Sum of Mulliken charges =  -0.00000

 Dipole moment (field-independent basis, Debye):
    X=             -1.5523    Y=             -0.9754    Z=              5.3801  Tot=              5.6839
 Quadrupole moment (field-independent basis, Debye-Ang):
   XX=            -86.2728   YY=           -112.3662   ZZ=           -104.6760
   XY=            -25.7318   XZ=             -1.6155   YZ=             -2.0157

 Normal termination of Gaussian 16 at Thu May  6 09:57:24 2021.
