 Gaussian 16, Revision A.03,
 Gaussian 16:  EM64L-G16RevA.03 25-Dec-2016

 -------------
 #p 6-31g* mp2
 -------------

 ------------------------------------------------------
 Input file generated by CHIRIPA (05-May-2021 14:57:25)
 ------------------------------------------------------
 Symbolic Z-matrix:
 Charge =  0 Multiplicity = 1

                         Standard orientation:
 ---------------------------------------------------------------------
 Center     Atomic      Atomic             Coordinates (Angstroms)
 Number     Number       Type             X           Y           Z
 ---------------------------------------------------------------------
      1          6           0       -2.177217    2.027241   -0.641910
      2          6           0       -1.790963    0.688559   -0.765436
      3          6           0       -2.701757   -0.340004   -0.506475
      4          6           0       -3.996515    0.007687   -0.124370
      5          6           0       -4.411540    1.331946    0.007475
      6          6           0       -3.483969    2.344103   -0.256529
      7          1           0       -1.463174    2.819881   -0.845036
      8          1           0       -0.776788    0.439520   -1.064556
      9          1           0       -2.429371   -1.384753   -0.594363
     10          1           0       -5.429529    1.549020    0.307467
     11          1           0       -3.786731    3.382862   -0.159786
     12          7           0       -4.969612   -1.072523    0.152450
     13          8           0       -6.104378   -0.739883    0.487554
     14          8           0       -4.579134   -2.231377    0.029075
     15          6           0        1.452194   -0.409475    0.965403
     16          6           0        2.410939    0.191683    1.787557
     17          6           0        3.734792    0.321005    1.357166
     18          6           0        4.066608   -0.164086    0.093096
     19          6           0        3.134207   -0.767838   -0.749165
     20          6           0        1.816247   -0.886476   -0.298107
     21          1           0        0.426082   -0.505787    1.307768
     22          1           0        2.131068    0.563039    2.769297
     23          1           0        4.497155    0.782166    1.973244
     24          1           0        3.443309   -1.128430   -1.722740
     25          1           0        1.073784   -1.353788   -0.938743
     26          7           0        5.464992   -0.032834   -0.373479
     27          8           0        5.731899   -0.468300   -1.491409
     28          8           0        6.267661    0.503022    0.387584
 ---------------------------------------------------------------------

 SCF Done:  E(RHF) =  -868.336985422     A.U. after   16 cycles
 E2 =    -0.2600897916D+01 EUMP2 =    -0.87093788333863D+03

 The electronic state is 1-A.
 Alpha  occ. eigenvalues --  -20.61456 -20.61444 -20.61303 -20.61297 -15.86512
 Alpha  occ. eigenvalues --  -15.86364 -11.31998 -11.31860 -11.28648 -11.28534
 Alpha  occ. eigenvalues --  -11.28506 -11.28444 -11.28286 -11.28218 -11.27618
 Alpha  occ. eigenvalues --  -11.27581 -11.27540 -11.27434  -1.60527  -1.60376
 Alpha  occ. eigenvalues --   -1.40077  -1.39926  -1.20180  -1.20069  -1.09541
 Alpha  occ. eigenvalues --   -1.09432  -1.05623  -1.05489  -0.96350  -0.96242
 Alpha  occ. eigenvalues --   -0.87035  -0.86848  -0.83199  -0.83066  -0.78264
 Alpha  occ. eigenvalues --   -0.78072  -0.72723  -0.72578  -0.71855  -0.71704
 Alpha  occ. eigenvalues --   -0.71258  -0.71146  -0.65894  -0.65810  -0.65669
 Alpha  occ. eigenvalues --   -0.65322  -0.63045  -0.62715  -0.56048  -0.55984
 Alpha  occ. eigenvalues --   -0.53997  -0.53885  -0.53634  -0.53460  -0.49492
 Alpha  occ. eigenvalues --   -0.49475  -0.49347  -0.49323  -0.45457  -0.45301
 Alpha  occ. eigenvalues --   -0.38226  -0.37987  -0.37201  -0.37100
 Alpha virt. eigenvalues --    0.04285   0.04452   0.10258   0.10490   0.15615
 Alpha virt. eigenvalues --    0.15973   0.19090   0.21735   0.24927   0.27336
 Alpha virt. eigenvalues --    0.27624   0.28857   0.29878   0.31057   0.31788

 Mulliken charges:
               1
     1  C   -0.172657
     2  C   -0.226651
     3  C   -0.177101
     4  C    0.159656
     5  C   -0.170025
     6  C   -0.218321
     7  H    0.230116
     8  H    0.226011
     9  H    0.272434
    10  H    0.278237
    11  H    0.226662
    12  N    0.488029
    13  O   -0.457671
    14  O   -0.460359
    15  C   -0.172643
    16  C   -0.219660
    17  C   -0.169502
    18  C    0.158156
    19  C   -0.170257
    20  C   -0.227030
    21  H    0.230619
    22  H    0.226602
    23  H    0.278004
    24  H    0.277858
    25  H    0.218991
    26  N    0.488046
    27  O   -0.458966
    28  O   -0.458575
 Sum of Mulliken charges =  -0.00000

 Dipole moment (field-independent basis, Debye):
    X=             -1.4783    Y=              3.4908    Z=              0.7582  Tot=              3.8660
 Quadrupole moment (field-independent basis, Debye-Ang):
   XX=           -168.9315   YY=           -101.9667   ZZ=           -101.1508
   XY=            -18.8161   XZ=             10.2506   YZ=              2.2151

 Normal termination of Gaussian 16 at Fri May  7 09:37:15 2021.
