 Gaussian 16, Revision A.03,
 Gaussian 16:  EM64L-G16RevA.03 25-Dec-2016

 -------------
 #p 6-31g* mp2
 -------------

 ------------------------------------------------------
 Input file generated by CHIRIPA (05-May-2021 14:53:12)
 ------------------------------------------------------
 Symbolic Z-matrix:
 Charge =  0 Multiplicity = 1

                         Standard orientation:
 ---------------------------------------------------------------------
 Center     Atomic      Atomic             Coordinates (Angstroms)
 Number     Number       Type             X           Y           Z
 ---------------------------------------------------------------------
      1          6           0        4.020789    0.217891    0.501208
      2          6           0        4.792537    0.295401   -0.816511
      3          6           0        6.126993    1.028733   -0.677782
      4          1           0        3.844393    1.235466    0.875870
      5          1           0        4.642151   -0.288565    1.252744
      6          1           0        4.169366    0.800330   -1.565724
      7          1           0        4.966949   -0.722469   -1.188176
      8          1           0        6.770552    0.523265    0.049498
      9          1           0        5.968436    2.054717   -0.330195
     10          1           0        6.662069    1.072522   -1.631531
     11          6           0        2.684580   -0.512350    0.378646
     12          6           0        1.912832   -0.589860    1.696365
     13          6           0        0.578376   -1.323191    1.557636
     14          1           0        2.063218   -0.005894   -0.372890
     15          1           0        2.860976   -1.529924    0.003985
     16          1           0        1.738420    0.428011    2.068031
     17          1           0        2.536003   -1.094788    2.445578
     18          1           0        0.736932   -2.349176    1.210049
     19          1           0       -0.065183   -0.817724    0.830356
     20          1           0        0.043300   -1.366980    2.511385
     21          6           0       -1.974108   -2.213743   -1.069309
     22          6           0       -2.966825   -2.032148   -0.100775
     23          6           0       -3.332371   -0.746416    0.308880
     24          6           0       -2.681658    0.340159   -0.273544
     25          6           0       -1.688804    0.191780   -1.240764
     26          6           0       -1.339385   -1.103158   -1.635214
     27          1           0       -1.696405   -3.216106   -1.381633
     28          1           0       -3.461453   -2.892800    0.340434
     29          1           0       -4.097560   -0.577112    1.056703
     30          1           0       -1.213591    1.069141   -1.662459
     31          1           0       -0.568077   -1.241177   -2.387597
     32          7           0       -3.060110    1.706178    0.152092
     33          8           0       -2.471754    2.647056   -0.376325
     34          8           0       -3.937928    1.810121    1.006063
 ---------------------------------------------------------------------

 SCF Done:  E(RHF) =  -669.533953383     A.U. after   15 cycles
 E2 =    -0.2094181520D+01 EUMP2 =    -0.67162813490330D+03

 The electronic state is 1-A.
 Alpha  occ. eigenvalues --  -20.60828 -20.60823 -15.85882 -11.31269 -11.27838
 Alpha  occ. eigenvalues --  -11.27805 -11.27530 -11.26849 -11.26798 -11.21815
 Alpha  occ. eigenvalues --  -11.21681 -11.21623 -11.21533 -11.21215 -11.20976
 Alpha  occ. eigenvalues --   -1.59904  -1.39456  -1.19455  -1.08825  -1.08598
 Alpha  occ. eigenvalues --   -1.04849  -1.03651  -0.96104  -0.95657  -0.87126
 Alpha  occ. eigenvalues --   -0.86228  -0.82485  -0.79732  -0.78437  -0.77537
 Alpha  occ. eigenvalues --   -0.72098  -0.71230  -0.70528  -0.65240  -0.65079
 Alpha  occ. eigenvalues --   -0.64827  -0.62183  -0.61082  -0.59481  -0.57780
 Alpha  occ. eigenvalues --   -0.55556  -0.55321  -0.53574  -0.52917  -0.52771
 Alpha  occ. eigenvalues --   -0.52151  -0.49936  -0.48859  -0.48853  -0.47969
 Alpha  occ. eigenvalues --   -0.46718  -0.45949  -0.45885  -0.44856  -0.43929
 Alpha  occ. eigenvalues --   -0.37390  -0.36397
 Alpha virt. eigenvalues --    0.04968   0.11179   0.16412   0.21112   0.22791
 Alpha virt. eigenvalues --    0.24273   0.26046   0.26874   0.27783   0.27985
 Alpha virt. eigenvalues --    0.28477   0.30853   0.31425   0.31809   0.31877

 Mulliken charges:
               1
     1  C   -0.298496
     2  C   -0.299449
     3  C   -0.475848
     4  H    0.152677
     5  H    0.150241
     6  H    0.150349
     7  H    0.150099
     8  H    0.155566
     9  H    0.156958
    10  H    0.160149
    11  C   -0.296829
    12  C   -0.299934
    13  C   -0.480931
    14  H    0.144096
    15  H    0.145802
    16  H    0.155312
    17  H    0.151077
    18  H    0.146335
    19  H    0.168046
    20  H    0.158837
    21  C   -0.167254
    22  C   -0.215867
    23  C   -0.171021
    24  C    0.162789
    25  C   -0.179492
    26  C   -0.217130
    27  H    0.225992
    28  H    0.224114
    29  H    0.276066
    30  H    0.275597
    31  H    0.224698
    32  N    0.488069
    33  O   -0.460580
    34  O   -0.460036
 Sum of Mulliken charges =  -0.00000

 Dipole moment (field-independent basis, Debye):
    X=              1.2279    Y=             -4.7952    Z=             -1.5081  Tot=              5.1746
 Quadrupole moment (field-independent basis, Debye-Ang):
   XX=           -100.6969   YY=            -97.3379   ZZ=            -92.4750
   XY=             14.4106   XZ=              1.4001   YZ=             -0.5532

 Normal termination of Gaussian 16 at Thu May  6 00:56:51 2021.
