 Gaussian 16, Revision A.03,
 Gaussian 16:  EM64L-G16RevA.03 25-Dec-2016

 -------------
 #p 6-31g* mp2
 -------------

 ------------------------------------------------------
 Input file generated by CHIRIPA (05-May-2021 14:51:12)
 ------------------------------------------------------
 Symbolic Z-matrix:
 Charge =  0 Multiplicity = 1

                         Standard orientation:
 ---------------------------------------------------------------------
 Center     Atomic      Atomic             Coordinates (Angstroms)
 Number     Number       Type             X           Y           Z
 ---------------------------------------------------------------------
      1          6           0       -3.594970   -0.436606   -0.574549
      2          6           0       -4.827215    0.427213   -0.303672
      3          6           0       -5.637067    0.714900   -1.568256
      4          1           0       -2.957035    0.067315   -1.313499
      5          1           0       -3.913188   -1.384224   -1.030785
      6          1           0       -4.506888    1.372351    0.153188
      7          1           0       -5.462196   -0.078733    0.434862
      8          1           0       -5.984707   -0.218036   -2.023644
      9          1           0       -5.023970    1.241293   -2.306919
     10          1           0       -6.513350    1.333835   -1.351675
     11          6           0       -2.775121   -0.732827    0.679974
     12          6           0       -1.542876   -1.596646    0.409097
     13          6           0       -0.733024   -1.884332    1.673681
     14          1           0       -2.456904    0.214792    1.136210
     15          1           0       -3.413056   -1.236748    1.418924
     16          1           0       -0.907895   -1.090699   -0.329437
     17          1           0       -1.863204   -2.541783   -0.047763
     18          1           0       -1.346121   -2.410725    2.412344
     19          1           0       -0.385384   -0.951397    2.129069
     20          1           0        0.143259   -2.503267    1.457099
     21          6           0        3.484517   -0.085903   -0.262519
     22          6           0        4.922147    0.024652   -0.771419
     23          6           0        5.507465   -1.325236   -1.187347
     24          1           0        3.456391   -0.777815    0.590365
     25          1           0        2.858309   -0.531889   -1.047603
     26          1           0        5.545180    0.471571    0.013889
     27          1           0        4.946884    0.716529   -1.623070
     28          1           0        4.910250   -1.773923   -1.987733
     29          1           0        5.511946   -2.020273   -0.341472
     30          1           0        6.535773   -1.222998   -1.547887
     31          6           0        2.885575    1.255335    0.157094
     32          6           0        1.447944    1.144780    0.665994
     33          6           0        0.862626    2.494669    1.081923
     34          1           0        3.511783    1.701321    0.942178
     35          1           0        2.913700    1.947248   -0.695791
     36          1           0        1.423207    0.452903    1.517646
     37          1           0        0.824911    0.697861   -0.119315
     38          1           0        0.858146    3.189705    0.236047
     39          1           0        1.459841    2.943356    1.882307
     40          1           0       -0.165682    2.392430    1.442461
 ---------------------------------------------------------------------

 SCF Done:  E(RHF) =  -470.732556672     A.U. after   11 cycles
 E2 =    -0.1583931136D+01 EUMP2 =    -0.47231648780865D+03

 The electronic state is 1-A.
 Alpha  occ. eigenvalues --  -11.21614 -11.21597 -11.21596 -11.21546 -11.21422
 Alpha  occ. eigenvalues --  -11.21394 -11.21363 -11.21334 -11.21139 -11.21080
 Alpha  occ. eigenvalues --  -11.21068 -11.20976  -1.08471  -1.08394  -1.03601
 Alpha  occ. eigenvalues --   -1.03461  -0.96019  -0.95944  -0.87036  -0.86960
 Alpha  occ. eigenvalues --   -0.79637  -0.79566  -0.78277  -0.78226  -0.65112
 Alpha  occ. eigenvalues --   -0.65032  -0.60973  -0.60965  -0.59338  -0.59319
 Alpha  occ. eigenvalues --   -0.57630  -0.57545  -0.55329  -0.55218  -0.52708
 Alpha  occ. eigenvalues --   -0.52639  -0.52445  -0.52364  -0.50085  -0.49821
 Alpha  occ. eigenvalues --   -0.48052  -0.47738  -0.46970  -0.46370  -0.45918
 Alpha  occ. eigenvalues --   -0.45800  -0.45631  -0.45448  -0.43807  -0.43758
 Alpha virt. eigenvalues --    0.20230   0.23054   0.23747   0.24724   0.25286
 Alpha virt. eigenvalues --    0.26085   0.26471   0.28038   0.28510   0.29238
 Alpha virt. eigenvalues --    0.30709   0.30844   0.31208   0.31793   0.32196

 Mulliken charges:
               1
     1  C   -0.298108
     2  C   -0.299643
     3  C   -0.475693
     4  H    0.149163
     5  H    0.149575
     6  H    0.151912
     7  H    0.151964
     8  H    0.155154
     9  H    0.155122
    10  H    0.160265
    11  C   -0.299853
    12  C   -0.302013
    13  C   -0.478131
    14  H    0.150218
    15  H    0.149747
    16  H    0.154611
    17  H    0.151709
    18  H    0.154189
    19  H    0.159495
    20  H    0.159717
    21  C   -0.298473
    22  C   -0.299627
    23  C   -0.475741
    24  H    0.150023
    25  H    0.149203
    26  H    0.152012
    27  H    0.151930
    28  H    0.155206
    29  H    0.155229
    30  H    0.160305
    31  C   -0.297548
    32  C   -0.307128
    33  C   -0.477313
    34  H    0.149519
    35  H    0.149318
    36  H    0.156689
    37  H    0.155860
    38  H    0.155396
    39  H    0.155647
    40  H    0.160095
 Sum of Mulliken charges =  -0.00000

 Dipole moment (field-independent basis, Debye):
    X=              0.0272    Y=              0.0027    Z=              0.0069  Tot=              0.0282
 Quadrupole moment (field-independent basis, Debye-Ang):
   XX=            -85.1839   YY=            -85.0335   ZZ=            -84.6392
   XY=              1.1066   XZ=             -0.0906   YZ=             -0.3238

 Normal termination of Gaussian 16 at Thu May  6 00:45:40 2021.
