 Gaussian 16, Revision A.03,
 Gaussian 16:  EM64L-G16RevA.03 25-Dec-2016

 -------------
 #p 6-31g* mp2
 -------------

 ------------------------------------------------------
 Input file generated by CHIRIPA (05-May-2021 14:57:22)
 ------------------------------------------------------
 Symbolic Z-matrix:
 Charge =  0 Multiplicity = 1

                         Standard orientation:
 ---------------------------------------------------------------------
 Center     Atomic      Atomic             Coordinates (Angstroms)
 Number     Number       Type             X           Y           Z
 ---------------------------------------------------------------------
      1          6           0       -3.880394   -1.941555   -0.047082
      2          6           0       -2.971465   -1.834218    1.010674
      3          6           0       -2.274919   -0.642060    1.230061
      4          6           0       -2.512791    0.427681    0.368458
      5          6           0       -3.411976    0.351763   -0.694083
      6          6           0       -4.097366   -0.850146   -0.894591
      7          1           0       -4.417154   -2.871440   -0.210175
      8          1           0       -2.800955   -2.680188    1.670452
      9          1           0       -1.565607   -0.531588    2.041289
     10          1           0       -3.560803    1.212275   -1.335010
     11          1           0       -4.802660   -0.930636   -1.716860
     12          7           0       -1.781294    1.694927    0.590720
     13          8           0       -2.008713    2.622842   -0.182514
     14          8           0       -0.994380    1.736283    1.533955
     15          6           0        4.983703   -0.322945    0.579726
     16          6           0        4.215103   -1.488226    0.490858
     17          6           0        2.911654   -1.442367   -0.012594
     18          6           0        2.406127   -0.208757   -0.419952
     19          6           0        3.147004    0.969636   -0.343909
     20          6           0        4.448143    0.900111    0.162794
     21          1           0        5.995357   -0.367762    0.972082
     22          1           0        4.628430   -2.439459    0.813909
     23          1           0        2.294661   -2.329139   -0.092421
     24          1           0        2.707628    1.903206   -0.673780
     25          1           0        5.042745    1.806692    0.230654
     26          7           0        1.027445   -0.147681   -0.954655
     27          8           0        0.605167    0.951512   -1.306921
     28          8           0        0.395220   -1.200160   -1.011365
 ---------------------------------------------------------------------

 SCF Done:  E(RHF) =  -868.338622868     A.U. after   16 cycles
 E2 =    -0.2602493374D+01 EUMP2 =    -0.87094111624169D+03

 The electronic state is 1-A.
 Alpha  occ. eigenvalues --  -20.60661 -20.60636 -20.59411 -20.59325 -15.85644
 Alpha  occ. eigenvalues --  -15.84426 -11.30886 -11.29708 -11.27518 -11.27378
 Alpha  occ. eigenvalues --  -11.27216 -11.26504 -11.26412 -11.26392 -11.26305
 Alpha  occ. eigenvalues --  -11.26159 -11.25428 -11.25385  -1.59722  -1.58408
 Alpha  occ. eigenvalues --   -1.39269  -1.37992  -1.19061  -1.17904  -1.08492
 Alpha  occ. eigenvalues --   -1.07338  -1.04450  -1.03360  -0.95346  -0.94195
 Alpha  occ. eigenvalues --   -0.85856  -0.84785  -0.82183  -0.81070  -0.77237
 Alpha  occ. eigenvalues --   -0.76097  -0.71958  -0.71237  -0.70704  -0.70189
 Alpha  occ. eigenvalues --   -0.69376  -0.69135  -0.64721  -0.64467  -0.63629
 Alpha  occ. eigenvalues --   -0.63446  -0.61797  -0.60763  -0.54987  -0.53941
 Alpha  occ. eigenvalues --   -0.52785  -0.52550  -0.51651  -0.51526  -0.48657
 Alpha  occ. eigenvalues --   -0.48617  -0.47458  -0.47419  -0.44681  -0.43439
 Alpha  occ. eigenvalues --   -0.37053  -0.36042  -0.35839  -0.34894
 Alpha virt. eigenvalues --    0.05267   0.06530   0.11615   0.12722   0.16769
 Alpha virt. eigenvalues --    0.18002   0.21708   0.22567   0.27621   0.28417
 Alpha virt. eigenvalues --    0.28623   0.29461   0.31226   0.32024   0.32907

 Mulliken charges:
               1
     1  C   -0.169406
     2  C   -0.215055
     3  C   -0.164576
     4  C    0.169680
     5  C   -0.163722
     6  C   -0.217579
     7  H    0.219497
     8  H    0.215734
     9  H    0.267055
    10  H    0.273337
    11  H    0.218196
    12  N    0.497129
    13  O   -0.458045
    14  O   -0.475433
    15  C   -0.170351
    16  C   -0.218983
    17  C   -0.172127
    18  C    0.160502
    19  C   -0.165838
    20  C   -0.218956
    21  H    0.224685
    22  H    0.221110
    23  H    0.271485
    24  H    0.282237
    25  H    0.224417
    26  N    0.487100
    27  O   -0.456508
    28  O   -0.465584
 Sum of Mulliken charges =  -0.00000

 Dipole moment (field-independent basis, Debye):
    X=              2.4839    Y=             -4.4284    Z=              0.8652  Tot=              5.1506
 Quadrupole moment (field-independent basis, Debye-Ang):
   XX=            -69.2709   YY=           -103.7178   ZZ=           -105.3399
   XY=              8.2907   XZ=              6.1002   YZ=             -5.1645

 Normal termination of Gaussian 16 at Fri May  7 04:49:51 2021.
