 Gaussian 16, Revision A.03,
 Gaussian 16:  EM64L-G16RevA.03 25-Dec-2016

 -------------
 #p 6-31g* mp2
 -------------

 ------------------------------------------------------
 Input file generated by CHIRIPA (05-May-2021 14:53:17)
 ------------------------------------------------------
 Symbolic Z-matrix:
 Charge =  0 Multiplicity = 1

                         Standard orientation:
 ---------------------------------------------------------------------
 Center     Atomic      Atomic             Coordinates (Angstroms)
 Number     Number       Type             X           Y           Z
 ---------------------------------------------------------------------
      1          6           0        2.469872    0.737960   -0.326181
      2          6           0        2.671747    1.512704    0.976510
      3          6           0        2.541483    3.024826    0.791268
      4          1           0        3.203575    1.082516   -1.067738
      5          1           0        1.477682    0.974084   -0.735082
      6          1           0        3.662713    1.274123    1.383549
      7          1           0        1.937603    1.166128    1.715112
      8          1           0        1.548783    3.281858    0.407756
      9          1           0        3.283694    3.390466    0.074309
     10          1           0        2.689407    3.559115    1.734939
     11          6           0        2.597065   -0.774981   -0.157185
     12          6           0        2.395191   -1.549726   -1.459875
     13          6           0        2.525454   -3.061847   -1.274634
     14          1           0        3.589255   -1.011105    0.251716
     15          1           0        1.863363   -1.119538    0.584372
     16          1           0        3.129334   -1.203150   -2.198478
     17          1           0        1.404225   -1.311144   -1.866915
     18          1           0        1.783243   -3.427488   -0.557675
     19          1           0        3.518154   -3.318880   -0.891122
     20          1           0        2.377530   -3.596136   -2.218305
     21          6           0       -2.576204    1.620914   -1.662916
     22          6           0       -3.332024    0.459335   -1.473198
     23          6           0       -3.010404   -0.437870   -0.450393
     24          6           0       -1.921563   -0.140844    0.367833
     25          6           0       -1.149279    1.008091    0.204077
     26          6           0       -1.489160    1.891108   -0.825150
     27          1           0       -2.833139    2.312374   -2.459950
     28          1           0       -4.176773    0.246926   -2.122295
     29          1           0       -3.578555   -1.344515   -0.281225
     30          1           0       -0.312836    1.192713    0.867173
     31          1           0       -0.900401    2.792430   -0.970151
     32          7           0       -1.571412   -1.083165    1.454031
     33          8           0       -0.607377   -0.798592    2.161344
     34          8           0       -2.267629   -2.088487    1.577513
 ---------------------------------------------------------------------

 SCF Done:  E(RHF) =  -669.534743188     A.U. after   15 cycles
 E2 =    -0.2095717370D+01 EUMP2 =    -0.67163046055829D+03

 The electronic state is 1-A.
 Alpha  occ. eigenvalues --  -20.61021 -20.61015 -15.86033 -11.31300 -11.27878
 Alpha  occ. eigenvalues --  -11.27829 -11.27602 -11.26861 -11.26846 -11.21711
 Alpha  occ. eigenvalues --  -11.21562 -11.21370 -11.21347 -11.20968 -11.20714
 Alpha  occ. eigenvalues --   -1.60070  -1.39629  -1.19485  -1.08890  -1.08365
 Alpha  occ. eigenvalues --   -1.04881  -1.03517  -0.95969  -0.95737  -0.86988
 Alpha  occ. eigenvalues --   -0.86270  -0.82589  -0.79577  -0.78097  -0.77656
 Alpha  occ. eigenvalues --   -0.72266  -0.71384  -0.70629  -0.65337  -0.65129
 Alpha  occ. eigenvalues --   -0.64666  -0.62247  -0.60787  -0.59344  -0.57552
 Alpha  occ. eigenvalues --   -0.55362  -0.55325  -0.53212  -0.52962  -0.52669
 Alpha  occ. eigenvalues --   -0.52368  -0.49900  -0.49048  -0.49008  -0.47876
 Alpha  occ. eigenvalues --   -0.46638  -0.45720  -0.45636  -0.44814  -0.43708
 Alpha  occ. eigenvalues --   -0.37457  -0.36389
 Alpha virt. eigenvalues --    0.04831   0.11140   0.16221   0.19376   0.23351
 Alpha virt. eigenvalues --    0.23875   0.25516   0.26668   0.27976   0.28305
 Alpha virt. eigenvalues --    0.29308   0.30453   0.31540   0.31711   0.32688

 Mulliken charges:
               1
     1  C   -0.304297
     2  C   -0.314858
     3  C   -0.475437
     4  H    0.148820
     5  H    0.144419
     6  H    0.158696
     7  H    0.164622
     8  H    0.140381
     9  H    0.157747
    10  H    0.164680
    11  C   -0.308118
    12  C   -0.299691
    13  C   -0.476563
    14  H    0.149732
    15  H    0.169140
    16  H    0.148917
    17  H    0.148954
    18  H    0.161289
    19  H    0.155258
    20  H    0.157848
    21  C   -0.170055
    22  C   -0.219174
    23  C   -0.170004
    24  C    0.154721
    25  C   -0.173766
    26  C   -0.224290
    27  H    0.226550
    28  H    0.223997
    29  H    0.275904
    30  H    0.289642
    31  H    0.227052
    32  N    0.487853
    33  O   -0.461999
    34  O   -0.457971
 Sum of Mulliken charges =  -0.00000

 Dipole moment (field-independent basis, Debye):
    X=             -1.2957    Y=              3.1822    Z=             -3.6663  Tot=              5.0247
 Quadrupole moment (field-independent basis, Debye-Ang):
   XX=            -86.0755   YY=            -95.7676   ZZ=            -97.8491
   XY=             -3.6051   XZ=              8.5134   YZ=              2.4378

 Normal termination of Gaussian 16 at Thu May  6 02:47:44 2021.
