 Gaussian 16, Revision A.03,
 Gaussian 16:  EM64L-G16RevA.03 25-Dec-2016

 -------------
 #p 6-31g* mp2
 -------------

 ------------------------------------------------------
 Input file generated by CHIRIPA (05-May-2021 14:53:13)
 ------------------------------------------------------
 Symbolic Z-matrix:
 Charge =  0 Multiplicity = 1

                         Standard orientation:
 ---------------------------------------------------------------------
 Center     Atomic      Atomic             Coordinates (Angstroms)
 Number     Number       Type             X           Y           Z
 ---------------------------------------------------------------------
      1          6           0        2.923571   -0.108739    0.660601
      2          6           0        1.932496   -1.271054    0.729726
      3          6           0        0.613656   -0.884339    1.399730
      4          1           0        3.120798    0.257580    1.677389
      5          1           0        2.463043    0.724538    0.112003
      6          1           0        2.395269   -2.102397    1.276832
      7          1           0        1.737753   -1.634773   -0.287329
      8          1           0        0.127040   -0.071092    0.851610
      9          1           0        0.788292   -0.541373    2.424659
     10          1           0       -0.080042   -1.729998    1.438516
     11          6           0        4.246814   -0.479752   -0.006561
     12          6           0        5.237890    0.682563   -0.075685
     13          6           0        6.556730    0.295848   -0.745690
     14          1           0        4.707342   -1.313028    0.542037
     15          1           0        4.049588   -0.846071   -1.023348
     16          1           0        5.432633    1.046282    0.941369
     17          1           0        4.775117    1.513906   -0.622792
     18          1           0        6.382094   -0.047118   -1.770618
     19          1           0        7.043346   -0.517398   -0.197569
     20          1           0        7.250427    1.141507   -0.784475
     21          6           0       -3.344318   -2.221432   -0.503930
     22          6           0       -4.109843   -1.417493    0.347053
     23          6           0       -3.817841   -0.058030    0.492463
     24          6           0       -2.748400    0.466863   -0.231466
     25          6           0       -1.967118   -0.308186   -1.087146
     26          6           0       -2.277280   -1.665194   -1.217056
     27          1           0       -3.578207   -3.276543   -0.610867
     28          1           0       -4.939104   -1.846764    0.902119
     29          1           0       -4.394099    0.587239    1.144361
     30          1           0       -1.146634    0.148289   -1.627380
     31          1           0       -1.681045   -2.287146   -1.878665
     32          7           0       -2.429657    1.904766   -0.085731
     33          8           0       -1.482274    2.343088   -0.734558
     34          8           0       -3.133245    2.566245    0.674562
 ---------------------------------------------------------------------

 SCF Done:  E(RHF) =  -669.534865136     A.U. after   15 cycles
 E2 =    -0.2093000829D+01 EUMP2 =    -0.67162786596531D+03

 The electronic state is 1-A.
 Alpha  occ. eigenvalues --  -20.60846 -20.60834 -15.85878 -11.31184 -11.27785
 Alpha  occ. eigenvalues --  -11.27780 -11.27538 -11.26786 -11.26776 -11.21667
 Alpha  occ. eigenvalues --  -11.21463 -11.21318 -11.21235 -11.20972 -11.20967
 Alpha  occ. eigenvalues --   -1.59906  -1.39463  -1.19389  -1.08790  -1.08357
 Alpha  occ. eigenvalues --   -1.04794  -1.03468  -0.95913  -0.95623  -0.86929
 Alpha  occ. eigenvalues --   -0.86191  -0.82462  -0.79539  -0.78160  -0.77513
 Alpha  occ. eigenvalues --   -0.72101  -0.71229  -0.70513  -0.65045  -0.65004
 Alpha  occ. eigenvalues --   -0.64789  -0.62153  -0.60884  -0.59282  -0.57517
 Alpha  occ. eigenvalues --   -0.55354  -0.55226  -0.53230  -0.52885  -0.52452
 Alpha  occ. eigenvalues --   -0.52318  -0.49817  -0.48865  -0.48852  -0.47853
 Alpha  occ. eigenvalues --   -0.46585  -0.45711  -0.45627  -0.44843  -0.43711
 Alpha  occ. eigenvalues --   -0.37338  -0.36323
 Alpha virt. eigenvalues --    0.05009   0.11198   0.16472   0.21004   0.22941
 Alpha virt. eigenvalues --    0.24241   0.26403   0.27309   0.27723   0.28052
 Alpha virt. eigenvalues --    0.28457   0.30483   0.31428   0.31677   0.32062

 Mulliken charges:
               1
     1  C   -0.300109
     2  C   -0.299038
     3  C   -0.478292
     4  H    0.151422
     5  H    0.156164
     6  H    0.151114
     7  H    0.143261
     8  H    0.158608
     9  H    0.156469
    10  H    0.157350
    11  C   -0.297855
    12  C   -0.300104
    13  C   -0.475646
    14  H    0.148278
    15  H    0.147058
    16  H    0.152738
    17  H    0.154673
    18  H    0.154264
    19  H    0.154298
    20  H    0.160882
    21  C   -0.171331
    22  C   -0.218621
    23  C   -0.170499
    24  C    0.161061
    25  C   -0.170378
    26  C   -0.216862
    27  H    0.225776
    28  H    0.223512
    29  H    0.275735
    30  H    0.274933
    31  H    0.223506
    32  N    0.488655
    33  O   -0.461612
    34  O   -0.459412
 Sum of Mulliken charges =  -0.00000

 Dipole moment (field-independent basis, Debye):
    X=             -1.1932    Y=             -4.9851    Z=             -0.4924  Tot=              5.1495
 Quadrupole moment (field-independent basis, Debye-Ang):
   XX=            -86.8585   YY=           -100.1460   ZZ=            -92.3375
   XY=             13.4568   XZ=             -0.3134   YZ=              1.0996

 Normal termination of Gaussian 16 at Thu May  6 07:21:31 2021.
