 Gaussian 16, Revision A.03,
 Gaussian 16:  EM64L-G16RevA.03 25-Dec-2016

 -------------
 #p 6-31g* mp2
 -------------

 ------------------------------------------------------
 Input file generated by CHIRIPA (05-May-2021 14:53:15)
 ------------------------------------------------------
 Symbolic Z-matrix:
 Charge =  0 Multiplicity = 1

                         Standard orientation:
 ---------------------------------------------------------------------
 Center     Atomic      Atomic             Coordinates (Angstroms)
 Number     Number       Type             X           Y           Z
 ---------------------------------------------------------------------
      1          6           0       -2.754233   -1.152601   -0.063638
      2          6           0       -1.383415   -0.855102    0.544917
      3          6           0       -0.381541   -1.989563    0.328032
      4          1           0       -3.148591   -2.080425    0.372904
      5          1           0       -2.637138   -1.338798   -1.140214
      6          1           0       -1.503245   -0.668160    1.619770
      7          1           0       -0.992359    0.072224    0.107015
      8          1           0       -0.232564   -2.172829   -0.740996
      9          1           0       -0.746352   -2.917420    0.780354
     10          1           0        0.591609   -1.755920    0.771034
     11          6           0       -3.766679   -0.027803    0.144947
     12          6           0       -5.137496   -0.325302   -0.463608
     13          6           0       -6.139371    0.809159   -0.246723
     14          1           0       -3.883774    0.158394    1.221523
     15          1           0       -3.372321    0.900021   -0.291595
     16          1           0       -5.528552   -1.252628   -0.025706
     17          1           0       -5.017667   -0.512244   -1.538461
     18          1           0       -5.774559    1.737016   -0.699045
     19          1           0       -6.288348    0.992425    0.822305
     20          1           0       -7.112520    0.575516   -0.689725
     21          6           0        1.364358    2.667127    0.284715
     22          6           0        1.787059    2.276047   -0.990002
     23          6           0        2.443407    1.055906   -1.177118
     24          6           0        2.661586    0.247824   -0.062357
     25          6           0        2.252483    0.609611    1.220232
     26          6           0        1.598008    1.834130    1.383826
     27          1           0        0.855219    3.616663    0.420935
     28          1           0        1.606954    2.920942   -1.845406
     29          1           0        2.781274    0.728565   -2.152879
     30          1           0        2.446259   -0.054550    2.053754
     31          1           0        1.270847    2.135272    2.374948
     32          7           0        3.355443   -1.046201   -0.247997
     33          8           0        3.535636   -1.740141    0.750308
     34          8           0        3.705954   -1.342016   -1.388292
 ---------------------------------------------------------------------

 SCF Done:  E(RHF) =  -669.535136989     A.U. after   15 cycles
 E2 =    -0.2094191310D+01 EUMP2 =    -0.67162932829857D+03

 The electronic state is 1-A.
 Alpha  occ. eigenvalues --  -20.60880 -20.60872 -15.85893 -11.31235 -11.27823
 Alpha  occ. eigenvalues --  -11.27804 -11.27568 -11.26850 -11.26834 -11.21747
 Alpha  occ. eigenvalues --  -11.21547 -11.21535 -11.21388 -11.21265 -11.20776
 Alpha  occ. eigenvalues --   -1.59930  -1.39489  -1.19433  -1.08829  -1.08498
 Alpha  occ. eigenvalues --   -1.04837  -1.03556  -0.96005  -0.95661  -0.87021
 Alpha  occ. eigenvalues --   -0.86231  -0.82497  -0.79628  -0.78316  -0.77547
 Alpha  occ. eigenvalues --   -0.72127  -0.71264  -0.70543  -0.65135  -0.65087
 Alpha  occ. eigenvalues --   -0.64837  -0.62188  -0.60963  -0.59409  -0.57669
 Alpha  occ. eigenvalues --   -0.55338  -0.55303  -0.53238  -0.52927  -0.52577
 Alpha  occ. eigenvalues --   -0.52355  -0.49940  -0.48891  -0.48883  -0.47951
 Alpha  occ. eigenvalues --   -0.46666  -0.45849  -0.45779  -0.44909  -0.43770
 Alpha  occ. eigenvalues --   -0.37356  -0.36404
 Alpha virt. eigenvalues --    0.04965   0.11152   0.16462   0.21296   0.22770
 Alpha virt. eigenvalues --    0.24235   0.26504   0.27063   0.27461   0.27761
 Alpha virt. eigenvalues --    0.28420   0.30547   0.31341   0.31672   0.31746

 Mulliken charges:
               1
     1  C   -0.298146
     2  C   -0.301960
     3  C   -0.481654
     4  H    0.150714
     5  H    0.150036
     6  H    0.146494
     7  H    0.153117
     8  H    0.156796
     9  H    0.156917
    10  H    0.163799
    11  C   -0.297290
    12  C   -0.299598
    13  C   -0.475494
    14  H    0.147985
    15  H    0.146103
    16  H    0.153139
    17  H    0.152351
    18  H    0.153386
    19  H    0.154706
    20  H    0.160979
    21  C   -0.171567
    22  C   -0.218824
    23  C   -0.171491
    24  C    0.162286
    25  C   -0.173794
    26  C   -0.215979
    27  H    0.226113
    28  H    0.223712
    29  H    0.275727
    30  H    0.275561
    31  H    0.224126
    32  N    0.489947
    33  O   -0.459577
    34  O   -0.458619
 Sum of Mulliken charges =  -0.00000

 Dipole moment (field-independent basis, Debye):
    X=             -2.3253    Y=              4.5532    Z=              0.6276  Tot=              5.1509
 Quadrupole moment (field-independent basis, Debye-Ang):
   XX=           -109.2671   YY=            -93.1753   ZZ=            -89.2657
   XY=             12.4816   XZ=              1.2784   YZ=             -1.5247

 Normal termination of Gaussian 16 at Thu May  6 20:26:20 2021.
