 Gaussian 16, Revision A.03,
 Gaussian 16:  EM64L-G16RevA.03 25-Dec-2016

 -------------
 #p 6-31g* mp2
 -------------

 ------------------------------------------------------
 Input file generated by CHIRIPA (05-May-2021 14:55:24)
 ------------------------------------------------------
 Symbolic Z-matrix:
 Charge =  0 Multiplicity = 1

                         Standard orientation:
 ---------------------------------------------------------------------
 Center     Atomic      Atomic             Coordinates (Angstroms)
 Number     Number       Type             X           Y           Z
 ---------------------------------------------------------------------
      1          6           0       -2.250774    2.870981   -0.093517
      2          6           0       -3.323338    2.266795   -0.757660
      3          6           0       -3.542412    0.890446   -0.647127
      4          6           0       -2.665398    0.145158    0.139437
      5          6           0       -1.587890    0.717960    0.813355
      6          6           0       -1.387994    2.096001    0.688492
      7          1           0       -2.088041    3.940819   -0.184948
      8          1           0       -3.994994    2.866172   -1.365666
      9          1           0       -4.364915    0.396971   -1.150506
     10          1           0       -0.935313    0.094310    1.412206
     11          1           0       -0.554205    2.562523    1.205404
     12          7           0       -2.887171   -1.312817    0.264039
     13          8           0       -2.100200   -1.947328    0.963116
     14          8           0       -3.843767   -1.793459   -0.339735
     15          6           0        3.573314    0.238643   -0.087751
     16          6           0        5.088605    0.434876   -0.029698
     17          6           0        5.489849    1.904632    0.099212
     18          1           0        3.168703    0.806489   -0.936743
     19          1           0        3.120381    0.665263    0.817921
     20          1           0        5.538680    0.006781   -0.934564
     21          1           0        5.489681   -0.133656    0.819139
     22          1           0        5.067932    2.340647    1.010517
     23          1           0        5.117210    2.481882   -0.753151
     24          1           0        6.577288    2.021915    0.138987
     25          6           0        3.156536   -1.225396   -0.216637
     26          6           0        1.641245   -1.421630   -0.274689
     27          6           0        1.240000   -2.891384   -0.403600
     28          1           0        3.609470   -1.652017   -1.122309
     29          1           0        3.561147   -1.793242    0.632354
     30          1           0        1.240169   -0.853096   -1.123527
     31          1           0        1.191169   -0.993534    0.630176
     32          1           0        1.612641   -3.468635    0.448763
     33          1           0        1.661919   -3.327400   -1.314905
     34          1           0        0.152562   -3.008669   -0.443376
 ---------------------------------------------------------------------

 SCF Done:  E(RHF) =  -669.535856647     A.U. after   15 cycles
 E2 =    -0.2092349590D+01 EUMP2 =    -0.67162820623644D+03

 The electronic state is 1-A.
 Alpha  occ. eigenvalues --  -20.60915 -20.60909 -15.85933 -11.31222 -11.27795
 Alpha  occ. eigenvalues --  -11.27772 -11.27527 -11.26793 -11.26776 -11.21728
 Alpha  occ. eigenvalues --  -11.21517 -11.21366 -11.21282 -11.21254 -11.20246
 Alpha  occ. eigenvalues --   -1.59971  -1.39528  -1.19394  -1.08805  -1.08397
 Alpha  occ. eigenvalues --   -1.04787  -1.03389  -0.95816  -0.95641  -0.86819
 Alpha  occ. eigenvalues --   -0.86190  -0.82486  -0.79495  -0.78233  -0.77532
 Alpha  occ. eigenvalues --   -0.72162  -0.71285  -0.70511  -0.65057  -0.65046
 Alpha  occ. eigenvalues --   -0.64783  -0.62156  -0.60785  -0.59200  -0.57403
 Alpha  occ. eigenvalues --   -0.55302  -0.55108  -0.53125  -0.52888  -0.52439
 Alpha  occ. eigenvalues --   -0.52226  -0.49767  -0.48926  -0.48914  -0.47778
 Alpha  occ. eigenvalues --   -0.46553  -0.45741  -0.45678  -0.44921  -0.43603
 Alpha  occ. eigenvalues --   -0.37372  -0.36368
 Alpha virt. eigenvalues --    0.04938   0.11232   0.16428   0.20735   0.22935
 Alpha virt. eigenvalues --    0.24255   0.25596   0.27037   0.27637   0.28289
 Alpha virt. eigenvalues --    0.29029   0.30342   0.31482   0.31709   0.32544

 Mulliken charges:
               1
     1  C   -0.170544
     2  C   -0.218770
     3  C   -0.170793
     4  C    0.156971
     5  C   -0.169062
     6  C   -0.219637
     7  H    0.225823
     8  H    0.223486
     9  H    0.275512
    10  H    0.278923
    11  H    0.224028
    12  N    0.487629
    13  O   -0.459858
    14  O   -0.458946
    15  C   -0.296858
    16  C   -0.299402
    17  C   -0.475486
    18  H    0.148141
    19  H    0.142595
    20  H    0.153272
    21  H    0.152984
    22  H    0.152783
    23  H    0.154014
    24  H    0.161176
    25  C   -0.297740
    26  C   -0.300264
    27  C   -0.480876
    28  H    0.150479
    29  H    0.150594
    30  H    0.148899
    31  H    0.144970
    32  H    0.154434
    33  H    0.150015
    34  H    0.181508
 Sum of Mulliken charges =  -0.00000

 Dipole moment (field-independent basis, Debye):
    X=              0.6404    Y=              5.0385    Z=             -0.4519  Tot=              5.0991
 Quadrupole moment (field-independent basis, Debye-Ang):
   XX=            -96.3635   YY=            -94.5956   ZZ=            -92.7047
   XY=            -14.4997   XZ=              4.0125   YZ=              0.1589

 Normal termination of Gaussian 16 at Thu May  6 16:01:07 2021.
