 Gaussian 16, Revision A.03,
 Gaussian 16:  EM64L-G16RevA.03 25-Dec-2016

 -------------
 #p 6-31g* mp2
 -------------

 ------------------------------------------------------
 Input file generated by CHIRIPA (05-May-2021 14:51:10)
 ------------------------------------------------------
 Symbolic Z-matrix:
 Charge =  0 Multiplicity = 1

                         Standard orientation:
 ---------------------------------------------------------------------
 Center     Atomic      Atomic             Coordinates (Angstroms)
 Number     Number       Type             X           Y           Z
 ---------------------------------------------------------------------
      1          6           0        3.280034   -0.335035    0.028338
      2          6           0        3.472215   -1.317538   -1.127404
      3          6           0        3.575491   -2.769121   -0.658325
      4          1           0        4.118886   -0.436163    0.730510
      5          1           0        2.372285   -0.607066    0.584563
      6          1           0        4.378574   -1.042904   -1.682114
      7          1           0        2.632906   -1.213924   -1.827004
      8          1           0        2.667932   -3.066499   -0.123063
      9          1           0        4.423519   -2.894507    0.022650
     10          1           0        3.712538   -3.454425   -1.500605
     11          6           0        3.175073    1.120128   -0.424667
     12          6           0        2.982893    2.102631    0.731075
     13          6           0        2.879617    3.554214    0.261996
     14          1           0        4.082822    1.392158   -0.980892
     15          1           0        2.336222    1.221256   -1.126839
     16          1           0        3.822202    1.999017    1.430675
     17          1           0        2.076533    1.827997    1.285785
     18          1           0        2.031588    3.679600   -0.418979
     19          1           0        3.787175    3.851592   -0.273265
     20          1           0        2.742570    4.239518    1.104277
     21          6           0       -3.881444   -0.362224   -0.195461
     22          6           0       -4.516037    1.028834   -0.210766
     23          6           0       -5.823519    1.073451   -1.002152
     24          1           0       -3.697290   -0.685661   -1.229106
     25          1           0       -4.595524   -1.078669    0.233713
     26          1           0       -3.800453    1.742690   -0.638511
     27          1           0       -4.698524    1.349075    0.823042
     28          1           0       -6.557245    0.383391   -0.573126
     29          1           0       -5.654072    0.779242   -2.042982
     30          1           0       -6.260012    2.077110   -1.000063
     31          6           0       -2.573664   -0.422868    0.591790
     32          6           0       -1.939071   -1.813926    0.607095
     33          6           0       -0.631587   -1.858545    1.398481
     34          1           0       -1.859584    0.293576    0.162616
     35          1           0       -2.757818   -0.099433    1.625435
     36          1           0       -1.756583   -2.134168   -0.426713
     37          1           0       -2.654654   -2.527783    1.034839
     38          1           0       -0.801036   -1.564335    2.439312
     39          1           0        0.102137   -1.168483    0.969454
     40          1           0       -0.195096   -2.862203    1.396391
 ---------------------------------------------------------------------

 SCF Done:  E(RHF) =  -470.733328477     A.U. after   11 cycles
 E2 =    -0.1582874047D+01 EUMP2 =    -0.47231620252377D+03

 The electronic state is 1-A.
 Alpha  occ. eigenvalues --  -11.21673 -11.21639 -11.21596 -11.21582 -11.21463
 Alpha  occ. eigenvalues --  -11.21401 -11.21388 -11.21314 -11.21160 -11.21099
 Alpha  occ. eigenvalues --  -11.21070 -11.21033  -1.08488  -1.08416  -1.03590
 Alpha  occ. eigenvalues --   -1.03511  -0.96043  -0.95960  -0.87063  -0.86975
 Alpha  occ. eigenvalues --   -0.79666  -0.79565  -0.78312  -0.78215  -0.65183
 Alpha  occ. eigenvalues --   -0.65005  -0.61038  -0.60863  -0.59411  -0.59325
 Alpha  occ. eigenvalues --   -0.57679  -0.57549  -0.55399  -0.55194  -0.52736
 Alpha  occ. eigenvalues --   -0.52657  -0.52514  -0.52343  -0.50071  -0.49843
 Alpha  occ. eigenvalues --   -0.47989  -0.47885  -0.46780  -0.46568  -0.45917
 Alpha  occ. eigenvalues --   -0.45794  -0.45749  -0.45470  -0.43839  -0.43768
 Alpha virt. eigenvalues --    0.20579   0.23129   0.23800   0.24868   0.25588
 Alpha virt. eigenvalues --    0.26759   0.27063   0.27239   0.27926   0.29182
 Alpha virt. eigenvalues --    0.30706   0.31706   0.31734   0.31919   0.31953

 Mulliken charges:
               1
     1  C   -0.307034
     2  C   -0.298902
     3  C   -0.477129
     4  H    0.149932
     5  H    0.158003
     6  H    0.151855
     7  H    0.151171
     8  H    0.156933
     9  H    0.155116
    10  H    0.159892
    11  C   -0.297890
    12  C   -0.299920
    13  C   -0.475611
    14  H    0.149640
    15  H    0.148644
    16  H    0.152182
    17  H    0.151979
    18  H    0.154890
    19  H    0.155201
    20  H    0.160352
    21  C   -0.298357
    22  C   -0.299697
    23  C   -0.475749
    24  H    0.149724
    25  H    0.149750
    26  H    0.151890
    27  H    0.152064
    28  H    0.155269
    29  H    0.155230
    30  H    0.160410
    31  C   -0.298415
    32  C   -0.299409
    33  C   -0.483067
    34  H    0.149031
    35  H    0.149916
    36  H    0.152092
    37  H    0.152402
    38  H    0.156002
    39  H    0.160535
    40  H    0.161074
 Sum of Mulliken charges =  -0.00000

 Dipole moment (field-independent basis, Debye):
    X=             -0.0279    Y=             -0.0088    Z=              0.0232  Tot=              0.0374
 Quadrupole moment (field-independent basis, Debye-Ang):
   XX=            -84.3618   YY=            -85.9818   ZZ=            -84.3656
   XY=              0.5264   XZ=             -0.8566   YZ=              0.0939

 Normal termination of Gaussian 16 at Thu May  6 06:58:41 2021.
