 Gaussian 16, Revision A.03,
 Gaussian 16:  EM64L-G16RevA.03 25-Dec-2016

 -------------
 #p 6-31g* mp2
 -------------

 ------------------------------------------------------
 Input file generated by CHIRIPA (05-May-2021 14:51:08)
 ------------------------------------------------------
 Symbolic Z-matrix:
 Charge =  0 Multiplicity = 1

                         Standard orientation:
 ---------------------------------------------------------------------
 Center     Atomic      Atomic             Coordinates (Angstroms)
 Number     Number       Type             X           Y           Z
 ---------------------------------------------------------------------
      1          6           0       -2.491859   -0.660878   -0.447101
      2          6           0       -3.618913    0.181605    0.151191
      3          6           0       -4.381828    0.983177   -0.903909
      4          1           0       -1.795379   -0.002095   -0.983634
      5          1           0       -2.913359   -1.346090   -1.195577
      6          1           0       -3.195604    0.864060    0.899309
      7          1           0       -4.312687   -0.479237    0.686524
      8          1           0       -4.830882    0.314537   -1.645443
      9          1           0       -3.707452    1.665467   -1.431449
     10          1           0       -5.182939    1.578174   -0.454399
     11          6           0       -1.719920   -1.467934    0.595252
     12          6           0       -0.592866   -2.310418   -0.003041
     13          6           0        0.170049   -3.111989    1.052060
     14          1           0       -1.298420   -0.782722    1.343728
     15          1           0       -2.416400   -2.126717    1.131784
     16          1           0        0.100908   -1.649575   -0.538373
     17          1           0       -1.016175   -2.992873   -0.751159
     18          1           0       -0.504327   -3.794280    1.579599
     19          1           0        0.619103   -2.443350    1.793594
     20          1           0        0.971160   -3.706987    0.602550
     21          6           0        1.849704    1.568810    0.439129
     22          6           0        1.065958    2.723920   -0.184929
     23          6           0        0.559995    3.724672    0.854442
     24          1           0        1.210292    1.051478    1.167459
     25          1           0        2.700774    1.974848    1.003226
     26          1           0        0.217415    2.315744   -0.748828
     27          1           0        1.707247    3.238444   -0.911999
     28          1           0        1.397156    4.159322    1.410178
     29          1           0       -0.101142    3.231379    1.574276
     30          1           0        0.002500    4.542092    0.386590
     31          6           0        2.362075    0.560003   -0.587279
     32          6           0        3.145821   -0.595108    0.036779
     33          6           0        3.651784   -1.595860   -1.002592
     34          1           0        1.511005    0.153964   -1.151377
     35          1           0        3.001487    1.077335   -1.315610
     36          1           0        2.504532   -1.109632    0.763847
     37          1           0        3.994364   -0.186932    0.600678
     38          1           0        4.312920   -1.102566   -1.722426
     39          1           0        2.814623   -2.030509   -1.558329
     40          1           0        4.209278   -2.413279   -0.534740
 ---------------------------------------------------------------------

 SCF Done:  E(RHF) =  -470.732649811     A.U. after   11 cycles
 E2 =    -0.1585508818D+01 EUMP2 =    -0.47231815862945D+03

 The electronic state is 1-A.
 Alpha  occ. eigenvalues --  -11.21676 -11.21653 -11.21646 -11.21568 -11.21481
 Alpha  occ. eigenvalues --  -11.21461 -11.21422 -11.21391 -11.21132 -11.21129
 Alpha  occ. eigenvalues --  -11.21105 -11.21071  -1.08557  -1.08426  -1.03651
 Alpha  occ. eigenvalues --   -1.03506  -0.96065  -0.95994  -0.87058  -0.87033
 Alpha  occ. eigenvalues --   -0.79704  -0.79588  -0.78407  -0.78204  -0.65627
 Alpha  occ. eigenvalues --   -0.64695  -0.61383  -0.60587  -0.59388  -0.59380
 Alpha  occ. eigenvalues --   -0.57642  -0.57627  -0.55439  -0.55201  -0.52729
 Alpha  occ. eigenvalues --   -0.52699  -0.52466  -0.52443  -0.50020  -0.49960
 Alpha  occ. eigenvalues --   -0.48057  -0.47847  -0.46934  -0.46512  -0.46177
 Alpha  occ. eigenvalues --   -0.45955  -0.45645  -0.45264  -0.43843  -0.43822
 Alpha virt. eigenvalues --    0.18337   0.21542   0.23696   0.24579   0.25192
 Alpha virt. eigenvalues --    0.26212   0.26892   0.28003   0.29389   0.29552
 Alpha virt. eigenvalues --    0.30692   0.31456   0.31716   0.32394   0.32624

 Mulliken charges:
               1
     1  C   -0.300644
     2  C   -0.299639
     3  C   -0.475743
     4  H    0.150611
     5  H    0.150015
     6  H    0.151921
     7  H    0.152249
     8  H    0.155279
     9  H    0.155218
    10  H    0.160561
    11  C   -0.298807
    12  C   -0.309109
    13  C   -0.477857
    14  H    0.149680
    15  H    0.150257
    16  H    0.160673
    17  H    0.152428
    18  H    0.155915
    19  H    0.155362
    20  H    0.161975
    21  C   -0.299519
    22  C   -0.301348
    23  C   -0.475657
    24  H    0.149818
    25  H    0.150220
    26  H    0.152540
    27  H    0.152536
    28  H    0.155562
    29  H    0.154762
    30  H    0.160589
    31  C   -0.302668
    32  C   -0.306361
    33  C   -0.476821
    34  H    0.151916
    35  H    0.150438
    36  H    0.159959
    37  H    0.152167
    38  H    0.155123
    39  H    0.156111
    40  H    0.160290
 Sum of Mulliken charges =  -0.00000

 Dipole moment (field-independent basis, Debye):
    X=             -0.0004    Y=             -0.0134    Z=              0.0032  Tot=              0.0138
 Quadrupole moment (field-independent basis, Debye-Ang):
   XX=            -84.1460   YY=            -84.8544   ZZ=            -85.5865
   XY=              1.7512   XZ=             -0.1187   YZ=             -0.0602

 Normal termination of Gaussian 16 at Thu May  6 05:16:15 2021.
