 Gaussian 16, Revision A.03,
 Gaussian 16:  EM64L-G16RevA.03 25-Dec-2016

 -------------
 #p 6-31g* mp2
 -------------

 ------------------------------------------------------
 Input file generated by CHIRIPA (05-May-2021 14:53:17)
 ------------------------------------------------------
 Symbolic Z-matrix:
 Charge =  0 Multiplicity = 1

                         Standard orientation:
 ---------------------------------------------------------------------
 Center     Atomic      Atomic             Coordinates (Angstroms)
 Number     Number       Type             X           Y           Z
 ---------------------------------------------------------------------
      1          6           0       -4.209234    0.399475    0.245048
      2          6           0       -5.593765    0.848022   -0.223851
      3          6           0       -6.203039    1.923427    0.676194
      4          1           0       -4.282418    0.020501    1.273623
      5          1           0       -3.541334    1.271305    0.279939
      6          1           0       -6.258481   -0.024630   -0.259174
      7          1           0       -5.517311    1.225794   -1.251498
      8          1           0       -5.562869    2.811148    0.703304
      9          1           0       -6.308250    1.553619    1.701267
     10          1           0       -7.192609    2.229440    0.322687
     11          6           0       -3.587088   -0.675315   -0.644608
     12          6           0       -2.202557   -1.123862   -0.175710
     13          6           0       -1.593283   -2.199267   -1.075755
     14          1           0       -4.254988   -1.547145   -0.679500
     15          1           0       -3.513904   -0.296342   -1.673184
     16          1           0       -2.279011   -1.501634    0.851938
     17          1           0       -1.537841   -0.251210   -0.140387
     18          1           0       -1.488072   -1.829459   -2.100827
     19          1           0       -2.233454   -3.086988   -1.102865
     20          1           0       -0.603713   -2.505280   -0.722247
     21          6           0        4.034880    2.214284   -0.818315
     22          6           0        3.769336    2.134767    0.552701
     23          6           0        3.221189    0.972571    1.103505
     24          6           0        2.949783   -0.095902    0.250279
     25          6           0        3.203082   -0.047270   -1.119671
     26          6           0        3.751406    1.124932   -1.648661
     27          1           0        4.460763    3.120992   -1.237719
     28          1           0        3.988466    2.979212    1.199958
     29          1           0        3.005669    0.884017    2.161392
     30          1           0        2.973896   -0.905500   -1.739618
     31          1           0        3.956589    1.183857   -2.713778
     32          7           0        2.369391   -1.331564    0.821843
     33          8           0        2.139354   -2.259005    0.048815
     34          8           0        2.155506   -1.349236    2.032041
 ---------------------------------------------------------------------

 SCF Done:  E(RHF) =  -669.536383038     A.U. after   15 cycles
 E2 =    -0.2091015493D+01 EUMP2 =    -0.67162739853099D+03

 The electronic state is 1-A.
 Alpha  occ. eigenvalues --  -20.60957 -20.60952 -15.85979 -11.31286 -11.27847
 Alpha  occ. eigenvalues --  -11.27843 -11.27586 -11.26853 -11.26843 -11.21303
 Alpha  occ. eigenvalues --  -11.20982 -11.20877 -11.20844 -11.20816 -11.20000
 Alpha  occ. eigenvalues --   -1.60010  -1.39567  -1.19453  -1.08861  -1.07937
 Alpha  occ. eigenvalues --   -1.04847  -1.02974  -0.95706  -0.95409  -0.86428
 Alpha  occ. eigenvalues --   -0.86248  -0.82539  -0.79058  -0.77738  -0.77593
 Alpha  occ. eigenvalues --   -0.72203  -0.71321  -0.70563  -0.65109  -0.64851
 Alpha  occ. eigenvalues --   -0.64579  -0.62194  -0.60387  -0.58788  -0.56996
 Alpha  occ. eigenvalues --   -0.55354  -0.54723  -0.53182  -0.52939  -0.52055
 Alpha  occ. eigenvalues --   -0.51837  -0.49387  -0.48967  -0.48952  -0.47366
 Alpha  occ. eigenvalues --   -0.46121  -0.45284  -0.45210  -0.44957  -0.43174
 Alpha  occ. eigenvalues --   -0.37431  -0.36448
 Alpha virt. eigenvalues --    0.04897   0.11207   0.16366   0.21330   0.23309
 Alpha virt. eigenvalues --    0.24883   0.27093   0.27256   0.27922   0.28099
 Alpha virt. eigenvalues --    0.28728   0.30876   0.31898   0.32240   0.32320

 Mulliken charges:
               1
     1  C   -0.297602
     2  C   -0.299139
     3  C   -0.475316
     4  H    0.150540
     5  H    0.147122
     6  H    0.152008
     7  H    0.150439
     8  H    0.153712
     9  H    0.155455
    10  H    0.159080
    11  C   -0.297336
    12  C   -0.298168
    13  C   -0.487548
    14  H    0.149248
    15  H    0.146508
    16  H    0.156154
    17  H    0.145575
    18  H    0.146481
    19  H    0.152247
    20  H    0.185464
    21  C   -0.170570
    22  C   -0.218652
    23  C   -0.170725
    24  C    0.158338
    25  C   -0.170608
    26  C   -0.218668
    27  H    0.225970
    28  H    0.223810
    29  H    0.275904
    30  H    0.276221
    31  H    0.223857
    32  N    0.488461
    33  O   -0.459947
    34  O   -0.458315
 Sum of Mulliken charges =  -0.00000

 Dipole moment (field-independent basis, Debye):
    X=              2.2790    Y=              4.2856    Z=             -1.9268  Tot=              5.2223
 Quadrupole moment (field-independent basis, Debye-Ang):
   XX=            -84.1661   YY=            -95.2018   ZZ=            -91.8081
   XY=             13.8256   XZ=             -5.6512   YZ=              2.4494

 Normal termination of Gaussian 16 at Wed May  5 17:15:53 2021.
