 Gaussian 16, Revision A.03,
 Gaussian 16:  EM64L-G16RevA.03 25-Dec-2016

 -------------
 #p 6-31g* mp2
 -------------

 ------------------------------------------------------
 Input file generated by CHIRIPA (05-May-2021 14:53:14)
 ------------------------------------------------------
 Symbolic Z-matrix:
 Charge =  0 Multiplicity = 1

                         Standard orientation:
 ---------------------------------------------------------------------
 Center     Atomic      Atomic             Coordinates (Angstroms)
 Number     Number       Type             X           Y           Z
 ---------------------------------------------------------------------
      1          6           0        3.354378   -0.818150   -0.063882
      2          6           0        2.083692   -0.332583   -0.762142
      3          6           0        0.875641   -1.226244   -0.479694
      4          1           0        3.572857   -1.845286   -0.386685
      5          1           0        3.175109   -0.862383    1.019309
      6          1           0        2.265742   -0.287958   -1.843568
      7          1           0        1.868319    0.693586   -0.437784
      8          1           0        0.665873   -1.262370    0.594221
      9          1           0        1.065553   -2.249490   -0.819550
     10          1           0       -0.021786   -0.860808   -0.988556
     11          6           0        4.570706    0.064962   -0.336624
     12          6           0        5.841392   -0.420604    0.361636
     13          6           0        7.049443    0.473057    0.079188
     14          1           0        4.749974    0.109195   -1.419814
     15          1           0        4.352227    1.092099   -0.013820
     16          1           0        6.056764   -1.446773    0.037279
     17          1           0        5.659342   -0.465230    1.443063
     18          1           0        6.859531    1.496303    0.419044
     19          1           0        7.259211    0.509182   -0.994727
     20          1           0        7.946870    0.107620    0.588050
     21          6           0       -1.552050    2.274241    0.406347
     22          6           0       -1.343751    1.123083    1.173139
     23          6           0       -2.192777    0.020016    1.042958
     24          6           0       -3.244974    0.102792    0.132288
     25          6           0       -3.478547    1.235586   -0.645859
     26          6           0       -2.616905    2.326726   -0.499108
     27          1           0       -0.887607    3.126498    0.513911
     28          1           0       -0.517580    1.079504    1.877117
     29          1           0       -2.054496   -0.883642    1.624075
     30          1           0       -4.310639    1.249319   -1.339294
     31          1           0       -2.781082    3.219423   -1.095918
     32          7           0       -4.150477   -1.058662   -0.014300
     33          8           0       -5.070269   -0.960655   -0.823629
     34          8           0       -3.923273   -2.045026    0.682911
 ---------------------------------------------------------------------

 SCF Done:  E(RHF) =  -669.534484467     A.U. after   15 cycles
 E2 =    -0.2092780418D+01 EUMP2 =    -0.67162726488510D+03

 The electronic state is 1-A.
 Alpha  occ. eigenvalues --  -20.60758 -20.60753 -15.85814 -11.31187 -11.27761
 Alpha  occ. eigenvalues --  -11.27744 -11.27511 -11.26775 -11.26758 -11.22032
 Alpha  occ. eigenvalues --  -11.21945 -11.21813 -11.21753 -11.21385 -11.21342
 Alpha  occ. eigenvalues --   -1.59834  -1.39387  -1.19373  -1.08829  -1.08757
 Alpha  occ. eigenvalues --   -1.04785  -1.03885  -0.96332  -0.95592  -0.87349
 Alpha  occ. eigenvalues --   -0.86169  -0.82426  -0.79959  -0.78640  -0.77470
 Alpha  occ. eigenvalues --   -0.72031  -0.71160  -0.70477  -0.65477  -0.65021
 Alpha  occ. eigenvalues --   -0.64773  -0.62156  -0.61282  -0.59714  -0.57948
 Alpha  occ. eigenvalues --   -0.55676  -0.55269  -0.53437  -0.52870  -0.52788
 Alpha  occ. eigenvalues --   -0.52568  -0.50272  -0.48791  -0.48784  -0.48268
 Alpha  occ. eigenvalues --   -0.47014  -0.46177  -0.46119  -0.44790  -0.44145
 Alpha  occ. eigenvalues --   -0.37357  -0.36278
 Alpha virt. eigenvalues --    0.05066   0.11194   0.16491   0.20444   0.22673
 Alpha virt. eigenvalues --    0.23992   0.25838   0.26460   0.27221   0.28082
 Alpha virt. eigenvalues --    0.28477   0.30587   0.31280   0.31413   0.32221

 Mulliken charges:
               1
     1  C   -0.298108
     2  C   -0.300143
     3  C   -0.473027
     4  H    0.152657
     5  H    0.146464
     6  H    0.154204
     7  H    0.144349
     8  H    0.144861
     9  H    0.158352
    10  H    0.166532
    11  C   -0.297862
    12  C   -0.299799
    13  C   -0.475784
    14  H    0.150790
    15  H    0.146558
    16  H    0.153557
    17  H    0.151375
    18  H    0.154209
    19  H    0.155897
    20  H    0.161378
    21  C   -0.172048
    22  C   -0.214081
    23  C   -0.167714
    24  C    0.157093
    25  C   -0.171725
    26  C   -0.218835
    27  H    0.225507
    28  H    0.222996
    29  H    0.275755
    30  H    0.275640
    31  H    0.223457
    32  N    0.488175
    33  O   -0.460592
    34  O   -0.460090
 Sum of Mulliken charges =  -0.00000

 Dipole moment (field-independent basis, Debye):
    X=              3.2034    Y=              4.0472    Z=              0.4651  Tot=              5.1825
 Quadrupole moment (field-independent basis, Debye-Ang):
   XX=           -115.4469   YY=            -93.1410   ZZ=            -92.0073
   XY=            -15.3047   XZ=              0.6227   YZ=             -0.7916

 Normal termination of Gaussian 16 at Thu May  6 05:49:48 2021.
