 Gaussian 16, Revision A.03,
 Gaussian 16:  EM64L-G16RevA.03 25-Dec-2016

 -------------
 #p 6-31g* mp2
 -------------

 ------------------------------------------------------
 Input file generated by CHIRIPA (05-May-2021 14:57:23)
 ------------------------------------------------------
 Symbolic Z-matrix:
 Charge =  0 Multiplicity = 1

                         Standard orientation:
 ---------------------------------------------------------------------
 Center     Atomic      Atomic             Coordinates (Angstroms)
 Number     Number       Type             X           Y           Z
 ---------------------------------------------------------------------
      1          6           0        3.837690   -2.265340   -0.322221
      2          6           0        2.486291   -2.047443   -0.609902
      3          6           0        1.960326   -0.752101   -0.610226
      4          6           0        2.818119    0.306962   -0.317196
      5          6           0        4.168931    0.122173   -0.026596
      6          6           0        4.673225   -1.181747   -0.031998
      7          1           0        4.237855   -3.274924   -0.324194
      8          1           0        1.835061   -2.887075   -0.835651
      9          1           0        0.917982   -0.554906   -0.829430
     10          1           0        4.793425    0.979185    0.194667
     11          1           0        5.723145   -1.347980    0.191786
     12          7           0        2.272775    1.682823   -0.314508
     13          8           0        3.049332    2.598953   -0.053161
     14          8           0        1.079104    1.819041   -0.573799
     15          6           0       -4.671639   -0.269871   -1.476663
     16          6           0       -4.057505    0.961636   -1.226168
     17          6           0       -3.079060    1.078410   -0.234423
     18          6           0       -2.737496   -0.061867    0.491105
     19          6           0       -3.331199   -1.302727    0.265108
     20          6           0       -4.307170   -1.396137   -0.731539
     21          1           0       -5.430758   -0.351510   -2.248978
     22          1           0       -4.338561    1.837988   -1.803282
     23          1           0       -2.587579    2.019556   -0.019696
     24          1           0       -3.030009   -2.158627    0.856831
     25          1           0       -4.782435   -2.353825   -0.923896
     26          7           0       -1.702970    0.049388    1.543616
     27          8           0       -1.419797   -0.970132    2.168938
     28          8           0       -1.194871    1.154006    1.723322
 ---------------------------------------------------------------------

 SCF Done:  E(RHF) =  -868.337558350     A.U. after   16 cycles
 E2 =    -0.2600634037D+01 EUMP2 =    -0.87093819238744D+03

 The electronic state is 1-A.
 Alpha  occ. eigenvalues --  -20.60467 -20.60319 -20.60124 -20.60063 -15.85429
 Alpha  occ. eigenvalues --  -15.85142 -11.30896 -11.30568 -11.27556 -11.27370
 Alpha  occ. eigenvalues --  -11.27264 -11.27179 -11.27150 -11.26927 -11.26567
 Alpha  occ. eigenvalues --  -11.26448 -11.26204 -11.26194  -1.59476  -1.59145
 Alpha  occ. eigenvalues --   -1.39015  -1.38703  -1.19086  -1.18747  -1.08471
 Alpha  occ. eigenvalues --   -1.08135  -1.04488  -1.04174  -0.95283  -0.94965
 Alpha  occ. eigenvalues --   -0.85881  -0.85576  -0.82104  -0.81806  -0.77134
 Alpha  occ. eigenvalues --   -0.76838  -0.71672  -0.71398  -0.70830  -0.70388
 Alpha  occ. eigenvalues --   -0.70178  -0.69889  -0.64727  -0.64489  -0.64415
 Alpha  occ. eigenvalues --   -0.64202  -0.61814  -0.61542  -0.55001  -0.54697
 Alpha  occ. eigenvalues --   -0.52836  -0.52571  -0.52474  -0.52292  -0.48443
 Alpha  occ. eigenvalues --   -0.48400  -0.48149  -0.48120  -0.44599  -0.43843
 Alpha  occ. eigenvalues --   -0.37095  -0.36723  -0.36097  -0.35762
 Alpha virt. eigenvalues --    0.05340   0.05773   0.11551   0.11883   0.16807
 Alpha virt. eigenvalues --    0.17242   0.21675   0.21873   0.27584   0.27661
 Alpha virt. eigenvalues --    0.28531   0.28726   0.31052   0.31430   0.32696

 Mulliken charges:
               1
     1  C   -0.170855
     2  C   -0.216048
     3  C   -0.164696
     4  C    0.162118
     5  C   -0.170614
     6  C   -0.218277
     7  H    0.223411
     8  H    0.220739
     9  H    0.269225
    10  H    0.274604
    11  H    0.221556
    12  N    0.490520
    13  O   -0.462641
    14  O   -0.459700
    15  C   -0.171230
    16  C   -0.219577
    17  C   -0.166739
    18  C    0.153432
    19  C   -0.174959
    20  C   -0.219546
    21  H    0.224476
    22  H    0.225001
    23  H    0.286526
    24  H    0.272136
    25  H    0.220902
    26  N    0.485300
    27  O   -0.469586
    28  O   -0.445479
 Sum of Mulliken charges =  -0.00000

 Dipole moment (field-independent basis, Debye):
    X=             -1.7221    Y=             -4.9131    Z=             -3.6617  Tot=              6.3650
 Quadrupole moment (field-independent basis, Debye-Ang):
   XX=            -71.3158   YY=           -102.9748   ZZ=           -109.7402
   XY=            -10.0735   XZ=              9.3216   YZ=              1.1058

 Normal termination of Gaussian 16 at Thu May  6 11:19:53 2021.
