 Gaussian 16, Revision A.03,
 Gaussian 16:  EM64L-G16RevA.03 25-Dec-2016

 -------------
 #p 6-31g* mp2
 -------------

 ------------------------------------------------------
 Input file generated by CHIRIPA (05-May-2021 14:55:23)
 ------------------------------------------------------
 Symbolic Z-matrix:
 Charge =  0 Multiplicity = 1

                         Standard orientation:
 ---------------------------------------------------------------------
 Center     Atomic      Atomic             Coordinates (Angstroms)
 Number     Number       Type             X           Y           Z
 ---------------------------------------------------------------------
      1          6           0       -1.254204   -2.807203   -0.210583
      2          6           0       -0.636920   -1.851188    0.602754
      3          6           0       -1.219915   -0.594182    0.788764
      4          6           0       -2.426020   -0.325702    0.143381
      5          6           0       -3.065486   -1.257168   -0.673163
      6          6           0       -2.464383   -2.507670   -0.844828
      7          1           0       -0.794286   -3.781149   -0.349508
      8          1           0        0.302956   -2.081040    1.096563
      9          1           0       -0.763609    0.164494    1.412955
     10          1           0       -4.002037   -0.998850   -1.152289
     11          1           0       -2.946035   -3.248178   -1.477049
     12          7           0       -3.052796    1.001591    0.332708
     13          8           0       -4.115683    1.213476   -0.246957
     14          8           0       -2.469306    1.804906    1.057182
     15          6           0        3.151805    0.021646    0.165469
     16          6           0        4.537212   -0.482935   -0.239539
     17          6           0        4.880327   -1.834919    0.386724
     18          1           0        3.102677    0.099988    1.260180
     19          1           0        2.398011   -0.721703   -0.128844
     20          1           0        5.288036    0.261774    0.054210
     21          1           0        4.583112   -0.559903   -1.333425
     22          1           0        4.153294   -2.595386    0.083877
     23          1           0        4.862224   -1.769039    1.479396
     24          1           0        5.874950   -2.176799    0.083893
     25          6           0        2.794358    1.372163   -0.452644
     26          6           0        1.408950    1.876743   -0.047636
     27          6           0        1.065835    3.228728   -0.673898
     28          1           0        3.548152    2.115512   -0.158331
     29          1           0        2.843486    1.293820   -1.547356
     30          1           0        1.363051    1.953711    1.046249
     31          1           0        0.658127    1.132034   -0.341385
     32          1           0        1.083939    3.162848   -1.766571
     33          1           0        1.792868    3.989194   -0.371053
     34          1           0        0.071213    3.570606   -0.371068
 ---------------------------------------------------------------------

 SCF Done:  E(RHF) =  -669.535050637     A.U. after   15 cycles
 E2 =    -0.2093777236D+01 EUMP2 =    -0.67162882787367D+03

 The electronic state is 1-A.
 Alpha  occ. eigenvalues --  -20.60834 -20.60827 -15.85872 -11.31199 -11.27793
 Alpha  occ. eigenvalues --  -11.27727 -11.27530 -11.26784 -11.26749 -11.22030
 Alpha  occ. eigenvalues --  -11.21853 -11.21608 -11.21575 -11.21514 -11.20679
 Alpha  occ. eigenvalues --   -1.59897  -1.39452  -1.19392  -1.08786  -1.08705
 Alpha  occ. eigenvalues --   -1.04790  -1.03700  -0.96145  -0.95624  -0.87163
 Alpha  occ. eigenvalues --   -0.86182  -0.82456  -0.79825  -0.78592  -0.77456
 Alpha  occ. eigenvalues --   -0.72091  -0.71217  -0.70495  -0.65347  -0.65034
 Alpha  occ. eigenvalues --   -0.64785  -0.62135  -0.61104  -0.59530  -0.57739
 Alpha  occ. eigenvalues --   -0.55456  -0.55291  -0.53171  -0.52914  -0.52757
 Alpha  occ. eigenvalues --   -0.52524  -0.50103  -0.48851  -0.48848  -0.48086
 Alpha  occ. eigenvalues --   -0.46869  -0.46048  -0.45980  -0.44839  -0.43951
 Alpha  occ. eigenvalues --   -0.37367  -0.36299
 Alpha virt. eigenvalues --    0.04993   0.11154   0.16382   0.20752   0.22789
 Alpha virt. eigenvalues --    0.23927   0.25591   0.26008   0.27727   0.28290
 Alpha virt. eigenvalues --    0.29222   0.30330   0.31332   0.31529   0.32149

 Mulliken charges:
               1
     1  C   -0.171172
     2  C   -0.221257
     3  C   -0.173228
     4  C    0.157217
     5  C   -0.170510
     6  C   -0.218875
     7  H    0.225802
     8  H    0.226749
     9  H    0.282543
    10  H    0.275625
    11  H    0.223442
    12  N    0.488735
    13  O   -0.459839
    14  O   -0.461262
    15  C   -0.302881
    16  C   -0.299101
    17  C   -0.475694
    18  H    0.146648
    19  H    0.145423
    20  H    0.154764
    21  H    0.153453
    22  H    0.149789
    23  H    0.154935
    24  H    0.162738
    25  C   -0.296635
    26  C   -0.306463
    27  C   -0.479871
    28  H    0.151162
    29  H    0.150577
    30  H    0.149571
    31  H    0.154197
    32  H    0.152947
    33  H    0.153559
    34  H    0.176913
 Sum of Mulliken charges =  -0.00000

 Dipole moment (field-independent basis, Debye):
    X=              2.1464    Y=             -4.5584    Z=             -0.6858  Tot=              5.0849
 Quadrupole moment (field-independent basis, Debye-Ang):
   XX=           -102.8683   YY=            -92.3316   ZZ=            -93.2511
   XY=             12.4855   XZ=              4.6699   YZ=              1.2725

 Normal termination of Gaussian 16 at Wed May  5 16:03:51 2021.
