 Gaussian 16, Revision A.03,
 Gaussian 16:  EM64L-G16RevA.03 25-Dec-2016

 -------------
 #p 6-31g* mp2
 -------------

 ------------------------------------------------------
 Input file generated by CHIRIPA (05-May-2021 14:53:14)
 ------------------------------------------------------
 Symbolic Z-matrix:
 Charge =  0 Multiplicity = 1

                         Standard orientation:
 ---------------------------------------------------------------------
 Center     Atomic      Atomic             Coordinates (Angstroms)
 Number     Number       Type             X           Y           Z
 ---------------------------------------------------------------------
      1          6           0        3.609389    0.784413    0.779028
      2          6           0        2.132235    1.177173    0.737305
      3          6           0        1.815033    2.380029    1.626301
      4          1           0        3.893557    0.560566    1.816374
      5          1           0        4.219001    1.643494    0.466383
      6          1           0        1.525515    0.317176    1.048608
      7          1           0        1.851502    1.399925   -0.300090
      8          1           0        2.395339    3.254044    1.313341
      9          1           0        2.067499    2.165143    2.669702
     10          1           0        0.753736    2.643646    1.581414
     11          6           0        3.942138   -0.416481   -0.104635
     12          6           0        5.419292   -0.809242   -0.062911
     13          6           0        5.736494   -2.012098   -0.951908
     14          1           0        3.332526   -1.275562    0.208011
     15          1           0        3.657970   -0.192635   -1.141981
     16          1           0        5.700025   -1.031993    0.974483
     17          1           0        6.026013    0.050756   -0.374215
     18          1           0        5.484029   -1.797212   -1.995309
     19          1           0        5.156189   -2.886113   -0.638948
     20          1           0        6.797791   -2.275714   -0.907020
     21          6           0       -1.377171    1.403395   -1.487829
     22          6           0       -2.718415    1.761224   -1.315939
     23          6           0       -3.598760    0.911788   -0.639184
     24          6           0       -3.101852   -0.293293   -0.145065
     25          6           0       -1.770965   -0.677930   -0.300248
     26          6           0       -0.908554    0.187105   -0.980330
     27          1           0       -0.700265    2.069316   -2.014841
     28          1           0       -3.085126    2.705187   -1.709005
     29          1           0       -4.641894    1.163992   -0.491928
     30          1           0       -1.434658   -1.625488    0.102802
     31          1           0        0.132572   -0.093391   -1.112335
     32          7           0       -4.024342   -1.200809    0.573147
     33          8           0       -3.561872   -2.256942    0.998990
     34          8           0       -5.192392   -0.838804    0.696637
 ---------------------------------------------------------------------

 SCF Done:  E(RHF) =  -669.534777983     A.U. after   15 cycles
 E2 =    -0.2092465084D+01 EUMP2 =    -0.67162724306740D+03

 The electronic state is 1-A.
 Alpha  occ. eigenvalues --  -20.60737 -20.60731 -15.85787 -11.31148 -11.27697
 Alpha  occ. eigenvalues --  -11.27678 -11.27434 -11.26737 -11.26638 -11.22510
 Alpha  occ. eigenvalues --  -11.22201 -11.22147 -11.22085 -11.21734 -11.21562
 Alpha  occ. eigenvalues --   -1.59811  -1.39365  -1.19309  -1.09177  -1.08705
 Alpha  occ. eigenvalues --   -1.04715  -1.04207  -0.96631  -0.95545  -0.87654
 Alpha  occ. eigenvalues --   -0.86113  -0.82382  -0.80326  -0.79028  -0.77404
 Alpha  occ. eigenvalues --   -0.72007  -0.71134  -0.70420  -0.65805  -0.64956
 Alpha  occ. eigenvalues --   -0.64721  -0.62082  -0.61605  -0.59992  -0.58257
 Alpha  occ. eigenvalues --   -0.55909  -0.55212  -0.53351  -0.53088  -0.53008
 Alpha  occ. eigenvalues --   -0.52768  -0.50577  -0.48805  -0.48763  -0.48530
 Alpha  occ. eigenvalues --   -0.47354  -0.46505  -0.46456  -0.44772  -0.44471
 Alpha  occ. eigenvalues --   -0.37278  -0.36276
 Alpha virt. eigenvalues --    0.05081   0.11297   0.16536   0.20200   0.22575
 Alpha virt. eigenvalues --    0.23817   0.25169   0.25387   0.27126   0.28069
 Alpha virt. eigenvalues --    0.28998   0.30691   0.31109   0.31321   0.31765

 Mulliken charges:
               1
     1  C   -0.298118
     2  C   -0.300303
     3  C   -0.477125
     4  H    0.153713
     5  H    0.150994
     6  H    0.152633
     7  H    0.140705
     8  H    0.155330
     9  H    0.159493
    10  H    0.163327
    11  C   -0.299936
    12  C   -0.299820
    13  C   -0.476337
    14  H    0.148734
    15  H    0.145138
    16  H    0.154544
    17  H    0.153093
    18  H    0.154605
    19  H    0.156255
    20  H    0.162648
    21  C   -0.173705
    22  C   -0.218436
    23  C   -0.171674
    24  C    0.158949
    25  C   -0.174487
    26  C   -0.214824
    27  H    0.225016
    28  H    0.223179
    29  H    0.275316
    30  H    0.275015
    31  H    0.229139
    32  N    0.488044
    33  O   -0.460590
    34  O   -0.460514
 Sum of Mulliken charges =  -0.00000

 Dipole moment (field-independent basis, Debye):
    X=              3.4131    Y=              3.2124    Z=             -2.4312  Tot=              5.2802
 Quadrupole moment (field-independent basis, Debye-Ang):
   XX=           -112.0050   YY=            -95.2047   ZZ=            -94.3232
   XY=            -13.4095   XZ=              8.3579   YZ=             -1.1742

 Normal termination of Gaussian 16 at Wed May  5 17:06:10 2021.
