 Gaussian 16, Revision A.03,
 Gaussian 16:  EM64L-G16RevA.03 25-Dec-2016

 -------------
 #p 6-31g* mp2
 -------------

 ------------------------------------------------------
 Input file generated by CHIRIPA (05-May-2021 14:53:16)
 ------------------------------------------------------
 Symbolic Z-matrix:
 Charge =  0 Multiplicity = 1

                         Standard orientation:
 ---------------------------------------------------------------------
 Center     Atomic      Atomic             Coordinates (Angstroms)
 Number     Number       Type             X           Y           Z
 ---------------------------------------------------------------------
      1          6           0       -3.448216   -0.163913   -0.059037
      2          6           0       -2.800024   -1.548299   -0.095184
      3          6           0       -1.273396   -1.487990   -0.035490
      4          1           0       -3.070244    0.433008   -0.900325
      5          1           0       -3.136423    0.355448    0.857721
      6          1           0       -3.114049   -2.065427   -1.010926
      7          1           0       -3.179728   -2.142059    0.746178
      8          1           0       -0.943005   -0.995530    0.884796
      9          1           0       -0.876953   -0.918462   -0.882292
     10          1           0       -0.830723   -2.488573   -0.062581
     11          6           0       -4.974105   -0.207704   -0.117983
     12          6           0       -5.622297    1.176682   -0.081835
     13          6           0       -7.148926    1.116372   -0.141529
     14          1           0       -5.285898   -0.727065   -1.034740
     15          1           0       -5.352077   -0.804625    0.723306
     16          1           0       -5.242593    1.770442   -0.923197
     17          1           0       -5.308272    1.693810    0.833907
     18          1           0       -7.545369    0.546845    0.705272
     19          1           0       -7.479316    0.623912   -1.061815
     20          1           0       -7.591598    2.116956   -0.114438
     21          6           0        3.787414    2.616449   -0.036762
     22          6           0        4.573407    1.712608   -0.759126
     23          6           0        4.306935    0.341144   -0.707892
     24          6           0        3.241878   -0.093752    0.079387
     25          6           0        2.440618    0.781888    0.810502
     26          6           0        2.725401    2.149027    0.744370
     27          1           0        4.001528    3.680156   -0.082349
     28          1           0        5.398822    2.072765   -1.366598
     29          1           0        4.899403   -0.380532   -1.257059
     30          1           0        1.624573    0.392842    1.407269
     31          1           0        2.113310    2.848661    1.306421
     32          7           0        2.950084   -1.543371    0.141513
     33          8           0        2.006052   -1.901166    0.842527
     34          8           0        3.670934   -2.294340   -0.511985
 ---------------------------------------------------------------------

 SCF Done:  E(RHF) =  -669.535744706     A.U. after   15 cycles
 E2 =    -0.2091386089D+01 EUMP2 =    -0.67162713079513D+03

 The electronic state is 1-A.
 Alpha  occ. eigenvalues --  -20.60820 -20.60792 -15.85835 -11.31191 -11.27763
 Alpha  occ. eigenvalues --  -11.27753 -11.27508 -11.26778 -11.26767 -11.21486
 Alpha  occ. eigenvalues --  -11.21166 -11.21087 -11.21006 -11.20977 -11.20192
 Alpha  occ. eigenvalues --   -1.59868  -1.39423  -1.19365  -1.08764  -1.08131
 Alpha  occ. eigenvalues --   -1.04766  -1.03151  -0.95643  -0.95535  -0.86588
 Alpha  occ. eigenvalues --   -0.86165  -0.82434  -0.79232  -0.77954  -0.77465
 Alpha  occ. eigenvalues --   -0.72062  -0.71177  -0.70476  -0.65021  -0.64784
 Alpha  occ. eigenvalues --   -0.64759  -0.62117  -0.60556  -0.58960  -0.57187
 Alpha  occ. eigenvalues --   -0.55274  -0.54882  -0.53098  -0.52866  -0.52203
 Alpha  occ. eigenvalues --   -0.52015  -0.49557  -0.48829  -0.48812  -0.47528
 Alpha  occ. eigenvalues --   -0.46288  -0.45497  -0.45416  -0.44811  -0.43332
 Alpha  occ. eigenvalues --   -0.37346  -0.36367
 Alpha virt. eigenvalues --    0.05029   0.11268   0.16509   0.21127   0.23114
 Alpha virt. eigenvalues --    0.24429   0.26106   0.27075   0.27669   0.27860
 Alpha virt. eigenvalues --    0.29039   0.30481   0.31558   0.31985   0.32590

 Mulliken charges:
               1
     1  C   -0.297181
     2  C   -0.302298
     3  C   -0.470933
     4  H    0.147170
     5  H    0.145287
     6  H    0.150730
     7  H    0.151696
     8  H    0.150751
     9  H    0.146781
    10  H    0.176707
    11  C   -0.297709
    12  C   -0.299097
    13  C   -0.475473
    14  H    0.149787
    15  H    0.149861
    16  H    0.150662
    17  H    0.150172
    18  H    0.155358
    19  H    0.155411
    20  H    0.159035
    21  C   -0.170651
    22  C   -0.218708
    23  C   -0.170876
    24  C    0.157695
    25  C   -0.170524
    26  C   -0.219164
    27  H    0.225591
    28  H    0.223397
    29  H    0.275531
    30  H    0.277786
    31  H    0.223624
    32  N    0.488598
    33  O   -0.458629
    34  O   -0.460386
 Sum of Mulliken charges =  -0.00000

 Dipole moment (field-independent basis, Debye):
    X=              1.1876    Y=              4.9809    Z=             -0.2012  Tot=              5.1245
 Quadrupole moment (field-independent basis, Debye-Ang):
   XX=            -87.3498   YY=            -95.8929   ZZ=            -92.4350
   XY=             16.1891   XZ=             -3.5285   YZ=              1.0078

 Normal termination of Gaussian 16 at Wed May  5 15:40:25 2021.
