 Gaussian 16, Revision A.03,
 Gaussian 16:  EM64L-G16RevA.03 25-Dec-2016

 -------------
 #p 6-31g* mp2
 -------------

 ------------------------------------------------------
 Input file generated by CHIRIPA (05-May-2021 14:55:25)
 ------------------------------------------------------
 Symbolic Z-matrix:
 Charge =  0 Multiplicity = 1

                         Standard orientation:
 ---------------------------------------------------------------------
 Center     Atomic      Atomic             Coordinates (Angstroms)
 Number     Number       Type             X           Y           Z
 ---------------------------------------------------------------------
      1          6           0        0.729933    0.215193    1.479000
      2          6           0        0.930198   -0.980625    0.781551
      3          6           0        2.142386   -1.228471    0.130613
      4          6           0        3.137181   -0.254233    0.197950
      5          6           0        2.967936    0.946998    0.884747
      6          6           0        1.747648    1.173499    1.528285
      7          1           0       -0.214870    0.399434    1.981789
      8          1           0        0.141601   -1.726657    0.741589
      9          1           0        2.324146   -2.145578   -0.416466
     10          1           0        3.772740    1.671721    0.906813
     11          1           0        1.594921    2.103094    2.069184
     12          7           0        4.424758   -0.505317   -0.487251
     13          8           0        5.285393    0.368994   -0.412925
     14          8           0        4.548946   -1.571674   -1.085664
     15          6           0       -4.194764   -0.343381   -0.428987
     16          6           0       -5.483399   -0.192976    0.380199
     17          6           0       -6.374785   -1.433157    0.308221
     18          1           0       -4.449675   -0.553157   -1.476823
     19          1           0       -3.639158   -1.217247   -0.061490
     20          1           0       -6.035739    0.681160    0.012201
     21          1           0       -5.225394    0.016655    1.426193
     22          1           0       -5.846013   -2.310574    0.694408
     23          1           0       -6.660962   -1.642294   -0.727618
     24          1           0       -7.290430   -1.303966    0.893682
     25          6           0       -3.293166    0.888281   -0.366866
     26          6           0       -2.004531    0.737877   -1.176052
     27          6           0       -1.113146    1.978056   -1.104074
     28          1           0       -3.848773    1.762146   -0.734363
     29          1           0       -3.038257    1.098056    0.680970
     30          1           0       -2.262537    0.528244   -2.222046
     31          1           0       -1.452192   -0.136261   -0.808053
     32          1           0       -0.826968    2.187193   -0.068235
     33          1           0       -1.641917    2.855474   -1.490261
     34          1           0       -0.197500    1.848866   -1.689535
 ---------------------------------------------------------------------

 SCF Done:  E(RHF) =  -669.534296733     A.U. after   15 cycles
 E2 =    -0.2093835265D+01 EUMP2 =    -0.67162813199789D+03

 The electronic state is 1-A.
 Alpha  occ. eigenvalues --  -20.60793 -20.60788 -15.85849 -11.31230 -11.27816
 Alpha  occ. eigenvalues --  -11.27805 -11.27566 -11.26826 -11.26810 -11.22230
 Alpha  occ. eigenvalues --  -11.22205 -11.22139 -11.22076 -11.21609 -11.21546
 Alpha  occ. eigenvalues --   -1.59869  -1.39422  -1.19420  -1.09127  -1.08806
 Alpha  occ. eigenvalues --   -1.04825  -1.04131  -0.96582  -0.95639  -0.87594
 Alpha  occ. eigenvalues --   -0.86228  -0.82473  -0.80197  -0.78938  -0.77510
 Alpha  occ. eigenvalues --   -0.72068  -0.71193  -0.70556  -0.65797  -0.65073
 Alpha  occ. eigenvalues --   -0.64819  -0.62178  -0.61560  -0.59939  -0.58185
 Alpha  occ. eigenvalues --   -0.55970  -0.55328  -0.53306  -0.53025  -0.52956
 Alpha  occ. eigenvalues --   -0.52910  -0.50528  -0.48831  -0.48820  -0.48505
 Alpha  occ. eigenvalues --   -0.47262  -0.46466  -0.46427  -0.44825  -0.44404
 Alpha  occ. eigenvalues --   -0.37313  -0.36391
 Alpha virt. eigenvalues --    0.05008   0.11061   0.16421   0.19360   0.22856
 Alpha virt. eigenvalues --    0.24013   0.25152   0.25599   0.27207   0.28297
 Alpha virt. eigenvalues --    0.29158   0.30241   0.31207   0.31426   0.32206

 Mulliken charges:
               1
     1  C   -0.166774
     2  C   -0.218524
     3  C   -0.172034
     4  C    0.158056
     5  C   -0.170726
     6  C   -0.217457
     7  H    0.226860
     8  H    0.223452
     9  H    0.275995
    10  H    0.275958
    11  H    0.223807
    12  N    0.488089
    13  O   -0.460278
    14  O   -0.460331
    15  C   -0.297257
    16  C   -0.299711
    17  C   -0.475915
    18  H    0.153069
    19  H    0.143835
    20  H    0.154053
    21  H    0.149977
    22  H    0.154370
    23  H    0.156912
    24  H    0.161983
    25  C   -0.298242
    26  C   -0.303901
    27  C   -0.472167
    28  H    0.153190
    29  H    0.141016
    30  H    0.155494
    31  H    0.148793
    32  H    0.147388
    33  H    0.155424
    34  H    0.165595
 Sum of Mulliken charges =  -0.00000

 Dipole moment (field-independent basis, Debye):
    X=             -4.5498    Y=              0.8996    Z=              2.3488  Tot=              5.1987
 Quadrupole moment (field-independent basis, Debye-Ang):
   XX=           -123.2321   YY=            -91.9864   ZZ=            -93.2623
   XY=              4.9555   XZ=              7.9764   YZ=              0.8345

 Normal termination of Gaussian 16 at Thu May  6 04:49:36 2021.
