 Gaussian 16, Revision A.03,
 Gaussian 16:  EM64L-G16RevA.03 25-Dec-2016

 -------------
 #p 6-31g* mp2
 -------------

 ------------------------------------------------------
 Input file generated by CHIRIPA (05-May-2021 14:55:25)
 ------------------------------------------------------
 Symbolic Z-matrix:
 Charge =  0 Multiplicity = 1

                         Standard orientation:
 ---------------------------------------------------------------------
 Center     Atomic      Atomic             Coordinates (Angstroms)
 Number     Number       Type             X           Y           Z
 ---------------------------------------------------------------------
      1          6           0       -2.285520   -2.635164   -0.198830
      2          6           0       -3.427979   -2.024113    0.328357
      3          6           0       -3.515813   -0.631052    0.407178
      4          6           0       -2.437714    0.123766   -0.052435
      5          6           0       -1.286022   -0.455515   -0.582839
      6          6           0       -1.220066   -1.850299   -0.651947
      7          1           0       -2.225787   -3.717997   -0.256287
      8          1           0       -4.256956   -2.631138    0.681008
      9          1           0       -4.388413   -0.131945    0.810761
     10          1           0       -0.475795    0.176071   -0.926424
     11          1           0       -0.331576   -2.322118   -1.061844
     12          7           0       -2.519119    1.599449    0.025868
     13          8           0       -1.555688    2.242094   -0.385769
     14          8           0       -3.544815    2.085503    0.497395
     15          6           0        3.312654   -0.473551    0.467163
     16          6           0        3.202751   -1.755476   -0.359016
     17          6           0        3.625445   -3.000148    0.421957
     18          1           0        4.348382   -0.356225    0.814215
     19          1           0        2.690489   -0.571436    1.367565
     20          1           0        3.823852   -1.654661   -1.258286
     21          1           0        2.167205   -1.869665   -0.704302
     22          1           0        2.999069   -3.128485    1.310654
     23          1           0        4.665128   -2.912259    0.753524
     24          1           0        3.539072   -3.905083   -0.187544
     25          6           0        2.893549    0.779329   -0.299891
     26          6           0        3.003452    2.061256    0.526288
     27          6           0        2.580757    3.305927   -0.254685
     28          1           0        3.515713    0.877216   -1.200293
     29          1           0        1.857820    0.662004   -0.646943
     30          1           0        4.038997    2.175444    0.871574
     31          1           0        2.382351    1.960440    1.425557
     32          1           0        1.541075    3.218039   -0.586252
     33          1           0        3.207134    3.434263   -1.143382
     34          1           0        2.667130    4.210863    0.354816
 ---------------------------------------------------------------------

 SCF Done:  E(RHF) =  -669.535551336     A.U. after   15 cycles
 E2 =    -0.2092823505D+01 EUMP2 =    -0.67162837484085D+03

 The electronic state is 1-A.
 Alpha  occ. eigenvalues --  -20.60867 -20.60861 -15.85914 -11.31240 -11.27808
 Alpha  occ. eigenvalues --  -11.27794 -11.27542 -11.26817 -11.26797 -11.22243
 Alpha  occ. eigenvalues --  -11.21709 -11.21630 -11.21576 -11.21368 -11.20441
 Alpha  occ. eigenvalues --   -1.59934  -1.39489  -1.19412  -1.08812  -1.08663
 Alpha  occ. eigenvalues --   -1.04811  -1.03645  -0.96067  -0.95654  -0.87089
 Alpha  occ. eigenvalues --   -0.86210  -0.82490  -0.79774  -0.78449  -0.77527
 Alpha  occ. eigenvalues --   -0.72134  -0.71252  -0.70530  -0.65335  -0.65061
 Alpha  occ. eigenvalues --   -0.64836  -0.62147  -0.61029  -0.59519  -0.57672
 Alpha  occ. eigenvalues --   -0.55379  -0.55275  -0.53139  -0.52955  -0.52753
 Alpha  occ. eigenvalues --   -0.52450  -0.50003  -0.48891  -0.48886  -0.48045
 Alpha  occ. eigenvalues --   -0.46819  -0.45956  -0.45839  -0.44895  -0.43921
 Alpha  occ. eigenvalues --   -0.37389  -0.36405
 Alpha virt. eigenvalues --    0.04968   0.11211   0.16409   0.18979   0.23178
 Alpha virt. eigenvalues --    0.23358   0.24782   0.26885   0.27395   0.27986
 Alpha virt. eigenvalues --    0.29005   0.31060   0.31549   0.31640   0.32315

 Mulliken charges:
               1
     1  C   -0.171010
     2  C   -0.218746
     3  C   -0.170142
     4  C    0.158072
     5  C   -0.179927
     6  C   -0.225641
     7  H    0.226297
     8  H    0.223680
     9  H    0.275753
    10  H    0.287088
    11  H    0.229218
    12  N    0.489253
    13  O   -0.463456
    14  O   -0.459433
    15  C   -0.298685
    16  C   -0.301205
    17  C   -0.476164
    18  H    0.152632
    19  H    0.151182
    20  H    0.154889
    21  H    0.140340
    22  H    0.155636
    23  H    0.159072
    24  H    0.158234
    25  C   -0.302601
    26  C   -0.298579
    27  C   -0.482555
    28  H    0.150691
    29  H    0.145193
    30  H    0.150217
    31  H    0.154555
    32  H    0.174241
    33  H    0.150743
    34  H    0.161158
 Sum of Mulliken charges =  -0.00000

 Dipole moment (field-independent basis, Debye):
    X=              0.2870    Y=             -5.0847    Z=             -0.2079  Tot=              5.0971
 Quadrupole moment (field-independent basis, Debye-Ang):
   XX=            -90.9566   YY=            -97.3200   ZZ=            -94.7706
   XY=             13.6590   XZ=             -1.7721   YZ=              0.4066

 Normal termination of Gaussian 16 at Thu May  6 11:06:06 2021.
