 Gaussian 16, Revision A.03,
 Gaussian 16:  EM64L-G16RevA.03 25-Dec-2016

 -------------
 #p 6-31g* mp2
 -------------

 ------------------------------------------------------
 Input file generated by CHIRIPA (05-May-2021 14:55:20)
 ------------------------------------------------------
 Symbolic Z-matrix:
 Charge =  0 Multiplicity = 1

                         Standard orientation:
 ---------------------------------------------------------------------
 Center     Atomic      Atomic             Coordinates (Angstroms)
 Number     Number       Type             X           Y           Z
 ---------------------------------------------------------------------
      1          6           0       -3.108703   -2.431375    1.012066
      2          6           0       -3.375656   -2.251131   -0.349099
      3          6           0       -3.168857   -1.008129   -0.954678
      4          6           0       -2.692093    0.037560   -0.165678
      5          6           0       -2.416783   -0.110620    1.192827
      6          6           0       -2.630961   -1.362429    1.777336
      7          1           0       -3.272216   -3.400390    1.474311
      8          1           0       -3.746749   -3.079501   -0.945872
      9          1           0       -3.367283   -0.840882   -2.006379
     10          1           0       -2.047618    0.733978    1.761852
     11          1           0       -2.422779   -1.499505    2.834651
     12          7           0       -2.469258    1.358133   -0.795625
     13          8           0       -2.048588    2.263482   -0.078676
     14          8           0       -2.719489    1.462843   -1.994398
     15          6           0        2.927635    0.727025   -0.052712
     16          6           0        2.800240    1.801732    1.027455
     17          6           0        1.665038    2.787566    0.749532
     18          1           0        3.090466    1.211224   -1.025329
     19          1           0        1.977338    0.180894   -0.130630
     20          1           0        3.750943    2.344763    1.104271
     21          1           0        2.637885    1.314913    1.997642
     22          1           0        0.705179    2.263982    0.693574
     23          1           0        1.824562    3.299682   -0.204873
     24          1           0        1.591904    3.547179    1.534071
     25          6           0        4.058141   -0.266004    0.211062
     26          6           0        4.185535   -1.340712   -0.869104
     27          6           0        5.320738   -2.326545   -0.591182
     28          1           0        5.008437    0.280127    0.288980
     29          1           0        3.895308   -0.750203    1.183679
     30          1           0        4.347891   -0.853892   -1.839291
     31          1           0        3.234833   -1.883741   -0.945920
     32          1           0        5.161214   -2.838661    0.363224
     33          1           0        6.280597   -1.802961   -0.535223
     34          1           0        5.393872   -3.086158   -1.375720
 ---------------------------------------------------------------------

 SCF Done:  E(RHF) =  -669.536000469     A.U. after   15 cycles
 E2 =    -0.2091220986D+01 EUMP2 =    -0.67162722145541D+03

 The electronic state is 1-A.
 Alpha  occ. eigenvalues --  -20.60920 -20.60915 -15.85941 -11.31288 -11.27853
 Alpha  occ. eigenvalues --  -11.27846 -11.27590 -11.26865 -11.26855 -11.21464
 Alpha  occ. eigenvalues --  -11.21172 -11.21105 -11.21006 -11.21002 -11.20139
 Alpha  occ. eigenvalues --   -1.59975  -1.39532  -1.19458  -1.08857  -1.08122
 Alpha  occ. eigenvalues --   -1.04856  -1.03158  -0.95700  -0.95573  -0.86584
 Alpha  occ. eigenvalues --   -0.86256  -0.82528  -0.79228  -0.77923  -0.77575
 Alpha  occ. eigenvalues --   -0.72165  -0.71288  -0.70564  -0.65113  -0.64860
 Alpha  occ. eigenvalues --   -0.64762  -0.62204  -0.60560  -0.58991  -0.57190
 Alpha  occ. eigenvalues --   -0.55358  -0.54864  -0.53188  -0.52947  -0.52264
 Alpha  occ. eigenvalues --   -0.51985  -0.49533  -0.48924  -0.48915  -0.47536
 Alpha  occ. eigenvalues --   -0.46302  -0.45489  -0.45416  -0.44788  -0.43424
 Alpha  occ. eigenvalues --   -0.37437  -0.36459
 Alpha virt. eigenvalues --    0.04914   0.11169   0.16383   0.21224   0.23099
 Alpha virt. eigenvalues --    0.24549   0.26711   0.27202   0.27662   0.27915
 Alpha virt. eigenvalues --    0.28804   0.30573   0.31648   0.32036   0.32275

 Mulliken charges:
               1
     1  C   -0.170703
     2  C   -0.218511
     3  C   -0.170843
     4  C    0.158386
     5  C   -0.172175
     6  C   -0.218556
     7  H    0.225993
     8  H    0.223870
     9  H    0.275933
    10  H    0.276481
    11  H    0.223894
    12  N    0.488290
    13  O   -0.458689
    14  O   -0.458670
    15  C   -0.297032
    16  C   -0.300280
    17  C   -0.479692
    18  H    0.151980
    19  H    0.146612
    20  H    0.149980
    21  H    0.145759
    22  H    0.167154
    23  H    0.157827
    24  H    0.157141
    25  C   -0.297583
    26  C   -0.299190
    27  C   -0.475372
    28  H    0.149604
    29  H    0.146772
    30  H    0.153137
    31  H    0.150091
    32  H    0.153512
    33  H    0.155563
    34  H    0.159316
 Sum of Mulliken charges =  -0.00000

 Dipole moment (field-independent basis, Debye):
    X=             -0.9720    Y=             -4.6015    Z=              2.1391  Tot=              5.1667
 Quadrupole moment (field-independent basis, Debye-Ang):
   XX=            -91.3960   YY=            -95.1500   ZZ=            -91.5860
   XY=             14.4299   XZ=             -4.9145   YZ=              2.2257

 Normal termination of Gaussian 16 at Wed May  5 22:11:23 2021.
