 Gaussian 16, Revision A.03,
 Gaussian 16:  EM64L-G16RevA.03 25-Dec-2016

 -------------
 #p 6-31g* mp2
 -------------

 ------------------------------------------------------
 Input file generated by CHIRIPA (05-May-2021 14:53:13)
 ------------------------------------------------------
 Symbolic Z-matrix:
 Charge =  0 Multiplicity = 1

                         Standard orientation:
 ---------------------------------------------------------------------
 Center     Atomic      Atomic             Coordinates (Angstroms)
 Number     Number       Type             X           Y           Z
 ---------------------------------------------------------------------
      1          6           0       -4.005479   -0.363396   -0.004926
      2          6           0       -5.399902   -0.917694    0.288881
      3          6           0       -5.422972   -2.444000    0.376355
      4          1           0       -3.638767   -0.791711   -0.947801
      5          1           0       -3.312947   -0.697101    0.780207
      6          1           0       -6.089895   -0.581898   -0.495828
      7          1           0       -5.763416   -0.487862    1.231068
      8          1           0       -4.756954   -2.794409    1.171487
      9          1           0       -5.085288   -2.888979   -0.565220
     10          1           0       -6.429418   -2.818883    0.587043
     11          6           0       -3.966227    1.161075   -0.095360
     12          6           0       -2.571804    1.715373   -0.389166
     13          6           0       -2.548735    3.241679   -0.476641
     14          1           0       -4.658760    1.494780   -0.880493
     15          1           0       -4.332940    1.589390    0.847515
     16          1           0       -2.208290    1.285541   -1.331354
     17          1           0       -1.881811    1.379577    0.395542
     18          1           0       -2.886419    3.686658    0.464935
     19          1           0       -3.214752    3.592088   -1.271773
     20          1           0       -1.542289    3.616562   -0.687328
     21          6           0        5.545697    0.349239    0.164949
     22          6           0        4.563226    1.190629    0.697242
     23          6           0        3.212780    0.834625    0.633173
     24          6           0        2.878856   -0.375480    0.027015
     25          6           0        3.834498   -1.235143   -0.512445
     26          6           0        5.178844   -0.858831   -0.437135
     27          1           0        6.592386    0.633680    0.219086
     28          1           0        4.845209    2.129432    1.165410
     29          1           0        2.431698    1.467149    1.037208
     30          1           0        3.522627   -2.164678   -0.973010
     31          1           0        5.939696   -1.514241   -0.851365
     32          7           0        1.452428   -0.763115   -0.046763
     33          8           0        1.184223   -1.834547   -0.585963
     34          8           0        0.629607    0.011829    0.436007
 ---------------------------------------------------------------------

 SCF Done:  E(RHF) =  -669.535840720     A.U. after   15 cycles
 E2 =    -0.2090941428D+01 EUMP2 =    -0.67162678214822D+03

 The electronic state is 1-A.
 Alpha  occ. eigenvalues --  -20.60910 -20.60903 -15.85952 -11.31285 -11.27850
 Alpha  occ. eigenvalues --  -11.27846 -11.27589 -11.26860 -11.26851 -11.20603
 Alpha  occ. eigenvalues --  -11.20203 -11.20157 -11.20107 -11.20079 -11.20046
 Alpha  occ. eigenvalues --   -1.59974  -1.39530  -1.19455  -1.08856  -1.07224
 Alpha  occ. eigenvalues --   -1.04853  -1.02403  -0.95697  -0.94902  -0.86253
 Alpha  occ. eigenvalues --   -0.85921  -0.82534  -0.78439  -0.77583  -0.76979
 Alpha  occ. eigenvalues --   -0.72174  -0.71291  -0.70563  -0.65111  -0.64856
 Alpha  occ. eigenvalues --   -0.63862  -0.62201  -0.59808  -0.58262  -0.56488
 Alpha  occ. eigenvalues --   -0.55356  -0.54208  -0.53184  -0.52945  -0.51632
 Alpha  occ. eigenvalues --   -0.51314  -0.48974  -0.48927  -0.48829  -0.46750
 Alpha  occ. eigenvalues --   -0.45453  -0.44961  -0.44529  -0.44398  -0.42647
 Alpha  occ. eigenvalues --   -0.37434  -0.36455
 Alpha virt. eigenvalues --    0.04948   0.11199   0.16442   0.21317   0.24006
 Alpha virt. eigenvalues --    0.25315   0.27247   0.27791   0.28147   0.28832
 Alpha virt. eigenvalues --    0.29062   0.30894   0.32271   0.32487   0.32867

 Mulliken charges:
               1
     1  C   -0.297794
     2  C   -0.299059
     3  C   -0.474801
     4  H    0.152026
     5  H    0.157563
     6  H    0.148442
     7  H    0.148703
     8  H    0.156156
     9  H    0.155565
    10  H    0.155916
    11  C   -0.298441
    12  C   -0.303428
    13  C   -0.475045
    14  H    0.143809
    15  H    0.144699
    16  H    0.152182
    17  H    0.174354
    18  H    0.150637
    19  H    0.150485
    20  H    0.155437
    21  C   -0.170663
    22  C   -0.218522
    23  C   -0.170786
    24  C    0.157596
    25  C   -0.170618
    26  C   -0.218574
    27  H    0.225950
    28  H    0.223803
    29  H    0.275508
    30  H    0.275844
    31  H    0.223771
    32  N    0.493083
    33  O   -0.459348
    34  O   -0.464450
 Sum of Mulliken charges =  -0.00000

 Dipole moment (field-independent basis, Debye):
    X=              5.3586    Y=              1.2199    Z=              0.3004  Tot=              5.5039
 Quadrupole moment (field-independent basis, Debye-Ang):
   XX=            -67.5442   YY=            -94.3775   ZZ=            -93.4230
   XY=              1.0711   XZ=              0.3321   YZ=              2.6319

 Normal termination of Gaussian 16 at Thu May  6 21:53:41 2021.
