 Gaussian 16, Revision A.03,
 Gaussian 16:  EM64L-G16RevA.03 25-Dec-2016

 -------------
 #p 6-31g* mp2
 -------------

 ------------------------------------------------------
 Input file generated by CHIRIPA (05-May-2021 14:57:21)
 ------------------------------------------------------
 Symbolic Z-matrix:
 Charge =  0 Multiplicity = 1

                         Standard orientation:
 ---------------------------------------------------------------------
 Center     Atomic      Atomic             Coordinates (Angstroms)
 Number     Number       Type             X           Y           Z
 ---------------------------------------------------------------------
      1          6           0        2.205753    1.456499   -1.325756
      2          6           0        1.853060    0.197210   -0.829449
      3          6           0        2.809418   -0.617629   -0.216291
      4          6           0        4.115021   -0.139498   -0.115890
      5          6           0        4.497386    1.110387   -0.600527
      6          6           0        3.524466    1.908272   -1.209915
      7          1           0        1.456398    2.082901   -1.800608
      8          1           0        0.829694   -0.156234   -0.918025
      9          1           0        2.563699   -1.596742    0.176620
     10          1           0        5.525580    1.435412   -0.497598
     11          1           0        3.801236    2.885811   -1.594443
     12          7           0        5.136242   -0.993158    0.531238
     13          8           0        6.279681   -0.548870    0.607338
     14          8           0        4.773897   -2.090380    0.950103
     15          6           0       -2.249436    1.488702    1.347437
     16          6           0       -1.876773    0.217217    0.899143
     17          6           0       -2.808850   -0.616817    0.274506
     18          6           0       -4.110798   -0.145233    0.113794
     19          6           0       -4.512674    1.116450    0.549616
     20          6           0       -3.563880    1.933477    1.171552
     21          1           0       -1.518883    2.129994    1.831620
     22          1           0       -0.856668   -0.130832    1.034394
     23          1           0       -2.547331   -1.605685   -0.082097
     24          1           0       -5.537034    1.435682    0.400636
     25          1           0       -3.856123    2.920455    1.518703
     26          7           0       -5.106395   -1.019185   -0.546052
     27          8           0       -6.247107   -0.580315   -0.675690
     28          8           0       -4.727179   -2.126509   -0.921105
 ---------------------------------------------------------------------

 SCF Done:  E(RHF) =  -868.337253822     A.U. after   16 cycles
 E2 =    -0.2599776925D+01 EUMP2 =    -0.87093703074719D+03

 The electronic state is 1-A.
 Alpha  occ. eigenvalues --  -20.61298 -20.61292 -20.61277 -20.61271 -15.86357
 Alpha  occ. eigenvalues --  -15.86336 -11.31846 -11.31820 -11.28482 -11.28453
 Alpha  occ. eigenvalues --  -11.28417 -11.28390 -11.28197 -11.28169 -11.27514
 Alpha  occ. eigenvalues --  -11.27484 -11.27430 -11.27403  -1.60371  -1.60351
 Alpha  occ. eigenvalues --   -1.39921  -1.39901  -1.20043  -1.20013  -1.09410
 Alpha  occ. eigenvalues --   -1.09375  -1.05491  -1.05427  -0.96217  -0.96191
 Alpha  occ. eigenvalues --   -0.86902  -0.86781  -0.83085  -0.83002  -0.78137
 Alpha  occ. eigenvalues --   -0.78009  -0.72570  -0.72549  -0.71699  -0.71678
 Alpha  occ. eigenvalues --   -0.71129  -0.71099  -0.65703  -0.65681  -0.65661
 Alpha  occ. eigenvalues --   -0.65260  -0.62952  -0.62631  -0.55963  -0.55891
 Alpha  occ. eigenvalues --   -0.53858  -0.53763  -0.53656  -0.53341  -0.49344
 Alpha  occ. eigenvalues --   -0.49320  -0.49313  -0.49299  -0.45300  -0.45281
 Alpha  occ. eigenvalues --   -0.38057  -0.37959  -0.37127  -0.37012
 Alpha virt. eigenvalues --    0.04446   0.04481   0.10327   0.10738   0.15753
 Alpha virt. eigenvalues --    0.15901   0.19607   0.21623   0.25204   0.27642
 Alpha virt. eigenvalues --    0.27686   0.28157   0.29968   0.31569   0.31860

 Mulliken charges:
               1
     1  C   -0.172373
     2  C   -0.224735
     3  C   -0.172492
     4  C    0.159083
     5  C   -0.169839
     6  C   -0.218741
     7  H    0.227988
     8  H    0.222062
     9  H    0.275589
    10  H    0.277721
    11  H    0.225489
    12  N    0.488020
    13  O   -0.458566
    14  O   -0.459431
    15  C   -0.172409
    16  C   -0.224776
    17  C   -0.172645
    18  C    0.159090
    19  C   -0.169785
    20  C   -0.218776
    21  H    0.228083
    22  H    0.222177
    23  H    0.275688
    24  H    0.277814
    25  H    0.225596
    26  N    0.488015
    27  O   -0.458494
    28  O   -0.459353
 Sum of Mulliken charges =  -0.00000

 Dipole moment (field-independent basis, Debye):
    X=             -0.1001    Y=              6.1901    Z=              0.0419  Tot=              6.1911
 Quadrupole moment (field-independent basis, Debye-Ang):
   XX=           -157.6357   YY=           -101.9465   ZZ=           -105.0475
   XY=             -0.3344   XZ=            -19.4789   YZ=             -0.1975

 Normal termination of Gaussian 16 at Thu May  6 01:42:03 2021.
