 Gaussian 16, Revision A.03,
 Gaussian 16:  EM64L-G16RevA.03 25-Dec-2016

 -------------
 #p 6-31g* mp2
 -------------

 ------------------------------------------------------
 Input file generated by CHIRIPA (05-May-2021 14:57:27)
 ------------------------------------------------------
 Symbolic Z-matrix:
 Charge =  0 Multiplicity = 1

                         Standard orientation:
 ---------------------------------------------------------------------
 Center     Atomic      Atomic             Coordinates (Angstroms)
 Number     Number       Type             X           Y           Z
 ---------------------------------------------------------------------
      1          6           0        1.989056    2.807667   -0.327291
      2          6           0        3.240308    2.446141    0.182796
      3          6           0        3.582715    1.099269    0.335251
      4          6           0        2.645484    0.135696   -0.034093
      5          6           0        1.390833    0.464172   -0.545215
      6          6           0        1.069932    1.817275   -0.689030
      7          1           0        1.731420    3.856370   -0.442366
      8          1           0        3.956099    3.213148    0.464554
      9          1           0        4.544335    0.791396    0.727576
     10          1           0        0.698236   -0.323010   -0.817379
     11          1           0        0.097454    2.095107   -1.085440
     12          7           0        2.996590   -1.293475    0.122731
     13          8           0        2.153210   -2.123312   -0.210013
     14          8           0        4.108520   -1.556761    0.575423
     15          6           0       -1.287818   -2.502575   -0.305932
     16          6           0       -1.536712   -2.048775    0.993544
     17          6           0       -2.255804   -0.869196    1.208138
     18          6           0       -2.713276   -0.165191    0.095311
     19          6           0       -2.481460   -0.591444   -1.211540
     20          6           0       -1.760155   -1.773746   -1.402393
     21          1           0       -0.728351   -3.419959   -0.463413
     22          1           0       -1.171104   -2.612744    1.846957
     23          1           0       -2.462750   -0.495042    2.203428
     24          1           0       -2.858710   -0.007667   -2.042388
     25          1           0       -1.568356   -2.123780   -2.412708
     26          7           0       -3.475719    1.085017    0.309926
     27          8           0       -3.867952    1.687025   -0.687259
     28          8           0       -3.666651    1.439251    1.471261
 ---------------------------------------------------------------------

 SCF Done:  E(RHF) =  -868.340228290     A.U. after   16 cycles
 E2 =    -0.2602306443D+01 EUMP2 =    -0.87094253473350D+03

 The electronic state is 1-A.
 Alpha  occ. eigenvalues --  -20.61255 -20.61194 -20.61179 -20.61153 -15.86266
 Alpha  occ. eigenvalues --  -15.86219 -11.31457 -11.31280 -11.28092 -11.27970
 Alpha  occ. eigenvalues --  -11.27858 -11.27704 -11.27506 -11.27499 -11.26913
 Alpha  occ. eigenvalues --  -11.26789 -11.26789 -11.26712  -1.60299  -1.60254
 Alpha  occ. eigenvalues --   -1.39866  -1.39808  -1.19631  -1.19432  -1.08970
 Alpha  occ. eigenvalues --   -1.08895  -1.04992  -1.04781  -0.95848  -0.95759
 Alpha  occ. eigenvalues --   -0.86342  -0.86194  -0.82706  -0.82591  -0.77778
 Alpha  occ. eigenvalues --   -0.77726  -0.72532  -0.72422  -0.71613  -0.71595
 Alpha  occ. eigenvalues --   -0.70599  -0.70462  -0.65207  -0.65091  -0.64894
 Alpha  occ. eigenvalues --   -0.64793  -0.62311  -0.62183  -0.55343  -0.55259
 Alpha  occ. eigenvalues --   -0.53518  -0.53128  -0.53002  -0.52597  -0.49270
 Alpha  occ. eigenvalues --   -0.49216  -0.49196  -0.49167  -0.45352  -0.45242
 Alpha  occ. eigenvalues --   -0.37459  -0.37403  -0.36707  -0.36316
 Alpha virt. eigenvalues --    0.04666   0.04866   0.10935   0.11316   0.16332
 Alpha virt. eigenvalues --    0.16343   0.21276   0.21718   0.26969   0.27492
 Alpha virt. eigenvalues --    0.28331   0.28629   0.30867   0.31393   0.32260

 Mulliken charges:
               1
     1  C   -0.168949
     2  C   -0.219750
     3  C   -0.170161
     4  C    0.153275
     5  C   -0.175840
     6  C   -0.225697
     7  H    0.228999
     8  H    0.223971
     9  H    0.274617
    10  H    0.286035
    11  H    0.227793
    12  N    0.489695
    13  O   -0.473072
    14  O   -0.458530
    15  C   -0.158251
    16  C   -0.218741
    17  C   -0.171588
    18  C    0.155077
    19  C   -0.179613
    20  C   -0.234622
    21  H    0.242217
    22  H    0.230316
    23  H    0.276476
    24  H    0.274222
    25  H    0.227378
    26  N    0.487424
    27  O   -0.463932
    28  O   -0.458747
 Sum of Mulliken charges =  -0.00000

 Dipole moment (field-independent basis, Debye):
    X=              1.4536    Y=              0.4027    Z=             -1.1847  Tot=              1.9179
 Quadrupole moment (field-independent basis, Debye-Ang):
   XX=           -123.3583   YY=           -101.5853   ZZ=           -100.0929
   XY=             26.7340   XZ=              3.1125   YZ=             -0.7107

 Normal termination of Gaussian 16 at Thu May  6 02:04:16 2021.
