 Gaussian 16, Revision A.03,
 Gaussian 16:  EM64L-G16RevA.03 25-Dec-2016

 -------------
 #p 6-31g* mp2
 -------------

 ------------------------------------------------------
 Input file generated by CHIRIPA (05-May-2021 14:57:25)
 ------------------------------------------------------
 Symbolic Z-matrix:
 Charge =  0 Multiplicity = 1

                         Standard orientation:
 ---------------------------------------------------------------------
 Center     Atomic      Atomic             Coordinates (Angstroms)
 Number     Number       Type             X           Y           Z
 ---------------------------------------------------------------------
      1          6           0       -4.671054   -2.027794    0.589990
      2          6           0       -4.744630   -1.467691   -0.689616
      3          6           0       -4.108711   -0.254962   -0.971474
      4          6           0       -3.404681    0.373436    0.054561
      5          6           0       -3.313013   -0.159297    1.339506
      6          6           0       -3.956740   -1.372964    1.598689
      7          1           0       -5.168084   -2.970235    0.800136
      8          1           0       -5.298667   -1.974018   -1.474931
      9          1           0       -4.149469    0.200987   -1.953242
     10          1           0       -2.753257    0.368851    2.101839
     11          1           0       -3.897902   -1.805606    2.593376
     12          7           0       -2.727329    1.657794   -0.231826
     13          8           0       -2.113379    2.191644    0.689427
     14          8           0       -2.823196    2.106304   -1.372127
     15          6           0        1.056867   -0.091379   -0.660403
     16          6           0        1.630055    0.928627    0.106125
     17          6           0        2.991718    0.899931    0.421720
     18          6           0        3.754087   -0.168561   -0.047754
     19          6           0        3.212198   -1.199733   -0.813477
     20          6           0        1.848373   -1.150437   -1.116953
     21          1           0       -0.001745   -0.061088   -0.900857
     22          1           0        1.017787    1.752337    0.462038
     23          1           0        3.461220    1.676426    1.013364
     24          1           0        3.848099   -2.007859   -1.154039
     25          1           0        1.405928   -1.943966   -1.712434
     26          7           0        5.196763   -0.209845    0.279936
     27          8           0        5.846832   -1.162155   -0.145684
     28          8           0        5.650147    0.710891    0.956197
 ---------------------------------------------------------------------

 SCF Done:  E(RHF) =  -868.339475691     A.U. after   16 cycles
 E2 =    -0.2599532067D+01 EUMP2 =    -0.87093900775817D+03

 The electronic state is 1-A.
 Alpha  occ. eigenvalues --  -20.62091 -20.62057 -20.60367 -20.60357 -15.87097
 Alpha  occ. eigenvalues --  -15.85410 -11.32241 -11.30675 -11.28765 -11.28755
 Alpha  occ. eigenvalues --  -11.28425 -11.27696 -11.27677 -11.27254 -11.27141
 Alpha  occ. eigenvalues --  -11.26921 -11.26286 -11.26010  -1.61157  -1.59441
 Alpha  occ. eigenvalues --   -1.40706  -1.38998  -1.20382  -1.18816  -1.09814
 Alpha  occ. eigenvalues --   -1.08229  -1.05726  -1.04186  -0.96681  -0.95091
 Alpha  occ. eigenvalues --   -0.87134  -0.85580  -0.83504  -0.81916  -0.78591
 Alpha  occ. eigenvalues --   -0.76976  -0.73298  -0.72528  -0.71630  -0.71449
 Alpha  occ. eigenvalues --   -0.70763  -0.69917  -0.66015  -0.65701  -0.64458
 Alpha  occ. eigenvalues --   -0.64140  -0.63064  -0.61515  -0.56211  -0.54722
 Alpha  occ. eigenvalues --   -0.54075  -0.53796  -0.52545  -0.52246  -0.50078
 Alpha  occ. eigenvalues --   -0.50043  -0.48394  -0.48378  -0.46134  -0.44426
 Alpha  occ. eigenvalues --   -0.38348  -0.37323  -0.36796  -0.35791
 Alpha virt. eigenvalues --    0.03861   0.05524   0.10332   0.11865   0.15387
 Alpha virt. eigenvalues --    0.17058   0.20563   0.21830   0.26520   0.27280
 Alpha virt. eigenvalues --    0.27868   0.28240   0.30355   0.31245   0.31775

 Mulliken charges:
               1
     1  C   -0.169755
     2  C   -0.218789
     3  C   -0.173256
     4  C    0.150886
     5  C   -0.171446
     6  C   -0.218264
     7  H    0.229493
     8  H    0.226659
     9  H    0.277233
    10  H    0.277166
    11  H    0.227551
    12  N    0.486471
    13  O   -0.463752
    14  O   -0.455818
    15  C   -0.171152
    16  C   -0.223910
    17  C   -0.172678
    18  C    0.158524
    19  C   -0.172796
    20  C   -0.219265
    21  H    0.221534
    22  H    0.242795
    23  H    0.275434
    24  H    0.272957
    25  H    0.219554
    26  N    0.488027
    27  O   -0.462622
    28  O   -0.460782
 Sum of Mulliken charges =  -0.00000

 Dipole moment (field-independent basis, Debye):
    X=             -7.8934    Y=             -4.3408    Z=             -0.0619  Tot=              9.0084
 Quadrupole moment (field-independent basis, Debye-Ang):
   XX=           -127.0706   YY=           -105.1579   ZZ=            -99.3852
   XY=             16.5417   XZ=             -6.2175   YZ=              2.8552

 Normal termination of Gaussian 16 at Thu May  6 03:32:14 2021.
