 Gaussian 16, Revision A.03,
 Gaussian 16:  EM64L-G16RevA.03 25-Dec-2016

 -------------
 #p 6-31g* mp2
 -------------

 ------------------------------------------------------
 Input file generated by CHIRIPA (05-May-2021 14:53:12)
 ------------------------------------------------------
 Symbolic Z-matrix:
 Charge =  0 Multiplicity = 1

                         Standard orientation:
 ---------------------------------------------------------------------
 Center     Atomic      Atomic             Coordinates (Angstroms)
 Number     Number       Type             X           Y           Z
 ---------------------------------------------------------------------
      1          6           0       -2.871463    0.918586    0.061642
      2          6           0       -3.033425    2.162061   -0.813300
      3          6           0       -2.338297    3.391558   -0.227701
      4          1           0       -3.273901    1.127227    1.062371
      5          1           0       -1.801027    0.708013    0.192875
      6          1           0       -4.103257    2.369419   -0.943984
      7          1           0       -2.630728    1.950372   -1.812119
      8          1           0       -1.264884    3.209185   -0.113139
      9          1           0       -2.745779    3.630613    0.759929
     10          1           0       -2.466782    4.268982   -0.869168
     11          6           0       -3.560908   -0.318753   -0.510532
     12          6           0       -3.398945   -1.562228    0.364410
     13          6           0       -4.094073   -2.791726   -0.221189
     14          1           0       -4.631343   -0.108180   -0.641765
     15          1           0       -3.158469   -0.527395   -1.511261
     16          1           0       -3.801643   -1.350539    1.363229
     17          1           0       -2.329114   -1.769586    0.495094
     18          1           0       -3.686591   -3.030780   -1.208819
     19          1           0       -5.167487   -2.609353   -0.335751
     20          1           0       -3.965588   -3.669149    0.420278
     21          6           0        1.359294   -0.151060    2.417841
     22          6           0        0.768406   -0.837349    1.351829
     23          6           0        1.398435   -0.890048    0.104899
     24          6           0        2.624146   -0.242358   -0.041448
     25          6           0        3.238231    0.449480    1.001408
     26          6           0        2.590150    0.489036    2.239543
     27          1           0        0.862862   -0.115228    3.383069
     28          1           0       -0.187436   -1.335376    1.487404
     29          1           0        0.963373   -1.414228   -0.737345
     30          1           0        4.191667    0.936244    0.835761
     31          1           0        3.051388    1.022763    3.065642
     32          7           0        3.300685   -0.291191   -1.356861
     33          8           0        4.380027    0.287610   -1.460044
     34          8           0        2.738803   -0.907342   -2.259792
 ---------------------------------------------------------------------

 SCF Done:  E(RHF) =  -669.535545929     A.U. after   15 cycles
 E2 =    -0.2092231964D+01 EUMP2 =    -0.67162777789231D+03

 The electronic state is 1-A.
 Alpha  occ. eigenvalues --  -20.60796 -20.60791 -15.85850 -11.31224 -11.27801
 Alpha  occ. eigenvalues --  -11.27793 -11.27525 -11.26804 -11.26777 -11.22454
 Alpha  occ. eigenvalues --  -11.21940 -11.21906 -11.21818 -11.21676 -11.21316
 Alpha  occ. eigenvalues --   -1.59872  -1.39425  -1.19400  -1.08968  -1.08785
 Alpha  occ. eigenvalues --   -1.04805  -1.04033  -0.96449  -0.95621  -0.87470
 Alpha  occ. eigenvalues --   -0.86197  -0.82459  -0.80135  -0.78781  -0.77495
 Alpha  occ. eigenvalues --   -0.72067  -0.71195  -0.70497  -0.65651  -0.65045
 Alpha  occ. eigenvalues --   -0.64773  -0.62170  -0.61411  -0.59834  -0.58070
 Alpha  occ. eigenvalues --   -0.55727  -0.55294  -0.53186  -0.53139  -0.52906
 Alpha  occ. eigenvalues --   -0.52837  -0.50395  -0.48835  -0.48823  -0.48423
 Alpha  occ. eigenvalues --   -0.47172  -0.46291  -0.46204  -0.44828  -0.44281
 Alpha  occ. eigenvalues --   -0.37366  -0.36379
 Alpha virt. eigenvalues --    0.05015   0.11212   0.16399   0.19755   0.22772
 Alpha virt. eigenvalues --    0.23793   0.25044   0.26455   0.27527   0.28302
 Alpha virt. eigenvalues --    0.29097   0.30088   0.31220   0.31458   0.32255

 Mulliken charges:
               1
     1  C   -0.303532
     2  C   -0.299983
     3  C   -0.476425
     4  H    0.147307
     5  H    0.150493
     6  H    0.152589
     7  H    0.155456
     8  H    0.156946
     9  H    0.153298
    10  H    0.162446
    11  C   -0.298796
    12  C   -0.303564
    13  C   -0.475638
    14  H    0.152557
    15  H    0.152913
    16  H    0.152265
    17  H    0.142140
    18  H    0.158270
    19  H    0.158590
    20  H    0.160359
    21  C   -0.172511
    22  C   -0.222578
    23  C   -0.174345
    24  C    0.158518
    25  C   -0.170842
    26  C   -0.218515
    27  H    0.226817
    28  H    0.233684
    29  H    0.275203
    30  H    0.275822
    31  H    0.223697
    32  N    0.488150
    33  O   -0.460312
    34  O   -0.460479
 Sum of Mulliken charges =  -0.00000

 Dipole moment (field-independent basis, Debye):
    X=             -2.4584    Y=              0.2085    Z=              4.5852  Tot=              5.2069
 Quadrupole moment (field-independent basis, Debye-Ang):
   XX=           -103.7435   YY=            -94.6923   ZZ=            -94.7352
   XY=              2.8995   XZ=             13.6956   YZ=             -0.1262

 Normal termination of Gaussian 16 at Wed May  5 17:00:46 2021.
