 Gaussian 16, Revision A.03,
 Gaussian 16:  EM64L-G16RevA.03 25-Dec-2016

 -------------
 #p 6-31g* mp2
 -------------

 ------------------------------------------------------
 Input file generated by CHIRIPA (05-May-2021 14:51:13)
 ------------------------------------------------------
 Symbolic Z-matrix:
 Charge =  0 Multiplicity = 1

                         Standard orientation:
 ---------------------------------------------------------------------
 Center     Atomic      Atomic             Coordinates (Angstroms)
 Number     Number       Type             X           Y           Z
 ---------------------------------------------------------------------
      1          6           0       -3.200811   -0.596790   -0.499716
      2          6           0       -4.342914    0.419145   -0.537956
      3          6           0       -5.059622    0.452329   -1.888150
      4          1           0       -2.479686   -0.358304   -1.293472
      5          1           0       -3.599302   -1.594806   -0.728984
      6          1           0       -3.942624    1.414731   -0.307324
      7          1           0       -5.061307    0.178327    0.256106
      8          1           0       -5.485778   -0.528573   -2.122295
      9          1           0       -4.360739    0.714856   -2.688926
     10          1           0       -5.872366    1.185323   -1.893342
     11          6           0       -2.474652   -0.641674    0.843566
     12          6           0       -1.332549   -1.657609    0.881807
     13          6           0       -0.615841   -1.690793    2.232001
     14          1           0       -2.076161    0.356342    1.072835
     15          1           0       -3.195777   -0.880160    1.637323
     16          1           0       -0.614156   -1.416791    0.087745
     17          1           0       -1.732839   -2.653195    0.651175
     18          1           0       -1.314724   -1.953320    3.032777
     19          1           0       -0.189685   -0.709891    2.466146
     20          1           0        0.196903   -2.423787    2.237193
     21          6           0        2.686921    1.269970    0.198518
     22          6           0        1.192409    1.575553    0.303571
     23          6           0        0.906711    2.880567    1.047284
     24          1           0        3.116282    1.219653    1.208500
     25          1           0        3.189173    2.102408   -0.313522
     26          1           0        0.692913    0.742157    0.814032
     27          1           0        0.766518    1.624959   -0.706771
     28          1           0        1.378870    3.726196    0.536815
     29          1           0        1.304846    2.838377    2.066258
     30          1           0       -0.167643    3.079541    1.110787
     31          6           0        2.988542   -0.031506   -0.542369
     32          6           0        4.483054   -0.337089   -0.647422
     33          6           0        4.768753   -1.642103   -1.391135
     34          1           0        2.486290   -0.863944   -0.030329
     35          1           0        2.559181    0.018811   -1.552351
     36          1           0        4.908945   -0.386495    0.362921
     37          1           0        4.982551    0.496307   -1.157884
     38          1           0        4.370618   -1.599914   -2.410110
     39          1           0        4.296593   -2.487732   -0.880665
     40          1           0        5.843107   -1.841077   -1.454639
 ---------------------------------------------------------------------

 SCF Done:  E(RHF) =  -470.732960921     A.U. after   11 cycles
 E2 =    -0.1584121559D+01 EUMP2 =    -0.47231708248035D+03

 The electronic state is 1-A.
 Alpha  occ. eigenvalues --  -11.21623 -11.21617 -11.21596 -11.21591 -11.21437
 Alpha  occ. eigenvalues --  -11.21393 -11.21377 -11.21334 -11.21135 -11.21120
 Alpha  occ. eigenvalues --  -11.21085 -11.21067  -1.08491  -1.08404  -1.03607
 Alpha  occ. eigenvalues --   -1.03504  -0.96015  -0.95995  -0.87032  -0.87008
 Alpha  occ. eigenvalues --   -0.79640  -0.79596  -0.78288  -0.78237  -0.65295
 Alpha  occ. eigenvalues --   -0.64907  -0.61237  -0.60709  -0.59388  -0.59332
 Alpha  occ. eigenvalues --   -0.57635  -0.57589  -0.55340  -0.55258  -0.52708
 Alpha  occ. eigenvalues --   -0.52689  -0.52466  -0.52391  -0.50003  -0.49893
 Alpha  occ. eigenvalues --   -0.48050  -0.47836  -0.46731  -0.46557  -0.45966
 Alpha  occ. eigenvalues --   -0.45789  -0.45665  -0.45521  -0.43818  -0.43788
 Alpha virt. eigenvalues --    0.20067   0.22872   0.23891   0.24063   0.25943
 Alpha virt. eigenvalues --    0.26240   0.26568   0.28061   0.28767   0.29590
 Alpha virt. eigenvalues --    0.30240   0.31472   0.31629   0.31744   0.31882

 Mulliken charges:
               1
     1  C   -0.298322
     2  C   -0.299626
     3  C   -0.475686
     4  H    0.150168
     5  H    0.149420
     6  H    0.151750
     7  H    0.151894
     8  H    0.155185
     9  H    0.155131
    10  H    0.160224
    11  C   -0.300062
    12  C   -0.303819
    13  C   -0.479093
    14  H    0.151581
    15  H    0.149533
    16  H    0.155292
    17  H    0.152814
    18  H    0.156026
    19  H    0.156686
    20  H    0.159909
    21  C   -0.297517
    22  C   -0.310976
    23  C   -0.476277
    24  H    0.149716
    25  H    0.149617
    26  H    0.164264
    27  H    0.151157
    28  H    0.155733
    29  H    0.155331
    30  H    0.159988
    31  C   -0.300398
    32  C   -0.299680
    33  C   -0.475743
    34  H    0.151454
    35  H    0.149332
    36  H    0.152146
    37  H    0.152055
    38  H    0.155178
    39  H    0.155265
    40  H    0.160352
 Sum of Mulliken charges =  -0.00000

 Dipole moment (field-independent basis, Debye):
    X=              0.0101    Y=             -0.0078    Z=              0.0036  Tot=              0.0133
 Quadrupole moment (field-independent basis, Debye-Ang):
   XX=            -84.8606   YY=            -84.9038   ZZ=            -85.0020
   XY=              0.9219   XZ=             -0.6182   YZ=             -1.0297

 Normal termination of Gaussian 16 at Thu May  6 02:22:22 2021.
