 Gaussian 16, Revision A.03,
 Gaussian 16:  EM64L-G16RevA.03 25-Dec-2016

 -------------
 #p 6-31g* mp2
 -------------

 ------------------------------------------------------
 Input file generated by CHIRIPA (05-May-2021 14:53:18)
 ------------------------------------------------------
 Symbolic Z-matrix:
 Charge =  0 Multiplicity = 1

                         Standard orientation:
 ---------------------------------------------------------------------
 Center     Atomic      Atomic             Coordinates (Angstroms)
 Number     Number       Type             X           Y           Z
 ---------------------------------------------------------------------
      1          6           0        3.785285   -0.512131    0.117717
      2          6           0        4.611818   -1.500196   -0.706028
      3          6           0        4.981868   -2.759400    0.078359
      4          1           0        4.349892   -0.232532    1.017709
      5          1           0        2.869989   -1.010921    0.465334
      6          1           0        5.524618   -0.999278   -1.053148
      7          1           0        4.045256   -1.777329   -1.604261
      8          1           0        4.080795   -3.284254    0.411821
      9          1           0        5.568562   -2.501783    0.966066
     10          1           0        5.572513   -3.451914   -0.529442
     11          6           0        3.407585    0.751765   -0.652761
     12          6           0        2.581052    1.739830    0.170984
     13          6           0        2.211002    2.999034   -0.613403
     14          1           0        4.322880    1.250555   -1.000379
     15          1           0        2.842977    0.472166   -1.552754
     16          1           0        3.147613    2.016963    1.069216
     17          1           0        1.668251    1.238912    0.518103
     18          1           0        1.624307    2.741417   -1.501110
     19          1           0        3.112074    3.523888   -0.946866
     20          1           0        1.620356    3.691548   -0.005603
     21          6           0       -4.587309   -1.119595   -1.258455
     22          6           0       -4.163583   -1.784676   -0.103188
     23          6           0       -3.179331   -1.225603    0.717321
     24          6           0       -2.637863    0.005582    0.350870
     25          6           0       -3.039061    0.692680   -0.793781
     26          6           0       -4.024688    0.114785   -1.599463
     27          1           0       -5.352433   -1.561207   -1.890089
     28          1           0       -4.598756   -2.743436    0.164112
     29          1           0       -2.832793   -1.718903    1.617313
     30          1           0       -2.586659    1.647111   -1.034221
     31          1           0       -4.351820    0.633558   -2.496071
     32          7           0       -1.595153    0.607410    1.211659
     33          8           0       -1.133821    1.693189    0.866849
     34          8           0       -1.258953   -0.018051    2.214856
 ---------------------------------------------------------------------

 SCF Done:  E(RHF) =  -669.536215961     A.U. after   15 cycles
 E2 =    -0.2091339543D+01 EUMP2 =    -0.67162755550460D+03

 The electronic state is 1-A.
 Alpha  occ. eigenvalues --  -20.61010 -20.60993 -15.86024 -11.31334 -11.27893
 Alpha  occ. eigenvalues --  -11.27889 -11.27628 -11.26895 -11.26886 -11.21017
 Alpha  occ. eigenvalues --  -11.20587 -11.20580 -11.20438 -11.20182 -11.19863
 Alpha  occ. eigenvalues --   -1.60061  -1.39615  -1.19499  -1.08907  -1.07540
 Alpha  occ. eigenvalues --   -1.04892  -1.02600  -0.95750  -0.95092  -0.86293
 Alpha  occ. eigenvalues --   -0.86124  -0.82582  -0.78695  -0.77638  -0.77295
 Alpha  occ. eigenvalues --   -0.72239  -0.71380  -0.70606  -0.65154  -0.64894
 Alpha  occ. eigenvalues --   -0.64181  -0.62238  -0.60003  -0.58481  -0.56660
 Alpha  occ. eigenvalues --   -0.55396  -0.54409  -0.53225  -0.52982  -0.51784
 Alpha  occ. eigenvalues --   -0.51519  -0.49128  -0.48998  -0.48975  -0.47003
 Alpha  occ. eigenvalues --   -0.45761  -0.45123  -0.44863  -0.44556  -0.42866
 Alpha  occ. eigenvalues --   -0.37477  -0.36492
 Alpha virt. eigenvalues --    0.04852   0.11163   0.16345   0.21286   0.23674
 Alpha virt. eigenvalues --    0.25181   0.27208   0.27474   0.28140   0.28440
 Alpha virt. eigenvalues --    0.28870   0.30866   0.32129   0.32566   0.32651

 Mulliken charges:
               1
     1  C   -0.297669
     2  C   -0.298700
     3  C   -0.475033
     4  H    0.149965
     5  H    0.151290
     6  H    0.150488
     7  H    0.148974
     8  H    0.154460
     9  H    0.155353
    10  H    0.157448
    11  C   -0.297940
    12  C   -0.304436
    13  C   -0.471757
    14  H    0.145353
    15  H    0.144154
    16  H    0.149338
    17  H    0.171378
    18  H    0.147764
    19  H    0.147089
    20  H    0.167479
    21  C   -0.170496
    22  C   -0.218601
    23  C   -0.170870
    24  C    0.158323
    25  C   -0.170910
    26  C   -0.218589
    27  H    0.226179
    28  H    0.223978
    29  H    0.275928
    30  H    0.276231
    31  H    0.224058
    32  N    0.487594
    33  O   -0.458809
    34  O   -0.459015
 Sum of Mulliken charges =  -0.00000

 Dipole moment (field-independent basis, Debye):
    X=             -3.9890    Y=             -2.0985    Z=             -2.8816  Tot=              5.3497
 Quadrupole moment (field-independent basis, Debye-Ang):
   XX=            -76.2889   YY=            -92.9799   ZZ=            -95.6567
   XY=              6.7535   XZ=              7.3472   YZ=             -2.8033

 Normal termination of Gaussian 16 at Wed May  5 22:03:39 2021.
