 Gaussian 16, Revision A.03,
 Gaussian 16:  EM64L-G16RevA.03 25-Dec-2016

 -------------
 #p 6-31g* mp2
 -------------

 ------------------------------------------------------
 Input file generated by CHIRIPA (05-May-2021 14:57:23)
 ------------------------------------------------------
 Symbolic Z-matrix:
 Charge =  0 Multiplicity = 1

                         Standard orientation:
 ---------------------------------------------------------------------
 Center     Atomic      Atomic             Coordinates (Angstroms)
 Number     Number       Type             X           Y           Z
 ---------------------------------------------------------------------
      1          6           0       -5.507432    0.981542    0.071273
      2          6           0       -4.391838    1.823787    0.020338
      3          6           0       -3.104566    1.290863   -0.095722
      4          6           0       -2.968875   -0.095112   -0.158581
      5          6           0       -4.060719   -0.960464   -0.110293
      6          6           0       -5.338610   -0.405450    0.005910
      7          1           0       -6.503772    1.404110    0.161487
      8          1           0       -4.519941    2.901321    0.070891
      9          1           0       -2.223572    1.919780   -0.137324
     10          1           0       -3.901336   -2.030627   -0.162892
     11          1           0       -6.203177   -1.061972    0.045240
     12          7           0       -1.611063   -0.670988   -0.281525
     13          8           0       -1.518269   -1.895390   -0.335041
     14          8           0       -0.665315    0.112948   -0.322043
     15          6           0        3.994117    2.374790   -0.153084
     16          6           0        4.549017    1.348967   -0.925286
     17          6           0        4.112644    0.029606   -0.772276
     18          6           0        3.115177   -0.229366    0.166490
     19          6           0        2.542726    0.770918    0.950725
     20          6           0        2.994504    2.083005    0.780810
     21          1           0        4.339086    3.396876   -0.278511
     22          1           0        5.325471    1.572635   -1.651327
     23          1           0        4.524945   -0.783759   -1.356966
     24          1           0        1.770209    0.517021    1.666387
     25          1           0        2.561749    2.877659    1.381887
     26          7           0        2.645053   -1.622264    0.337423
     27          8           0        1.765026   -1.824303    1.171310
     28          8           0        3.165500   -2.485604   -0.365725
 ---------------------------------------------------------------------

 SCF Done:  E(RHF) =  -868.336863584     A.U. after   16 cycles
 E2 =    -0.2601064432D+01 EUMP2 =    -0.87093792801614D+03

 The electronic state is 1-A.
 Alpha  occ. eigenvalues --  -20.60507 -20.60407 -20.59208 -20.59109 -15.85506
 Alpha  occ. eigenvalues --  -15.84222 -11.31041 -11.29809 -11.27666 -11.27589
 Alpha  occ. eigenvalues --  -11.27396 -11.26702 -11.26650 -11.26511 -11.26422
 Alpha  occ. eigenvalues --  -11.26361 -11.25599 -11.25568  -1.59504  -1.58202
 Alpha  occ. eigenvalues --   -1.39066  -1.37760  -1.19224  -1.18049  -1.08586
 Alpha  occ. eigenvalues --   -1.07415  -1.04655  -1.03519  -0.95397  -0.94209
 Alpha  occ. eigenvalues --   -0.86045  -0.84910  -0.82232  -0.81067  -0.77254
 Alpha  occ. eigenvalues --   -0.76044  -0.71739  -0.70851  -0.70461  -0.70334
 Alpha  occ. eigenvalues --   -0.69482  -0.69218  -0.64879  -0.64659  -0.63732
 Alpha  occ. eigenvalues --   -0.63572  -0.62004  -0.60876  -0.55147  -0.54079
 Alpha  occ. eigenvalues --   -0.52972  -0.52752  -0.51803  -0.51651  -0.48534
 Alpha  occ. eigenvalues --   -0.48441  -0.47238  -0.47177  -0.44431  -0.43081
 Alpha  occ. eigenvalues --   -0.37210  -0.36266  -0.36057  -0.35102
 Alpha virt. eigenvalues --    0.05261   0.06574   0.11386   0.12546   0.16747
 Alpha virt. eigenvalues --    0.17950   0.21493   0.22448   0.27383   0.28230
 Alpha virt. eigenvalues --    0.28466   0.29395   0.31034   0.31921   0.32628

 Mulliken charges:
               1
     1  C   -0.171304
     2  C   -0.218356
     3  C   -0.171817
     4  C    0.159240
     5  C   -0.170441
     6  C   -0.218442
     7  H    0.224851
     8  H    0.221444
     9  H    0.271500
    10  H    0.278078
    11  H    0.223714
    12  N    0.491091
    13  O   -0.446534
    14  O   -0.471349
    15  C   -0.171854
    16  C   -0.219784
    17  C   -0.171392
    18  C    0.163477
    19  C   -0.153178
    20  C   -0.221645
    21  H    0.219278
    22  H    0.218026
    23  H    0.272662
    24  H    0.275262
    25  H    0.216047
    26  N    0.491681
    27  O   -0.452585
    28  O   -0.467669
 Sum of Mulliken charges =  -0.00000

 Dipole moment (field-independent basis, Debye):
    X=             -3.4842    Y=              6.5567    Z=             -0.1093  Tot=              7.4258
 Quadrupole moment (field-independent basis, Debye-Ang):
   XX=            -66.0093   YY=           -103.8751   ZZ=           -104.1570
   XY=             10.2221   XZ=             -4.6558   YZ=              1.8211

 Normal termination of Gaussian 16 at Fri May  7 03:20:13 2021.
