 Gaussian 16, Revision A.03,
 Gaussian 16:  EM64L-G16RevA.03 25-Dec-2016

 -------------
 #p 6-31g* mp2
 -------------

 ------------------------------------------------------
 Input file generated by CHIRIPA (05-May-2021 14:51:12)
 ------------------------------------------------------
 Symbolic Z-matrix:
 Charge =  0 Multiplicity = 1

                         Standard orientation:
 ---------------------------------------------------------------------
 Center     Atomic      Atomic             Coordinates (Angstroms)
 Number     Number       Type             X           Y           Z
 ---------------------------------------------------------------------
      1          6           0        3.756224    0.087860    0.360562
      2          6           0        2.864163    1.050032   -0.424573
      3          6           0        1.524859    1.310780    0.265405
      4          1           0        3.223922   -0.862683    0.502220
      5          1           0        3.933566    0.499328    1.363876
      6          1           0        2.689692    0.637535   -1.426582
      7          1           0        3.398726    1.998329   -0.564543
      8          1           0        1.681065    1.745130    1.258149
      9          1           0        0.968003    0.376604    0.391213
     10          1           0        0.902994    2.001177   -0.312950
     11          6           0        5.098662   -0.182719   -0.316473
     12          6           0        5.990723   -1.144891    0.468663
     13          6           0        7.330027   -1.405639   -0.221315
     14          1           0        4.921321   -0.594187   -1.319787
     15          1           0        5.630964    0.767824   -0.458130
     16          1           0        5.456160   -2.093188    0.608633
     17          1           0        6.165194   -0.732394    1.470672
     18          1           0        7.886883   -0.471463   -0.347123
     19          1           0        7.173821   -1.839989   -1.214059
     20          1           0        7.951892   -2.096036    0.357040
     21          6           0       -5.125350   -0.213168    0.146616
     22          6           0       -5.342063   -1.671774   -0.257724
     23          6           0       -6.742978   -2.178673    0.086202
     24          1           0       -5.299800   -0.108806    1.226255
     25          1           0       -5.876274    0.414109   -0.353416
     26          1           0       -4.590086   -2.295941    0.241840
     27          1           0       -5.166890   -1.772713   -1.336492
     28          1           0       -7.505050   -1.580653   -0.423915
     29          1           0       -6.924969   -2.106854    1.163384
     30          1           0       -6.876191   -3.223428   -0.211458
     31          6           0       -3.729536    0.308027   -0.190706
     32          6           0       -3.512824    1.766632    0.213634
     33          6           0       -2.111909    2.273532   -0.130292
     34          1           0       -2.978612   -0.319251    0.309326
     35          1           0       -3.555087    0.203665   -1.270346
     36          1           0       -3.687997    1.867572    1.292403
     37          1           0       -4.264800    2.390800   -0.285929
     38          1           0       -1.929918    2.201712   -1.207475
     39          1           0       -1.349837    1.675513    0.379825
     40          1           0       -1.978695    3.318288    0.167368
 ---------------------------------------------------------------------

 SCF Done:  E(RHF) =  -470.732472294     A.U. after   11 cycles
 E2 =    -0.1582644039D+01 EUMP2 =    -0.47231511633225D+03

 The electronic state is 1-A.
 Alpha  occ. eigenvalues --  -11.21589 -11.21584 -11.21556 -11.21525 -11.21382
 Alpha  occ. eigenvalues --  -11.21370 -11.21323 -11.21310 -11.21061 -11.21057
 Alpha  occ. eigenvalues --  -11.20986 -11.20913  -1.08410  -1.08385  -1.03530
 Alpha  occ. eigenvalues --   -1.03455  -0.96032  -0.95862  -0.87113  -0.86826
 Alpha  occ. eigenvalues --   -0.79690  -0.79440  -0.78236  -0.78187  -0.65044
 Alpha  occ. eigenvalues --   -0.65015  -0.60939  -0.60856  -0.59355  -0.59299
 Alpha  occ. eigenvalues --   -0.57625  -0.57483  -0.55313  -0.55172  -0.52963
 Alpha  occ. eigenvalues --   -0.52589  -0.52379  -0.52090  -0.49959  -0.49787
 Alpha  occ. eigenvalues --   -0.47899  -0.47834  -0.46647  -0.46531  -0.45788
 Alpha  occ. eigenvalues --   -0.45733  -0.45690  -0.45644  -0.43787  -0.43634
 Alpha virt. eigenvalues --    0.22642   0.22950   0.23795   0.24623   0.26254
 Alpha virt. eigenvalues --    0.26738   0.26861   0.27465   0.27691   0.29099
 Alpha virt. eigenvalues --    0.29909   0.31090   0.31509   0.31844   0.32328

 Mulliken charges:
               1
     1  C   -0.298511
     2  C   -0.300156
     3  C   -0.480012
     4  H    0.149423
     5  H    0.149328
     6  H    0.151863
     7  H    0.151774
     8  H    0.154623
     9  H    0.153478
    10  H    0.168569
    11  C   -0.298233
    12  C   -0.299581
    13  C   -0.475683
    14  H    0.149478
    15  H    0.149612
    16  H    0.151857
    17  H    0.151861
    18  H    0.155164
    19  H    0.155163
    20  H    0.160188
    21  C   -0.298206
    22  C   -0.299590
    23  C   -0.475676
    24  H    0.149607
    25  H    0.149505
    26  H    0.151769
    27  H    0.151831
    28  H    0.155169
    29  H    0.155167
    30  H    0.160139
    31  C   -0.298099
    32  C   -0.300163
    33  C   -0.482019
    34  H    0.149106
    35  H    0.149399
    36  H    0.151627
    37  H    0.151206
    38  H    0.153442
    39  H    0.166377
    40  H    0.159202
 Sum of Mulliken charges =  -0.00000

 Dipole moment (field-independent basis, Debye):
    X=              0.0190    Y=              0.0133    Z=              0.0033  Tot=              0.0235
 Quadrupole moment (field-independent basis, Debye-Ang):
   XX=            -86.7631   YY=            -84.4438   ZZ=            -83.8731
   XY=              0.1039   XZ=              1.0458   YZ=              0.1203

 Normal termination of Gaussian 16 at Wed May  5 15:18:06 2021.
