 Gaussian 16, Revision A.03,
 Gaussian 16:  EM64L-G16RevA.03 25-Dec-2016

 -------------
 #p 6-31g* mp2
 -------------

 ------------------------------------------------------
 Input file generated by CHIRIPA (05-May-2021 14:51:13)
 ------------------------------------------------------
 Symbolic Z-matrix:
 Charge =  0 Multiplicity = 1

                         Standard orientation:
 ---------------------------------------------------------------------
 Center     Atomic      Atomic             Coordinates (Angstroms)
 Number     Number       Type             X           Y           Z
 ---------------------------------------------------------------------
      1          6           0        4.972763   -0.149268   -0.385746
      2          6           0        5.463413   -1.235565    0.571964
      3          6           0        6.909090   -1.653339    0.301267
      4          1           0        5.063880   -0.511721   -1.418833
      5          1           0        5.630330    0.727161   -0.302846
      6          1           0        4.804295   -2.109166    0.488289
      7          1           0        5.370938   -0.870556    1.602902
      8          1           0        7.583298   -0.796932    0.404271
      9          1           0        7.013436   -2.042580   -0.716674
     10          1           0        7.239354   -2.430752    0.997267
     11          6           0        3.529227    0.278934   -0.127725
     12          6           0        3.038577    1.365230   -1.085435
     13          6           0        1.592900    1.783005   -0.814738
     14          1           0        2.871659   -0.597495   -0.210624
     15          1           0        3.438110    0.641387    0.905363
     16          1           0        3.131052    1.000221   -2.116372
     17          1           0        3.697694    2.238831   -1.001760
     18          1           0        1.488553    2.172245    0.203203
     19          1           0        0.918691    0.926597   -0.917742
     20          1           0        1.262636    2.560417   -1.510737
     21          6           0       -5.007616   -0.154961    0.309968
     22          6           0       -5.586567   -1.070810   -0.768930
     23          6           0       -7.101294   -1.241284   -0.649195
     24          1           0       -5.255041   -0.562798    1.299612
     25          1           0       -5.494330    0.828130    0.246435
     26          1           0       -5.097919   -2.051451   -0.704273
     27          1           0       -5.337571   -0.660847   -1.756122
     28          1           0       -7.605903   -0.273557   -0.735656
     29          1           0       -7.364890   -1.672063    0.322170
     30          1           0       -7.494169   -1.899733   -1.430190
     31          6           0       -3.494374    0.025295    0.203503
     32          6           0       -2.915422    0.941144    1.282401
     33          6           0       -1.400696    1.111619    1.162665
     34          1           0       -3.007659   -0.957796    0.267036
     35          1           0       -3.246949    0.433133   -0.786141
     36          1           0       -3.164419    0.531182    2.269592
     37          1           0       -3.404070    1.921786    1.217744
     38          1           0       -1.137100    1.542398    0.191302
     39          1           0       -0.896087    0.143892    1.249127
     40          1           0       -1.007821    1.770068    1.943660
 ---------------------------------------------------------------------

 SCF Done:  E(RHF) =  -470.732352295     A.U. after   11 cycles
 E2 =    -0.1582763489D+01 EUMP2 =    -0.47231511578329D+03

 The electronic state is 1-A.
 Alpha  occ. eigenvalues --  -11.21582 -11.21578 -11.21524 -11.21510 -11.21370
 Alpha  occ. eigenvalues --  -11.21364 -11.21310 -11.21303 -11.21056 -11.21053
 Alpha  occ. eigenvalues --  -11.20938 -11.20908  -1.08396  -1.08375  -1.03521
 Alpha  occ. eigenvalues --   -1.03437  -0.96027  -0.95837  -0.87111  -0.86795
 Alpha  occ. eigenvalues --   -0.79712  -0.79390  -0.78240  -0.78152  -0.65021
 Alpha  occ. eigenvalues --   -0.65013  -0.60895  -0.60865  -0.59312  -0.59288
 Alpha  occ. eigenvalues --   -0.57701  -0.57418  -0.55251  -0.55194  -0.52839
 Alpha  occ. eigenvalues --   -0.52621  -0.52526  -0.52004  -0.49894  -0.49828
 Alpha  occ. eigenvalues --   -0.48110  -0.47578  -0.46588  -0.46543  -0.45842
 Alpha  occ. eigenvalues --   -0.45682  -0.45667  -0.45548  -0.43737  -0.43725
 Alpha virt. eigenvalues --    0.22580   0.22987   0.23694   0.24746   0.26432
 Alpha virt. eigenvalues --    0.26576   0.26774   0.27580   0.27676   0.29294
 Alpha virt. eigenvalues --    0.30587   0.30886   0.31611   0.31789   0.32401

 Mulliken charges:
               1
     1  C   -0.298203
     2  C   -0.299579
     3  C   -0.475672
     4  H    0.149527
     5  H    0.149450
     6  H    0.151785
     7  H    0.151898
     8  H    0.155153
     9  H    0.155130
    10  H    0.160140
    11  C   -0.298016
    12  C   -0.300632
    13  C   -0.477546
    14  H    0.149231
    15  H    0.149679
    16  H    0.151296
    17  H    0.151300
    18  H    0.158358
    19  H    0.157912
    20  H    0.158366
    21  C   -0.298133
    22  C   -0.299603
    23  C   -0.475676
    24  H    0.149616
    25  H    0.149496
    26  H    0.151772
    27  H    0.151850
    28  H    0.155170
    29  H    0.155152
    30  H    0.160144
    31  C   -0.298293
    32  C   -0.300465
    33  C   -0.477594
    34  H    0.149011
    35  H    0.149379
    36  H    0.151112
    37  H    0.151448
    38  H    0.163429
    39  H    0.154081
    40  H    0.158529
 Sum of Mulliken charges =  -0.00000

 Dipole moment (field-independent basis, Debye):
    X=              0.0039    Y=              0.0166    Z=             -0.0028  Tot=              0.0173
 Quadrupole moment (field-independent basis, Debye-Ang):
   XX=            -87.2233   YY=            -83.8302   ZZ=            -84.0739
   XY=              0.2842   XZ=              0.4229   YZ=             -0.0483

 Normal termination of Gaussian 16 at Wed May  5 19:57:43 2021.
