 Gaussian 16, Revision A.03,
 Gaussian 16:  EM64L-G16RevA.03 25-Dec-2016

 -------------
 #p 6-31g* mp2
 -------------

 ------------------------------------------------------
 Input file generated by CHIRIPA (05-May-2021 14:53:18)
 ------------------------------------------------------
 Symbolic Z-matrix:
 Charge =  0 Multiplicity = 1

                         Standard orientation:
 ---------------------------------------------------------------------
 Center     Atomic      Atomic             Coordinates (Angstroms)
 Number     Number       Type             X           Y           Z
 ---------------------------------------------------------------------
      1          6           0        2.322235    0.818593   -0.769845
      2          6           0        2.667940    1.990377    0.149608
      3          6           0        2.301229    3.345419   -0.456344
      4          1           0        2.843847    0.946522   -1.728229
      5          1           0        1.246733    0.842183   -0.993749
      6          1           0        3.742222    1.963780    0.372827
      7          1           0        2.145596    1.859545    1.105984
      8          1           0        1.227362    3.397032   -0.663099
      9          1           0        2.833061    3.501859   -1.400422
     10          1           0        2.556931    4.168995    0.217599
     11          6           0        2.682905   -0.542768   -0.177949
     12          6           0        2.337200   -1.714553   -1.097402
     13          6           0        2.703911   -3.069595   -0.491450
     14          1           0        3.758407   -0.566359    0.045955
     15          1           0        2.161293   -0.670697    0.780435
     16          1           0        2.859544   -1.583720   -2.053778
     17          1           0        1.262918   -1.687956   -1.320621
     18          1           0        2.172080   -3.226035    0.452628
     19          1           0        3.777778   -3.121208   -0.284695
     20          1           0        2.448209   -3.893171   -1.165393
     21          6           0       -3.717640    0.311240   -1.385884
     22          6           0       -3.183224    1.381609   -0.661154
     23          6           0       -2.206194    1.161213    0.314237
     24          6           0       -1.784740   -0.148250    0.540007
     25          6           0       -2.297951   -1.235523   -0.165499
     26          6           0       -3.274080   -0.991612   -1.136184
     27          1           0       -4.476270    0.491582   -2.141764
     28          1           0       -3.525805    2.394475   -0.852946
     29          1           0       -1.775490    1.971468    0.889910
     30          1           0       -1.936495   -2.234091    0.048115
     31          1           0       -3.687335   -1.824801   -1.697487
     32          7           0       -0.750880   -0.394020    1.570118
     33          8           0       -0.396425   -1.557037    1.750088
     34          8           0       -0.314571    0.581017    2.178045
 ---------------------------------------------------------------------

 SCF Done:  E(RHF) =  -669.537099266     A.U. after   15 cycles
 E2 =    -0.2094415406D+01 EUMP2 =    -0.67163151467250D+03

 The electronic state is 1-A.
 Alpha  occ. eigenvalues --  -20.61198 -20.61193 -15.86172 -11.31429 -11.27966
 Alpha  occ. eigenvalues --  -11.27961 -11.27680 -11.26952 -11.26942 -11.20856
 Alpha  occ. eigenvalues --  -11.20712 -11.20653 -11.20572 -11.20327 -11.20192
 Alpha  occ. eigenvalues --   -1.60227  -1.39784  -1.19576  -1.08994  -1.07606
 Alpha  occ. eigenvalues --   -1.04954  -1.02752  -0.95849  -0.95230  -0.86358
 Alpha  occ. eigenvalues --   -0.86244  -0.82688  -0.78819  -0.77754  -0.77407
 Alpha  occ. eigenvalues --   -0.72403  -0.71582  -0.70676  -0.65231  -0.64952
 Alpha  occ. eigenvalues --   -0.64175  -0.62301  -0.60148  -0.58599  -0.56837
 Alpha  occ. eigenvalues --   -0.55459  -0.54518  -0.53294  -0.53041  -0.51947
 Alpha  occ. eigenvalues --   -0.51651  -0.49232  -0.49178  -0.49121  -0.47166
 Alpha  occ. eigenvalues --   -0.45886  -0.45075  -0.44992  -0.44763  -0.43001
 Alpha  occ. eigenvalues --   -0.37523  -0.36542
 Alpha virt. eigenvalues --    0.04676   0.11024   0.16131   0.21040   0.23293
 Alpha virt. eigenvalues --    0.24711   0.26887   0.27220   0.27941   0.28687
 Alpha virt. eigenvalues --    0.28975   0.31019   0.31131   0.32367   0.32683

 Mulliken charges:
               1
     1  C   -0.297009
     2  C   -0.307710
     3  C   -0.473503
     4  H    0.145271
     5  H    0.140134
     6  H    0.149619
     7  H    0.173028
     8  H    0.147042
     9  H    0.152058
    10  H    0.159176
    11  C   -0.311542
    12  C   -0.294645
    13  C   -0.480027
    14  H    0.147347
    15  H    0.173873
    16  H    0.146694
    17  H    0.143295
    18  H    0.170282
    19  H    0.152824
    20  H    0.152995
    21  C   -0.170097
    22  C   -0.218301
    23  C   -0.171607
    24  C    0.159772
    25  C   -0.171169
    26  C   -0.218425
    27  H    0.226707
    28  H    0.224661
    29  H    0.276653
    30  H    0.276653
    31  H    0.224602
    32  N    0.489027
    33  O   -0.459017
    34  O   -0.458661
 Sum of Mulliken charges =  -0.00000

 Dipole moment (field-independent basis, Debye):
    X=             -3.8729    Y=              0.7949    Z=             -3.3135  Tot=              5.1586
 Quadrupole moment (field-independent basis, Debye-Ang):
   XX=            -81.6295   YY=            -91.8251   ZZ=            -99.2337
   XY=             -0.6236   XZ=              5.0632   YZ=              2.3262

 Normal termination of Gaussian 16 at Thu May  6 13:59:46 2021.
