 Gaussian 16, Revision A.03,
 Gaussian 16:  EM64L-G16RevA.03 25-Dec-2016

 -------------
 #p 6-31g* mp2
 -------------

 ------------------------------------------------------
 Input file generated by CHIRIPA (05-May-2021 14:55:24)
 ------------------------------------------------------
 Symbolic Z-matrix:
 Charge =  0 Multiplicity = 1

                         Standard orientation:
 ---------------------------------------------------------------------
 Center     Atomic      Atomic             Coordinates (Angstroms)
 Number     Number       Type             X           Y           Z
 ---------------------------------------------------------------------
      1          6           0       -3.230129    1.858687   -1.414335
      2          6           0       -4.263804    0.950377   -1.163315
      3          6           0       -4.027816   -0.203314   -0.409754
      4          6           0       -2.740344   -0.418246    0.079645
      5          6           0       -1.689711    0.467846   -0.153379
      6          6           0       -1.948641    1.614952   -0.909456
      7          1           0       -3.422361    2.752344   -2.000696
      8          1           0       -5.260013    1.137084   -1.554150
      9          1           0       -4.809737   -0.923154   -0.200358
     10          1           0       -0.707061    0.254531    0.249503
     11          1           0       -1.143955    2.318611   -1.102822
     12          7           0       -2.478371   -1.636121    0.878738
     13          8           0       -1.335309   -1.802516    1.298689
     14          8           0       -3.421058   -2.401237    1.069986
     15          6           0        3.579543    1.020078    0.248614
     16          6           0        2.383981    1.464475    1.091897
     17          6           0        2.431497    2.950667    1.447944
     18          1           0        4.507120    1.238108    0.795433
     19          1           0        3.611963    1.617945   -0.672743
     20          1           0        2.353023    0.864999    2.010748
     21          1           0        1.459136    1.245185    0.543089
     22          1           0        2.438784    3.564012    0.541107
     23          1           0        3.337750    3.181666    2.017105
     24          1           0        1.567463    3.246862    2.050916
     25          6           0        3.546269   -0.463212   -0.115354
     26          6           0        4.741832   -0.907609   -0.958636
     27          6           0        4.694317   -2.393801   -1.314684
     28          1           0        3.513851   -1.061079    0.806003
     29          1           0        2.618694   -0.681242   -0.662173
     30          1           0        5.666677   -0.688319   -0.409828
     31          1           0        4.772790   -0.308134   -1.877488
     32          1           0        3.788063   -2.624801   -1.883845
     33          1           0        4.687029   -3.007147   -0.407846
     34          1           0        5.558349   -2.689996   -1.917656
 ---------------------------------------------------------------------

 SCF Done:  E(RHF) =  -669.535469168     A.U. after   15 cycles
 E2 =    -0.2091386799D+01 EUMP2 =    -0.67162685596716D+03

 The electronic state is 1-A.
 Alpha  occ. eigenvalues --  -20.60741 -20.60735 -15.85792 -11.31156 -11.27734
 Alpha  occ. eigenvalues --  -11.27703 -11.27483 -11.26753 -11.26740 -11.22073
 Alpha  occ. eigenvalues --  -11.21637 -11.21604 -11.21516 -11.21406 -11.20954
 Alpha  occ. eigenvalues --   -1.59815  -1.39368  -1.19334  -1.08731  -1.08618
 Alpha  occ. eigenvalues --   -1.04741  -1.03724  -0.96148  -0.95565  -0.87166
 Alpha  occ. eigenvalues --   -0.86138  -0.82398  -0.79814  -0.78396  -0.77436
 Alpha  occ. eigenvalues --   -0.72011  -0.71138  -0.70453  -0.65277  -0.64984
 Alpha  occ. eigenvalues --   -0.64741  -0.62128  -0.61100  -0.59532  -0.57751
 Alpha  occ. eigenvalues --   -0.55436  -0.55243  -0.53069  -0.52894  -0.52817
 Alpha  occ. eigenvalues --   -0.52552  -0.50093  -0.48771  -0.48766  -0.48101
 Alpha  occ. eigenvalues --   -0.46856  -0.45934  -0.45838  -0.44774  -0.43962
 Alpha  occ. eigenvalues --   -0.37320  -0.36343
 Alpha virt. eigenvalues --    0.05090   0.11307   0.16581   0.19589   0.22965
 Alpha virt. eigenvalues --    0.23986   0.24972   0.26845   0.27523   0.28104
 Alpha virt. eigenvalues --    0.29279   0.30848   0.31454   0.31583   0.31992

 Mulliken charges:
               1
     1  C   -0.170755
     2  C   -0.219011
     3  C   -0.170299
     4  C    0.160581
     5  C   -0.181793
     6  C   -0.221533
     7  H    0.225489
     8  H    0.223397
     9  H    0.275517
    10  H    0.287115
    11  H    0.223399
    12  N    0.487399
    13  O   -0.459883
    14  O   -0.460652
    15  C   -0.298151
    16  C   -0.303007
    17  C   -0.476390
    18  H    0.151976
    19  H    0.146851
    20  H    0.161356
    21  H    0.140902
    22  H    0.151633
    23  H    0.159221
    24  H    0.160758
    25  C   -0.298827
    26  C   -0.299986
    27  C   -0.475861
    28  H    0.155699
    29  H    0.148769
    30  H    0.152028
    31  H    0.149951
    32  H    0.156366
    33  H    0.158100
    34  H    0.159643
 Sum of Mulliken charges =  -0.00000

 Dipole moment (field-independent basis, Debye):
    X=             -0.7978    Y=              4.2176    Z=             -2.7235  Tot=              5.0835
 Quadrupole moment (field-independent basis, Debye-Ang):
   XX=            -84.4545   YY=            -99.7115   ZZ=            -95.2097
   XY=            -10.1707   XZ=              9.2032   YZ=              1.1248

 Normal termination of Gaussian 16 at Thu May  6 09:30:17 2021.
