 Gaussian 16, Revision A.03,
 Gaussian 16:  EM64L-G16RevA.03 25-Dec-2016

 -------------
 #p 6-31g* mp2
 -------------

 ------------------------------------------------------
 Input file generated by CHIRIPA (05-May-2021 14:51:13)
 ------------------------------------------------------
 Symbolic Z-matrix:
 Charge =  0 Multiplicity = 1

                         Standard orientation:
 ---------------------------------------------------------------------
 Center     Atomic      Atomic             Coordinates (Angstroms)
 Number     Number       Type             X           Y           Z
 ---------------------------------------------------------------------
      1          6           0        3.207365    0.117635    0.186807
      2          6           0        2.983292    1.454953   -0.519846
      3          6           0        3.988301    2.525061   -0.092505
      4          1           0        3.144216    0.269072    1.273096
      5          1           0        4.227909   -0.232557   -0.021160
      6          1           0        1.963010    1.801841   -0.311739
      7          1           0        3.046792    1.300279   -1.604585
      8          1           0        5.010972    2.204071   -0.315464
      9          1           0        3.921032    2.708483    0.984728
     10          1           0        3.809824    3.472890   -0.609833
     11          6           0        2.210455   -0.962282   -0.229940
     12          6           0        2.434527   -2.299599    0.476713
     13          6           0        1.429519   -3.369708    0.049373
     14          1           0        1.189910   -0.612090   -0.021973
     15          1           0        2.273604   -1.113718   -1.316229
     16          1           0        2.371027   -2.144926    1.561453
     17          1           0        3.454810   -2.646488    0.268606
     18          1           0        1.496788   -3.553129   -1.027861
     19          1           0        0.406848   -3.048718    0.272331
     20          1           0        1.607996   -4.317536    0.566700
     21          6           0       -2.571515   -0.287021    0.269325
     22          6           0       -3.292642   -1.363302   -0.542822
     23          6           0       -3.007867   -2.777110   -0.035038
     24          1           0       -1.489979   -0.477733    0.240136
     25          1           0       -2.874773   -0.367419    1.322400
     26          1           0       -2.989167   -1.280011   -1.594288
     27          1           0       -4.372573   -1.169895   -0.511854
     28          1           0       -3.327176   -2.883890    1.006710
     29          1           0       -1.935909   -2.994632   -0.081874
     30          1           0       -3.533278   -3.530751   -0.629872
     31          6           0       -2.846304    1.131669   -0.226193
     32          6           0       -2.125178    2.207948    0.585955
     33          6           0       -2.409953    3.621756    0.078171
     34          1           0       -2.543046    1.212066   -1.279267
     35          1           0       -3.927841    1.322380   -0.197004
     36          1           0       -1.045247    2.014542    0.554987
     37          1           0       -2.428653    2.124658    1.637421
     38          1           0       -3.481910    3.839279    0.125006
     39          1           0       -2.090644    3.728538   -0.963578
     40          1           0       -1.884543    4.375398    0.673005
 ---------------------------------------------------------------------

 SCF Done:  E(RHF) =  -470.733283824     A.U. after   11 cycles
 E2 =    -0.1583861407D+01 EUMP2 =    -0.47231714523092D+03

 The electronic state is 1-A.
 Alpha  occ. eigenvalues --  -11.21653 -11.21647 -11.21642 -11.21603 -11.21459
 Alpha  occ. eigenvalues --  -11.21434 -11.21397 -11.21374 -11.21103 -11.21100
 Alpha  occ. eigenvalues --  -11.21094 -11.21041  -1.08487  -1.08448  -1.03583
 Alpha  occ. eigenvalues --   -1.03536  -0.96042  -0.95975  -0.87072  -0.86979
 Alpha  occ. eigenvalues --   -0.79687  -0.79563  -0.78365  -0.78205  -0.65234
 Alpha  occ. eigenvalues --   -0.64965  -0.61104  -0.60825  -0.59406  -0.59341
 Alpha  occ. eigenvalues --   -0.57721  -0.57541  -0.55487  -0.55126  -0.52717
 Alpha  occ. eigenvalues --   -0.52680  -0.52575  -0.52296  -0.50141  -0.49734
 Alpha  occ. eigenvalues --   -0.48123  -0.47802  -0.46853  -0.46442  -0.46229
 Alpha  occ. eigenvalues --   -0.45801  -0.45768  -0.45268  -0.43828  -0.43800
 Alpha virt. eigenvalues --    0.19344   0.22129   0.23583   0.24653   0.25115
 Alpha virt. eigenvalues --    0.26345   0.27021   0.27131   0.28554   0.29226
 Alpha virt. eigenvalues --    0.30888   0.31332   0.31688   0.31773   0.32039

 Mulliken charges:
               1
     1  C   -0.297934
     2  C   -0.301717
     3  C   -0.475694
     4  H    0.150013
     5  H    0.149918
     6  H    0.153073
     7  H    0.152039
     8  H    0.155340
     9  H    0.155412
    10  H    0.160467
    11  C   -0.304699
    12  C   -0.298931
    13  C   -0.483686
    14  H    0.154225
    15  H    0.149715
    16  H    0.152320
    17  H    0.152255
    18  H    0.155242
    19  H    0.161955
    20  H    0.161088
    21  C   -0.305102
    22  C   -0.298926
    23  C   -0.483506
    24  H    0.154573
    25  H    0.149525
    26  H    0.152232
    27  H    0.152020
    28  H    0.154919
    29  H    0.162741
    30  H    0.160665
    31  C   -0.297880
    32  C   -0.301855
    33  C   -0.475675
    34  H    0.150002
    35  H    0.150004
    36  H    0.152618
    37  H    0.152058
    38  H    0.155370
    39  H    0.155504
    40  H    0.160314
 Sum of Mulliken charges =  -0.00000

 Dipole moment (field-independent basis, Debye):
    X=              0.0124    Y=             -0.0070    Z=             -0.0031  Tot=              0.0146
 Quadrupole moment (field-independent basis, Debye-Ang):
   XX=            -84.0931   YY=            -86.5746   ZZ=            -83.9061
   XY=             -0.7200   XZ=             -1.1236   YZ=              0.3420

 Normal termination of Gaussian 16 at Thu May  6 00:48:57 2021.
