 Gaussian 16, Revision A.03,
 Gaussian 16:  EM64L-G16RevA.03 25-Dec-2016

 -------------
 #p 6-31g* mp2
 -------------

 ------------------------------------------------------
 Input file generated by CHIRIPA (05-May-2021 14:51:11)
 ------------------------------------------------------
 Symbolic Z-matrix:
 Charge =  0 Multiplicity = 1

                         Standard orientation:
 ---------------------------------------------------------------------
 Center     Atomic      Atomic             Coordinates (Angstroms)
 Number     Number       Type             X           Y           Z
 ---------------------------------------------------------------------
      1          6           0        3.066208   -0.455020    0.373369
      2          6           0        3.274114   -1.762155   -0.392241
      3          6           0        2.610724   -2.958854    0.290124
      4          1           0        3.464998   -0.566129    1.390996
      5          1           0        1.988681   -0.267300    0.478686
      6          1           0        4.350935   -1.946647   -0.497288
      7          1           0        2.874954   -1.647859   -1.408225
      8          1           0        1.531234   -2.800715    0.381192
      9          1           0        3.015601   -3.101201    1.297305
     10          1           0        2.771856   -3.882787   -0.274007
     11          6           0        3.723550    0.750443   -0.296323
     12          6           0        3.515644    2.057578    0.469287
     13          6           0        4.179033    3.254277   -0.213078
     14          1           0        4.801077    0.562723   -0.401640
     15          1           0        3.324759    0.861552   -1.313950
     16          1           0        3.914803    1.943282    1.485271
     17          1           0        2.438822    2.242070    0.574334
     18          1           0        3.774157    3.396624   -1.220258
     19          1           0        5.258524    3.096138   -0.304145
     20          1           0        4.017901    4.178210    0.351053
     21          6           0       -2.836966   -0.598736   -0.300710
     22          6           0       -2.885705   -2.016954    0.268734
     23          6           0       -1.763192   -2.907270   -0.265211
     24          1           0       -2.896139   -0.648242   -1.396609
     25          1           0       -1.864225   -0.147787   -0.060262
     26          1           0       -3.858592   -2.464596    0.028477
     27          1           0       -2.826603   -1.964056    1.363414
     28          1           0       -0.784556   -2.486379   -0.012776
     29          1           0       -1.822409   -2.989763   -1.355298
     30          1           0       -1.817022   -3.916496    0.154816
     31          6           0       -3.952791    0.303313    0.223664
     32          6           0       -3.904052    1.721531   -0.345780
     33          6           0       -5.026565    2.611846    0.188165
     34          1           0       -4.925532   -0.147637   -0.016784
     35          1           0       -3.893619    0.352818    1.319562
     36          1           0       -3.963155    1.668633   -1.440460
     37          1           0       -2.931165    2.169173   -0.105523
     38          1           0       -4.967348    2.694340    1.278252
     39          1           0       -6.005202    2.190956   -0.064271
     40          1           0       -4.972736    3.621074   -0.231863
 ---------------------------------------------------------------------

 SCF Done:  E(RHF) =  -470.733310916     A.U. after   11 cycles
 E2 =    -0.1582478751D+01 EUMP2 =    -0.47231578966712D+03

 The electronic state is 1-A.
 Alpha  occ. eigenvalues --  -11.21633 -11.21630 -11.21613 -11.21585 -11.21444
 Alpha  occ. eigenvalues --  -11.21415 -11.21383 -11.21355 -11.21100 -11.21092
 Alpha  occ. eigenvalues --  -11.21078 -11.21018  -1.08465  -1.08432  -1.03566
 Alpha  occ. eigenvalues --   -1.03519  -0.96028  -0.95958  -0.87058  -0.86962
 Alpha  occ. eigenvalues --   -0.79654  -0.79558  -0.78285  -0.78241  -0.65125
 Alpha  occ. eigenvalues --   -0.65038  -0.61062  -0.60838  -0.59378  -0.59338
 Alpha  occ. eigenvalues --   -0.57660  -0.57556  -0.55475  -0.55113  -0.52712
 Alpha  occ. eigenvalues --   -0.52656  -0.52514  -0.52323  -0.50136  -0.49737
 Alpha  occ. eigenvalues --   -0.48016  -0.47832  -0.46768  -0.46494  -0.45870
 Alpha  occ. eigenvalues --   -0.45783  -0.45756  -0.45609  -0.43816  -0.43780
 Alpha virt. eigenvalues --    0.21095   0.23143   0.23547   0.24799   0.25819
 Alpha virt. eigenvalues --    0.26831   0.27075   0.27276   0.28174   0.28856
 Alpha virt. eigenvalues --    0.30317   0.31676   0.31756   0.31924   0.31972

 Mulliken charges:
               1
     1  C   -0.298210
     2  C   -0.299388
     3  C   -0.482591
     4  H    0.149724
     5  H    0.148178
     6  H    0.151912
     7  H    0.152220
     8  H    0.162032
     9  H    0.154877
    10  H    0.160615
    11  C   -0.298332
    12  C   -0.299577
    13  C   -0.475723
    14  H    0.149682
    15  H    0.149888
    16  H    0.151917
    17  H    0.151596
    18  H    0.155286
    19  H    0.155239
    20  H    0.160231
    21  C   -0.298306
    22  C   -0.299400
    23  C   -0.481680
    24  H    0.149729
    25  H    0.148729
    26  H    0.152165
    27  H    0.152209
    28  H    0.160055
    29  H    0.155463
    30  H    0.161067
    31  C   -0.298341
    32  C   -0.299654
    33  C   -0.475735
    34  H    0.149715
    35  H    0.149841
    36  H    0.151944
    37  H    0.151754
    38  H    0.155281
    39  H    0.155258
    40  H    0.160331
 Sum of Mulliken charges =  -0.00000

 Dipole moment (field-independent basis, Debye):
    X=             -0.0166    Y=             -0.0121    Z=             -0.0057  Tot=              0.0213
 Quadrupole moment (field-independent basis, Debye-Ang):
   XX=            -84.3762   YY=            -86.1479   ZZ=            -84.1137
   XY=              0.2257   XZ=              1.2995   YZ=              0.2761

 Normal termination of Gaussian 16 at Thu May  6 05:25:43 2021.
