 Gaussian 16, Revision A.03,
 Gaussian 16:  EM64L-G16RevA.03 25-Dec-2016

 -------------
 #p 6-31g* mp2
 -------------

 ------------------------------------------------------
 Input file generated by CHIRIPA (05-May-2021 14:53:17)
 ------------------------------------------------------
 Symbolic Z-matrix:
 Charge =  0 Multiplicity = 1

                         Standard orientation:
 ---------------------------------------------------------------------
 Center     Atomic      Atomic             Coordinates (Angstroms)
 Number     Number       Type             X           Y           Z
 ---------------------------------------------------------------------
      1          6           0       -3.359090   -0.161763   -0.310352
      2          6           0       -4.269173   -1.209281    0.331863
      3          6           0       -4.267074   -2.537903   -0.424810
      4          1           0       -3.678284    0.005220   -1.348223
      5          1           0       -2.334550   -0.556023   -0.358017
      6          1           0       -5.291426   -0.812620    0.379562
      7          1           0       -3.947895   -1.373649    1.368386
      8          1           0       -3.257201   -2.959170   -0.460751
      9          1           0       -4.608366   -2.394953   -1.455192
     10          1           0       -4.924225   -3.272192    0.051458
     11          6           0       -3.350534    1.171869    0.434687
     12          6           0       -2.440451    2.219387   -0.207528
     13          6           0       -2.442550    3.548009    0.549145
     14          1           0       -4.375074    1.566129    0.482352
     15          1           0       -3.031340    1.004886    1.472558
     16          1           0       -2.761729    2.383755   -1.244050
     17          1           0       -1.418198    1.822725   -0.255227
     18          1           0       -2.101258    3.405059    1.579527
     19          1           0       -3.452423    3.969276    0.585086
     20          1           0       -1.785399    4.282298    0.072877
     21          6           0        4.276819    1.504298   -0.183836
     22          6           0        2.982326    1.667105   -0.688121
     23          6           0        2.056556    0.621801   -0.618540
     24          6           0        2.460863   -0.578148   -0.035491
     25          6           0        3.743286   -0.771118    0.475824
     26          6           0        4.652505    0.287852    0.395505
     27          1           0        4.989551    2.321623   -0.242060
     28          1           0        2.687788    2.610701   -1.138585
     29          1           0        1.047951    0.720697   -1.001101
     30          1           0        4.007658   -1.723463    0.919182
     31          1           0        5.657150    0.158569    0.787961
     32          7           0        1.489553   -1.691998    0.043855
     33          8           0        1.870432   -2.739261    0.562324
     34          8           0        0.365754   -1.496680   -0.413924
 ---------------------------------------------------------------------

 SCF Done:  E(RHF) =  -669.536328248     A.U. after   15 cycles
 E2 =    -0.2091718109D+01 EUMP2 =    -0.67162804635697D+03

 The electronic state is 1-A.
 Alpha  occ. eigenvalues --  -20.60986 -20.60973 -15.86021 -11.31309 -11.27868
 Alpha  occ. eigenvalues --  -11.27862 -11.27599 -11.26871 -11.26859 -11.21457
 Alpha  occ. eigenvalues --  -11.21042 -11.20852 -11.20686 -11.20350 -11.20019
 Alpha  occ. eigenvalues --   -1.60044  -1.39602  -1.19474  -1.08884  -1.07790
 Alpha  occ. eigenvalues --   -1.04866  -1.02947  -0.95732  -0.95374  -0.86400
 Alpha  occ. eigenvalues --   -0.86267  -0.82568  -0.79079  -0.77684  -0.77454
 Alpha  occ. eigenvalues --   -0.72248  -0.71357  -0.70584  -0.65134  -0.64873
 Alpha  occ. eigenvalues --   -0.64403  -0.62216  -0.60334  -0.58819  -0.56978
 Alpha  occ. eigenvalues --   -0.55372  -0.54640  -0.53199  -0.52960  -0.52140
 Alpha  occ. eigenvalues --   -0.51790  -0.49317  -0.49005  -0.48983  -0.47374
 Alpha  occ. eigenvalues --   -0.46120  -0.45182  -0.45073  -0.44719  -0.43162
 Alpha  occ. eigenvalues --   -0.37451  -0.36464
 Alpha virt. eigenvalues --    0.04876   0.11161   0.16381   0.20420   0.23238
 Alpha virt. eigenvalues --    0.24688   0.25469   0.27477   0.27648   0.28579
 Alpha virt. eigenvalues --    0.29456   0.31121   0.31530   0.32090   0.32228

 Mulliken charges:
               1
     1  C   -0.312430
     2  C   -0.297693
     3  C   -0.478564
     4  H    0.144354
     5  H    0.178314
     6  H    0.146314
     7  H    0.151919
     8  H    0.168877
     9  H    0.151159
    10  H    0.156142
    11  C   -0.296704
    12  C   -0.301195
    13  C   -0.474879
    14  H    0.147081
    15  H    0.149640
    16  H    0.151024
    17  H    0.147281
    18  H    0.155469
    19  H    0.156563
    20  H    0.154239
    21  C   -0.170449
    22  C   -0.219452
    23  C   -0.174992
    24  C    0.157241
    25  C   -0.170444
    26  C   -0.218617
    27  H    0.226133
    28  H    0.224379
    29  H    0.281562
    30  H    0.275799
    31  H    0.223883
    32  N    0.494518
    33  O   -0.458708
    34  O   -0.467765
 Sum of Mulliken charges =  -0.00000

 Dipole moment (field-independent basis, Debye):
    X=              3.6413    Y=              3.7557    Z=             -0.2663  Tot=              5.2379
 Quadrupole moment (field-independent basis, Debye-Ang):
   XX=            -75.9434   YY=            -99.3162   ZZ=            -94.4043
   XY=              5.4186   XZ=              1.3587   YZ=             -2.1240

 Normal termination of Gaussian 16 at Wed May  5 15:43:27 2021.
