 Gaussian 16, Revision A.03,
 Gaussian 16:  EM64L-G16RevA.03 25-Dec-2016

 -------------
 #p 6-31g* mp2
 -------------

 ------------------------------------------------------
 Input file generated by CHIRIPA (05-May-2021 14:57:27)
 ------------------------------------------------------
 Symbolic Z-matrix:
 Charge =  0 Multiplicity = 1

                         Standard orientation:
 ---------------------------------------------------------------------
 Center     Atomic      Atomic             Coordinates (Angstroms)
 Number     Number       Type             X           Y           Z
 ---------------------------------------------------------------------
      1          6           0        2.235145   -2.387717    0.784826
      2          6           0        1.464812   -1.549810   -0.028205
      3          6           0        1.955506   -0.304175   -0.430900
      4          6           0        3.226381    0.073489   -0.000159
      5          6           0        4.017937   -0.738978    0.810166
      6          6           0        3.507006   -1.980346    1.200683
      7          1           0        1.846101   -3.353699    1.092919
      8          1           0        0.476727   -1.863571   -0.352683
      9          1           0        1.380366    0.364236   -1.060072
     10          1           0        4.999316   -0.398712    1.117627
     11          1           0        4.107481   -2.629008    1.832119
     12          7           0        3.756568    1.389928   -0.420028
     13          8           0        4.879244    1.699440   -0.027042
     14          8           0        3.039414    2.087314   -1.134157
     15          6           0       -3.339248    2.415215    1.010322
     16          6           0       -4.002263    1.315670    1.565239
     17          6           0       -3.898429    0.052283    0.975647
     18          6           0       -3.119640   -0.076148   -0.173389
     19          6           0       -2.447044    1.000136   -0.750035
     20          6           0       -2.565119    2.254223   -0.143509
     21          1           0       -3.425440    3.393032    1.474909
     22          1           0       -4.604156    1.437742    2.461269
     23          1           0       -4.401109   -0.815908    1.384273
     24          1           0       -1.854362    0.847290   -1.643781
     25          1           0       -2.049101    3.106365   -0.576663
     26          7           0       -3.002178   -1.408716   -0.806527
     27          8           0       -2.309889   -1.495558   -1.818373
     28          8           0       -3.604622   -2.341108   -0.278947
 ---------------------------------------------------------------------

 SCF Done:  E(RHF) =  -868.340020467     A.U. after   16 cycles
 E2 =    -0.2599056271D+01 EUMP2 =    -0.87093907673762D+03

 The electronic state is 1-A.
 Alpha  occ. eigenvalues --  -20.61648 -20.61623 -20.60740 -20.60722 -15.86647
 Alpha  occ. eigenvalues --  -15.85779 -11.31740 -11.30977 -11.28263 -11.28251
 Alpha  occ. eigenvalues --  -11.27897 -11.27519 -11.27499 -11.27202 -11.27155
 Alpha  occ. eigenvalues --  -11.27154 -11.26505 -11.26344  -1.60705  -1.59810
 Alpha  occ. eigenvalues --   -1.40263  -1.39370  -1.19869  -1.19110  -1.09309
 Alpha  occ. eigenvalues --   -1.08527  -1.05220  -1.04475  -0.96191  -0.95400
 Alpha  occ. eigenvalues --   -0.86629  -0.85877  -0.83025  -0.82231  -0.78121
 Alpha  occ. eigenvalues --   -0.77311  -0.72859  -0.72026  -0.72001  -0.71129
 Alpha  occ. eigenvalues --   -0.70958  -0.70209  -0.65513  -0.65198  -0.64752
 Alpha  occ. eigenvalues --   -0.64441  -0.62573  -0.61817  -0.55706  -0.54960
 Alpha  occ. eigenvalues --   -0.53571  -0.53293  -0.52826  -0.52542  -0.49647
 Alpha  occ. eigenvalues --   -0.49596  -0.48770  -0.48738  -0.45705  -0.44813
 Alpha  occ. eigenvalues --   -0.37821  -0.37072  -0.36816  -0.36072
 Alpha virt. eigenvalues --    0.04349   0.05198   0.10806   0.11576   0.15912
 Alpha virt. eigenvalues --    0.16751   0.20504   0.21910   0.25725   0.27380
 Alpha virt. eigenvalues --    0.28182   0.29058   0.30848   0.31280   0.31848

 Mulliken charges:
               1
     1  C   -0.171474
     2  C   -0.223808
     3  C   -0.171861
     4  C    0.158467
     5  C   -0.172239
     6  C   -0.218487
     7  H    0.228427
     8  H    0.237042
     9  H    0.269837
    10  H    0.274089
    11  H    0.222615
    12  N    0.488368
    13  O   -0.460631
    14  O   -0.464721
    15  C   -0.169832
    16  C   -0.218048
    17  C   -0.171252
    18  C    0.157150
    19  C   -0.175957
    20  C   -0.217309
    21  H    0.229259
    22  H    0.225316
    23  H    0.275540
    24  H    0.274523
    25  H    0.230782
    26  N    0.486105
    27  O   -0.464776
    28  O   -0.457124
 Sum of Mulliken charges =  -0.00000

 Dipole moment (field-independent basis, Debye):
    X=             -2.5496    Y=              0.0990    Z=              3.8109  Tot=              4.5862
 Quadrupole moment (field-independent basis, Debye-Ang):
   XX=           -109.5918   YY=           -105.8400   ZZ=           -102.8422
   XY=            -30.0929   XZ=             -2.3480   YZ=             -2.8949

 Normal termination of Gaussian 16 at Fri May  7 06:39:53 2021.
