 Gaussian 16, Revision A.03,
 Gaussian 16:  EM64L-G16RevA.03 25-Dec-2016

 -------------
 #p 6-31g* mp2
 -------------

 ------------------------------------------------------
 Input file generated by CHIRIPA (05-May-2021 14:55:22)
 ------------------------------------------------------
 Symbolic Z-matrix:
 Charge =  0 Multiplicity = 1

                         Standard orientation:
 ---------------------------------------------------------------------
 Center     Atomic      Atomic             Coordinates (Angstroms)
 Number     Number       Type             X           Y           Z
 ---------------------------------------------------------------------
      1          6           0        3.348611    2.681180    0.084911
      2          6           0        2.570707    2.023476    1.043458
      3          6           0        2.474049    0.628770    1.044123
      4          6           0        3.171680   -0.080101    0.067341
      5          6           0        3.954866    0.546262   -0.900945
      6          6           0        4.036994    1.941778   -0.882525
      7          1           0        3.418053    3.764936    0.091807
      8          1           0        2.035010    2.595133    1.795975
      9          1           0        1.879006    0.094076    1.774496
     10          1           0        4.477398   -0.050701   -1.638518
     11          1           0        4.641878    2.449884   -1.628171
     12          7           0        3.077044   -1.557043    0.057943
     13          8           0        3.701347   -2.158674   -0.813218
     14          8           0        2.380356   -2.085072    0.921916
     15          6           0       -4.554570    0.370773   -0.235676
     16          6           0       -6.016984    0.051204    0.076101
     17          6           0       -6.954703    1.220953   -0.224173
     18          1           0       -4.245533    1.249258    0.347168
     19          1           0       -4.465400    0.650955   -1.294421
     20          1           0       -6.103148   -0.229631    1.133609
     21          1           0       -6.322520   -0.826738   -0.507408
     22          1           0       -6.898280    1.498241   -1.281778
     23          1           0       -6.677661    2.098742    0.368563
     24          1           0       -7.995054    0.970789    0.005928
     25          6           0       -3.604859   -0.788864    0.059317
     26          6           0       -2.142444   -0.469294   -0.252459
     27          6           0       -1.204725   -1.639043    0.047815
     28          1           0       -3.694029   -1.069045    1.118062
     29          1           0       -3.913896   -1.667347   -0.523527
     30          1           0       -1.836909    0.408647    0.331050
     31          1           0       -2.056282   -0.188460   -1.309968
     32          1           0       -1.481769   -2.516831   -0.544922
     33          1           0       -1.261150   -1.916332    1.105419
     34          1           0       -0.164374   -1.388879   -0.182286
 ---------------------------------------------------------------------

 SCF Done:  E(RHF) =  -669.535776467     A.U. after   15 cycles
 E2 =    -0.2091465251D+01 EUMP2 =    -0.67162724171807D+03

 The electronic state is 1-A.
 Alpha  occ. eigenvalues --  -20.60878 -20.60859 -15.85891 -11.31245 -11.27809
 Alpha  occ. eigenvalues --  -11.27804 -11.27550 -11.26823 -11.26813 -11.21515
 Alpha  occ. eigenvalues --  -11.21307 -11.21274 -11.21143 -11.21035 -11.20393
 Alpha  occ. eigenvalues --   -1.59931  -1.39486  -1.19415  -1.08815  -1.08244
 Alpha  occ. eigenvalues --   -1.04813  -1.03290  -0.95720  -0.95640  -0.86713
 Alpha  occ. eigenvalues --   -0.86212  -0.82483  -0.79354  -0.78060  -0.77532
 Alpha  occ. eigenvalues --   -0.72117  -0.71258  -0.70520  -0.65069  -0.64884
 Alpha  occ. eigenvalues --   -0.64814  -0.62161  -0.60693  -0.59094  -0.57333
 Alpha  occ. eigenvalues --   -0.55317  -0.54998  -0.53143  -0.52906  -0.52378
 Alpha  occ. eigenvalues --   -0.52131  -0.49652  -0.48881  -0.48873  -0.47671
 Alpha  occ. eigenvalues --   -0.46413  -0.45594  -0.45533  -0.44910  -0.43451
 Alpha  occ. eigenvalues --   -0.37394  -0.36411
 Alpha virt. eigenvalues --    0.04987   0.11186   0.16459   0.21279   0.22995
 Alpha virt. eigenvalues --    0.24361   0.26748   0.27255   0.27660   0.27809
 Alpha virt. eigenvalues --    0.28657   0.30895   0.31642   0.32003   0.32021

 Mulliken charges:
               1
     1  C   -0.170564
     2  C   -0.218480
     3  C   -0.171451
     4  C    0.157540
     5  C   -0.170887
     6  C   -0.218506
     7  H    0.225858
     8  H    0.223684
     9  H    0.276744
    10  H    0.275754
    11  H    0.223676
    12  N    0.487322
    13  O   -0.459073
    14  O   -0.456880
    15  C   -0.297504
    16  C   -0.299482
    17  C   -0.475473
    18  H    0.146891
    19  H    0.148940
    20  H    0.151802
    21  H    0.152677
    22  H    0.154881
    23  H    0.153914
    24  H    0.160182
    25  C   -0.297879
    26  C   -0.300209
    27  C   -0.473938
    28  H    0.149129
    29  H    0.150921
    30  H    0.144284
    31  H    0.150228
    32  H    0.156748
    33  H    0.156172
    34  H    0.162978
 Sum of Mulliken charges =  -0.00000

 Dipole moment (field-independent basis, Debye):
    X=              0.4772    Y=              5.1213    Z=              0.0397  Tot=              5.1436
 Quadrupole moment (field-independent basis, Debye-Ang):
   XX=            -92.2290   YY=            -96.4353   ZZ=            -91.0119
   XY=             17.3831   XZ=             -2.7091   YZ=              0.9623

 Normal termination of Gaussian 16 at Wed May  5 22:17:37 2021.
