 Gaussian 16, Revision A.03,
 Gaussian 16:  EM64L-G16RevA.03 25-Dec-2016

 -------------
 #p 6-31g* mp2
 -------------

 ------------------------------------------------------
 Input file generated by CHIRIPA (05-May-2021 14:57:26)
 ------------------------------------------------------
 Symbolic Z-matrix:
 Charge =  0 Multiplicity = 1

                         Standard orientation:
 ---------------------------------------------------------------------
 Center     Atomic      Atomic             Coordinates (Angstroms)
 Number     Number       Type             X           Y           Z
 ---------------------------------------------------------------------
      1          6           0       -2.820414    2.211507    1.039941
      2          6           0       -3.321849    1.166009    1.822256
      3          6           0       -3.505166   -0.106669    1.273407
      4          6           0       -3.175171   -0.299401   -0.067207
      5          6           0       -2.673631    0.722032   -0.872453
      6          6           0       -2.498472    1.986579   -0.302550
      7          1           0       -2.681177    3.196995    1.474478
      8          1           0       -3.572727    1.337790    2.865135
      9          1           0       -3.891642   -0.933903    1.856278
     10          1           0       -2.432545    0.520221   -1.909067
     11          1           0       -2.108871    2.796656   -0.912493
     12          7           0       -3.364922   -1.642423   -0.659394
     13          8           0       -3.066596   -1.786410   -1.842992
     14          8           0       -3.808383   -2.525668    0.071263
     15          6           0        1.224569    1.560824   -0.725730
     16          6           0        2.536277    1.908575   -1.064862
     17          6           0        3.607470    1.094517   -0.684858
     18          6           0        3.329451   -0.065295    0.036831
     19          6           0        2.033604   -0.438786    0.389778
     20          6           0        0.977853    0.390317   -0.000769
     21          1           0        0.398438    2.199047   -1.025020
     22          1           0        2.730859    2.817015   -1.627819
     23          1           0        4.632692    1.339894   -0.934113
     24          1           0        1.871025   -1.350595    0.951553
     25          1           0       -0.039816    0.117750    0.263998
     26          7           0        4.455302   -0.935065    0.444704
     27          8           0        4.183864   -1.951599    1.080013
     28          8           0        5.587862   -0.583787    0.121364
 ---------------------------------------------------------------------

 SCF Done:  E(RHF) =  -868.336226250     A.U. after   16 cycles
 E2 =    -0.2602817960D+01 EUMP2 =    -0.87093904421036D+03

 The electronic state is 1-A.
 Alpha  occ. eigenvalues --  -20.61678 -20.61672 -20.60773 -20.60764 -15.86746
 Alpha  occ. eigenvalues --  -15.85823 -11.32381 -11.31241 -11.29011 -11.28939
 Alpha  occ. eigenvalues --  -11.28724 -11.28085 -11.27928 -11.27818 -11.27754
 Alpha  occ. eigenvalues --  -11.27607 -11.26899 -11.26731  -1.60755  -1.59844
 Alpha  occ. eigenvalues --   -1.40297  -1.39396  -1.20610  -1.19412  -1.09915
 Alpha  occ. eigenvalues --   -1.08821  -1.06032  -1.04809  -0.96697  -0.95649
 Alpha  occ. eigenvalues --   -0.87386  -0.86220  -0.83526  -0.82467  -0.78539
 Alpha  occ. eigenvalues --   -0.77494  -0.72943  -0.72108  -0.72039  -0.71611
 Alpha  occ. eigenvalues --   -0.71167  -0.70615  -0.66209  -0.65986  -0.65070
 Alpha  occ. eigenvalues --   -0.64859  -0.63331  -0.62182  -0.56447  -0.55423
 Alpha  occ. eigenvalues --   -0.54426  -0.54034  -0.53155  -0.52765  -0.49729
 Alpha  occ. eigenvalues --   -0.49688  -0.48803  -0.48793  -0.45639  -0.44789
 Alpha  occ. eigenvalues --   -0.38598  -0.37651  -0.37403  -0.36394
 Alpha virt. eigenvalues --    0.03980   0.05023   0.09839   0.11320   0.15317
 Alpha virt. eigenvalues --    0.16492   0.19296   0.21856   0.25014   0.27144
 Alpha virt. eigenvalues --    0.27301   0.28757   0.29730   0.31323   0.32349

 Mulliken charges:
               1
     1  C   -0.170148
     2  C   -0.218176
     3  C   -0.171555
     4  C    0.156850
     5  C   -0.180847
     6  C   -0.224624
     7  H    0.230438
     8  H    0.229317
     9  H    0.280778
    10  H    0.279679
    11  H    0.221779
    12  N    0.487754
    13  O   -0.456951
    14  O   -0.456237
    15  C   -0.173260
    16  C   -0.218397
    17  C   -0.171287
    18  C    0.159309
    19  C   -0.171520
    20  C   -0.222075
    21  H    0.214278
    22  H    0.221531
    23  H    0.275556
    24  H    0.277587
    25  H    0.231907
    26  N    0.487925
    27  O   -0.458960
    28  O   -0.460654
 Sum of Mulliken charges =  -0.00000

 Dipole moment (field-independent basis, Debye):
    X=             -3.6148    Y=              7.6319    Z=              0.8135  Tot=              8.4837
 Quadrupole moment (field-independent basis, Debye-Ang):
   XX=           -132.8761   YY=           -106.4893   ZZ=           -100.9091
   XY=             -1.9210   XZ=            -15.3707   YZ=             -3.7467

 Normal termination of Gaussian 16 at Thu May  6 03:36:28 2021.
