 Gaussian 16, Revision A.03,
 Gaussian 16:  EM64L-G16RevA.03 25-Dec-2016

 -------------
 #p 6-31g* mp2
 -------------

 ------------------------------------------------------
 Input file generated by CHIRIPA (05-May-2021 14:53:17)
 ------------------------------------------------------
 Symbolic Z-matrix:
 Charge =  0 Multiplicity = 1

                         Standard orientation:
 ---------------------------------------------------------------------
 Center     Atomic      Atomic             Coordinates (Angstroms)
 Number     Number       Type             X           Y           Z
 ---------------------------------------------------------------------
      1          6           0       -2.445854   -1.049318   -0.363490
      2          6           0       -1.732043   -2.013556    0.584510
      3          6           0       -0.496933   -2.657055   -0.046526
      4          1           0       -2.737158   -1.589456   -1.274719
      5          1           0       -1.742191   -0.265454   -0.676237
      6          1           0       -2.437235   -2.794585    0.896465
      7          1           0       -1.442574   -1.471106    1.493669
      8          1           0        0.227847   -1.891547   -0.341977
      9          1           0       -0.772464   -3.222546   -0.942575
     10          1           0       -0.002042   -3.342589    0.648446
     11          6           0       -3.682581   -0.398049    0.253019
     12          6           0       -4.396391    0.566189   -0.694981
     13          6           0       -5.631501    1.209688   -0.063946
     14          1           0       -4.386244   -1.181913    0.565765
     15          1           0       -3.391277    0.142088    1.164248
     16          1           0       -4.685860    0.023738   -1.604141
     17          1           0       -3.691200    1.347218   -1.006936
     18          1           0       -5.355970    1.775179    0.832103
     19          1           0       -6.356282    0.444179    0.231505
     20          1           0       -6.126393    1.895221   -0.758918
     21          6           0        1.339341    2.833315    0.375192
     22          6           0        1.390156    1.922901    1.435893
     23          6           0        1.972086    0.663484    1.263338
     24          6           0        2.495872    0.346122    0.011052
     25          6           0        2.460411    1.231457   -1.065151
     26          6           0        1.873689    2.485301   -0.869749
     27          1           0        0.885423    3.809495    0.518112
     28          1           0        0.975970    2.190456    2.403834
     29          1           0        2.024807   -0.060504    2.067378
     30          1           0        2.881671    0.936119   -2.018426
     31          1           0        1.835629    3.190330   -1.695298
     32          7           0        3.114472   -0.984216   -0.183717
     33          8           0        3.568855   -1.239645   -1.296789
     34          8           0        3.133236   -1.746315    0.780383
 ---------------------------------------------------------------------

 SCF Done:  E(RHF) =  -669.535539415     A.U. after   15 cycles
 E2 =    -0.2092362713D+01 EUMP2 =    -0.67162790212814D+03

 The electronic state is 1-A.
 Alpha  occ. eigenvalues --  -20.60809 -20.60802 -15.85851 -11.31259 -11.27832
 Alpha  occ. eigenvalues --  -11.27826 -11.27577 -11.26851 -11.26840 -11.21770
 Alpha  occ. eigenvalues --  -11.21479 -11.21442 -11.21322 -11.21276 -11.20618
 Alpha  occ. eigenvalues --   -1.59879  -1.39430  -1.19437  -1.08825  -1.08441
 Alpha  occ. eigenvalues --   -1.04838  -1.03491  -0.95918  -0.95651  -0.86929
 Alpha  occ. eigenvalues --   -0.86234  -0.82479  -0.79567  -0.78249  -0.77521
 Alpha  occ. eigenvalues --   -0.72075  -0.71224  -0.70534  -0.65092  -0.65073
 Alpha  occ. eigenvalues --   -0.64836  -0.62182  -0.60899  -0.59297  -0.57525
 Alpha  occ. eigenvalues --   -0.55342  -0.55217  -0.53170  -0.52927  -0.52572
 Alpha  occ. eigenvalues --   -0.52339  -0.49882  -0.48837  -0.48826  -0.47873
 Alpha  occ. eigenvalues --   -0.46634  -0.45785  -0.45723  -0.44799  -0.43722
 Alpha  occ. eigenvalues --   -0.37407  -0.36439
 Alpha virt. eigenvalues --    0.04995   0.11188   0.16472   0.21299   0.22751
 Alpha virt. eigenvalues --    0.24183   0.26490   0.27100   0.27545   0.27814
 Alpha virt. eigenvalues --    0.28366   0.30784   0.31338   0.31700   0.32185

 Mulliken charges:
               1
     1  C   -0.298499
     2  C   -0.299581
     3  C   -0.473091
     4  H    0.150588
     5  H    0.148738
     6  H    0.151798
     7  H    0.146442
     8  H    0.149440
     9  H    0.155487
    10  H    0.169691
    11  C   -0.297374
    12  C   -0.299146
    13  C   -0.475406
    14  H    0.150403
    15  H    0.146201
    16  H    0.153168
    17  H    0.149115
    18  H    0.153127
    19  H    0.156383
    20  H    0.159796
    21  C   -0.170971
    22  C   -0.218639
    23  C   -0.171167
    24  C    0.155066
    25  C   -0.171607
    26  C   -0.218620
    27  H    0.225935
    28  H    0.223734
    29  H    0.276209
    30  H    0.276244
    31  H    0.223881
    32  N    0.491010
    33  O   -0.459642
    34  O   -0.458714
 Sum of Mulliken charges =  -0.00000

 Dipole moment (field-independent basis, Debye):
    X=             -2.0879    Y=              4.6070    Z=              0.6729  Tot=              5.1026
 Quadrupole moment (field-independent basis, Debye-Ang):
   XX=           -106.9438   YY=            -91.1721   ZZ=            -90.2724
   XY=             12.2691   XZ=              1.1513   YZ=             -0.9038

 Normal termination of Gaussian 16 at Thu May  6 12:18:53 2021.
