 Gaussian 16, Revision A.03,
 Gaussian 16:  EM64L-G16RevA.03 25-Dec-2016

 -------------
 #p 6-31g* mp2
 -------------

 ------------------------------------------------------
 Input file generated by CHIRIPA (05-May-2021 14:51:13)
 ------------------------------------------------------
 Symbolic Z-matrix:
 Charge =  0 Multiplicity = 1

                         Standard orientation:
 ---------------------------------------------------------------------
 Center     Atomic      Atomic             Coordinates (Angstroms)
 Number     Number       Type             X           Y           Z
 ---------------------------------------------------------------------
      1          6           0        2.599116    1.170188   -0.357612
      2          6           0        2.759260    2.326704    0.629712
      3          6           0        1.892780    3.534363    0.271151
      4          1           0        2.855041    1.520127   -1.367062
      5          1           0        1.543070    0.868321   -0.389820
      6          1           0        3.814922    2.625385    0.661080
      7          1           0        2.503109    1.973920    1.636959
      8          1           0        0.833398    3.258386    0.258958
      9          1           0        2.152665    3.913553   -0.722466
     10          1           0        2.022798    4.349361    0.989992
     11          6           0        3.459001   -0.044415   -0.012552
     12          6           0        3.298857   -1.200931   -0.999876
     13          6           0        4.165337   -2.408590   -0.641315
     14          1           0        4.515047    0.257452    0.019656
     15          1           0        3.203076   -0.394354    0.996899
     16          1           0        3.555008   -0.848148   -2.007123
     17          1           0        2.243195   -1.499613   -1.031244
     18          1           0        3.905452   -2.787780    0.352303
     19          1           0        5.224719   -2.132614   -0.629121
     20          1           0        4.035319   -3.223589   -1.360156
     21          6           0       -3.664023   -0.158911    0.315680
     22          6           0       -4.457680    0.150619   -0.954077
     23          6           0       -5.725235    0.959357   -0.676519
     24          1           0       -4.306040   -0.709809    1.016586
     25          1           0       -3.396911    0.784411    0.811857
     26          1           0       -4.722025   -0.792959   -1.448443
     27          1           0       -3.813639    0.700677   -1.652121
     28          1           0       -5.476601    1.915345   -0.204427
     29          1           0       -6.390148    0.413221    0.000407
     30          1           0       -6.277240    1.169421   -1.597943
     31          6           0       -2.394094   -0.966862    0.054484
     32          6           0       -1.600437   -1.276392    1.324242
     33          6           0       -0.332881   -2.085130    1.046681
     34          1           0       -2.661205   -1.910183   -0.441693
     35          1           0       -1.752077   -0.415963   -0.646423
     36          1           0       -2.244477   -1.826450    2.022284
     37          1           0       -1.336092   -0.332813    1.818607
     38          1           0        0.332031   -1.538994    0.369756
     39          1           0       -0.581515   -3.041118    0.574591
     40          1           0        0.219124   -2.295194    1.968107
 ---------------------------------------------------------------------

 SCF Done:  E(RHF) =  -470.733203430     A.U. after   11 cycles
 E2 =    -0.1583289952D+01 EUMP2 =    -0.47231649338172D+03

 The electronic state is 1-A.
 Alpha  occ. eigenvalues --  -11.21667 -11.21628 -11.21625 -11.21557 -11.21454
 Alpha  occ. eigenvalues --  -11.21425 -11.21391 -11.21348 -11.21134 -11.21107
 Alpha  occ. eigenvalues --  -11.21087 -11.21027  -1.08484  -1.08432  -1.03584
 Alpha  occ. eigenvalues --   -1.03521  -0.96029  -0.95978  -0.87058  -0.86984
 Alpha  occ. eigenvalues --   -0.79665  -0.79572  -0.78310  -0.78232  -0.65243
 Alpha  occ. eigenvalues --   -0.64969  -0.61057  -0.60852  -0.59400  -0.59343
 Alpha  occ. eigenvalues --   -0.57636  -0.57588  -0.55354  -0.55227  -0.52719
 Alpha  occ. eigenvalues --   -0.52678  -0.52470  -0.52390  -0.50065  -0.49842
 Alpha  occ. eigenvalues --   -0.48038  -0.47861  -0.46771  -0.46559  -0.45957
 Alpha  occ. eigenvalues --   -0.45777  -0.45759  -0.45469  -0.43831  -0.43785
 Alpha virt. eigenvalues --    0.19920   0.23011   0.24061   0.24523   0.25700
 Alpha virt. eigenvalues --    0.26830   0.27086   0.27797   0.27967   0.29365
 Alpha virt. eigenvalues --    0.30815   0.31582   0.31797   0.31964   0.32120

 Mulliken charges:
               1
     1  C   -0.300490
     2  C   -0.299582
     3  C   -0.475621
     4  H    0.149902
     5  H    0.149692
     6  H    0.152223
     7  H    0.152144
     8  H    0.154513
     9  H    0.155306
    10  H    0.160427
    11  C   -0.298793
    12  C   -0.304497
    13  C   -0.475484
    14  H    0.149756
    15  H    0.150826
    16  H    0.151716
    17  H    0.156554
    18  H    0.155838
    19  H    0.154838
    20  H    0.160181
    21  C   -0.298304
    22  C   -0.299752
    23  C   -0.475750
    24  H    0.149845
    25  H    0.149498
    26  H    0.152006
    27  H    0.152159
    28  H    0.155282
    29  H    0.155192
    30  H    0.160399
    31  C   -0.298858
    32  C   -0.299247
    33  C   -0.484371
    34  H    0.149885
    35  H    0.149404
    36  H    0.152363
    37  H    0.151570
    38  H    0.163306
    39  H    0.155749
    40  H    0.160173
 Sum of Mulliken charges =  -0.00000

 Dipole moment (field-independent basis, Debye):
    X=             -0.0077    Y=             -0.0126    Z=              0.0027  Tot=              0.0150
 Quadrupole moment (field-independent basis, Debye-Ang):
   XX=            -85.0890   YY=            -85.0897   ZZ=            -84.4853
   XY=              1.8683   XZ=             -0.5007   YZ=             -0.2269

 Normal termination of Gaussian 16 at Thu May  6 00:47:49 2021.
