 Gaussian 16, Revision A.03,
 Gaussian 16:  EM64L-G16RevA.03 25-Dec-2016

 -------------
 #p 6-31g* mp2
 -------------

 ------------------------------------------------------
 Input file generated by CHIRIPA (05-May-2021 14:53:13)
 ------------------------------------------------------
 Symbolic Z-matrix:
 Charge =  0 Multiplicity = 1

                         Standard orientation:
 ---------------------------------------------------------------------
 Center     Atomic      Atomic             Coordinates (Angstroms)
 Number     Number       Type             X           Y           Z
 ---------------------------------------------------------------------
      1          6           0        4.026583    0.363356   -0.015916
      2          6           0        4.216087   -1.034507   -0.605875
      3          6           0        5.612584   -1.600895   -0.347425
      4          1           0        4.782062    1.038897   -0.439992
      5          1           0        4.213398    0.325446    1.066239
      6          1           0        4.027619   -0.994249   -1.686373
      7          1           0        3.459948   -1.706755   -0.180489
      8          1           0        5.807398   -1.669925    0.727695
      9          1           0        6.378294   -0.953371   -0.786744
     10          1           0        5.726226   -2.600803   -0.777691
     11          6           0        2.635481    0.943005   -0.266058
     12          6           0        2.445977    2.340868    0.323902
     13          6           0        1.049480    2.907255    0.065452
     14          1           0        2.448667    0.980914   -1.348212
     15          1           0        1.880003    0.267463    0.158019
     16          1           0        3.202116    3.013115   -0.101484
     17          1           0        2.634445    2.300609    1.404399
     18          1           0        0.283770    2.259731    0.504771
     19          1           0        0.854667    2.976285   -1.009669
     20          1           0        0.935838    3.907163    0.495717
     21          6           0       -1.022735   -2.370137    0.751766
     22          6           0       -0.831241   -1.081876    1.261901
     23          6           0       -1.700253   -0.043715    0.913208
     24          6           0       -2.755082   -0.330494    0.048116
     25          6           0       -2.972225   -1.603557   -0.476720
     26          6           0       -2.090733   -2.626413   -0.114390
     27          1           0       -0.342819   -3.170661    1.027936
     28          1           0       -0.002675   -0.879941    1.934764
     29          1           0       -1.575257    0.962846    1.293509
     30          1           0       -3.807189   -1.774210   -1.145399
     31          1           0       -2.241886   -3.625925   -0.512099
     32          7           0       -3.681672    0.760460   -0.328248
     33          8           0       -4.603373    0.481933   -1.092138
     34          8           0       -3.468686    1.873419    0.147773
 ---------------------------------------------------------------------

 SCF Done:  E(RHF) =  -669.535059024     A.U. after   15 cycles
 E2 =    -0.2092580463D+01 EUMP2 =    -0.67162763948768D+03

 The electronic state is 1-A.
 Alpha  occ. eigenvalues --  -20.60774 -20.60767 -15.85828 -11.31226 -11.27808
 Alpha  occ. eigenvalues --  -11.27804 -11.27560 -11.26841 -11.26817 -11.22106
 Alpha  occ. eigenvalues --  -11.21925 -11.21835 -11.21754 -11.21521 -11.21267
 Alpha  occ. eigenvalues --   -1.59847  -1.39400  -1.19412  -1.08853  -1.08794
 Alpha  occ. eigenvalues --   -1.04828  -1.03916  -0.96351  -0.95625  -0.87364
 Alpha  occ. eigenvalues --   -0.86215  -0.82461  -0.79979  -0.78664  -0.77496
 Alpha  occ. eigenvalues --   -0.72047  -0.71170  -0.70527  -0.65514  -0.65064
 Alpha  occ. eigenvalues --   -0.64835  -0.62231  -0.61286  -0.59713  -0.57957
 Alpha  occ. eigenvalues --   -0.55678  -0.55308  -0.53153  -0.53041  -0.53005
 Alpha  occ. eigenvalues --   -0.52647  -0.50283  -0.48810  -0.48798  -0.48282
 Alpha  occ. eigenvalues --   -0.47031  -0.46199  -0.46133  -0.44794  -0.44165
 Alpha  occ. eigenvalues --   -0.37381  -0.36380
 Alpha virt. eigenvalues --    0.04999   0.11105   0.16389   0.20018   0.22814
 Alpha virt. eigenvalues --    0.23803   0.25677   0.26286   0.26847   0.28507
 Alpha virt. eigenvalues --    0.28935   0.30504   0.31314   0.31514   0.31669

 Mulliken charges:
               1
     1  C   -0.298456
     2  C   -0.298170
     3  C   -0.475831
     4  H    0.152180
     5  H    0.147331
     6  H    0.154147
     7  H    0.145529
     8  H    0.154515
     9  H    0.157340
    10  H    0.160258
    11  C   -0.301091
    12  C   -0.301162
    13  C   -0.475283
    14  H    0.152778
    15  H    0.145503
    16  H    0.154427
    17  H    0.148588
    18  H    0.148278
    19  H    0.160524
    20  H    0.164431
    21  C   -0.171385
    22  C   -0.217870
    23  C   -0.171910
    24  C    0.158406
    25  C   -0.170502
    26  C   -0.218287
    27  H    0.225925
    28  H    0.223635
    29  H    0.278806
    30  H    0.275912
    31  H    0.223774
    32  N    0.487931
    33  O   -0.460474
    34  O   -0.459796
 Sum of Mulliken charges =  -0.00000

 Dipole moment (field-independent basis, Debye):
    X=              3.2516    Y=             -3.7875    Z=              1.2309  Tot=              5.1413
 Quadrupole moment (field-independent basis, Debye-Ang):
   XX=           -112.6348   YY=            -90.3180   ZZ=            -92.8210
   XY=             12.3108   XZ=             -2.4067   YZ=              1.0204

 Normal termination of Gaussian 16 at Thu May  6 18:43:39 2021.
