 Gaussian 16, Revision A.03,
 Gaussian 16:  EM64L-G16RevA.03 25-Dec-2016

 -------------
 #p 6-31g* mp2
 -------------

 ------------------------------------------------------
 Input file generated by CHIRIPA (05-May-2021 14:57:23)
 ------------------------------------------------------
 Symbolic Z-matrix:
 Charge =  0 Multiplicity = 1

                         Standard orientation:
 ---------------------------------------------------------------------
 Center     Atomic      Atomic             Coordinates (Angstroms)
 Number     Number       Type             X           Y           Z
 ---------------------------------------------------------------------
      1          6           0        2.155701    1.243515   -1.056251
      2          6           0        2.076517   -0.122617   -0.766534
      3          6           0        3.183682   -0.804974   -0.253579
      4          6           0        4.359551   -0.086852   -0.041628
      5          6           0        4.469735    1.274577   -0.320305
      6          6           0        3.349952    1.936530   -0.832606
      7          1           0        1.290728    1.765661   -1.454473
      8          1           0        1.150341   -0.663379   -0.939214
      9          1           0        3.149991   -1.862306   -0.020488
     10          1           0        5.406630    1.786685   -0.137573
     11          1           0        3.414341    2.997515   -1.056681
     12          7           0        5.538336   -0.798433    0.501068
     13          8           0        6.562765   -0.143013    0.678851
     14          8           0        5.415518   -1.998115    0.738375
     15          6           0       -1.709395    0.486228    0.391176
     16          6           0       -2.130075   -0.458279   -0.550872
     17          6           0       -3.488258   -0.752488   -0.703612
     18          6           0       -4.402698   -0.080372    0.105925
     19          6           0       -4.014775    0.865725    1.053397
     20          6           0       -2.651425    1.144056    1.188898
     21          1           0       -0.652319    0.708609    0.503132
     22          1           0       -1.400713   -0.970702   -1.171757
     23          1           0       -3.841475   -1.479227   -1.425073
     24          1           0       -4.765355    1.360254    1.657954
     25          1           0       -2.327607    1.878041    1.921327
     26          7           0       -5.843280   -0.383434   -0.046648
     27          8           0       -6.629049    0.222444    0.678689
     28          8           0       -6.159361   -1.221112   -0.888684
 ---------------------------------------------------------------------

 SCF Done:  E(RHF) =  -868.336372840     A.U. after   16 cycles
 E2 =    -0.2600865168D+01 EUMP2 =    -0.87093723800869D+03

 The electronic state is 1-A.
 Alpha  occ. eigenvalues --  -20.61498 -20.61492 -20.61294 -20.61288 -15.86560
 Alpha  occ. eigenvalues --  -15.86354 -11.32134 -11.31865 -11.28776 -11.28701
 Alpha  occ. eigenvalues --  -11.28577 -11.28495 -11.28429 -11.28259 -11.27932
 Alpha  occ. eigenvalues --  -11.27741 -11.27635 -11.27472  -1.60569  -1.60366
 Alpha  occ. eigenvalues --   -1.40116  -1.39915  -1.20350  -1.20070  -1.09727
 Alpha  occ. eigenvalues --   -1.09449  -1.05786  -1.05499  -0.96512  -0.96249
 Alpha  occ. eigenvalues --   -0.87212  -0.86892  -0.83332  -0.83083  -0.78347
 Alpha  occ. eigenvalues --   -0.78088  -0.72777  -0.72570  -0.71896  -0.71691
 Alpha  occ. eigenvalues --   -0.71540  -0.71138  -0.66057  -0.65982  -0.65706
 Alpha  occ. eigenvalues --   -0.65377  -0.63152  -0.62790  -0.56325  -0.56038
 Alpha  occ. eigenvalues --   -0.54064  -0.53932  -0.53812  -0.53559  -0.49552
 Alpha  occ. eigenvalues --   -0.49514  -0.49342  -0.49313  -0.45475  -0.45288
 Alpha  occ. eigenvalues --   -0.38362  -0.38081  -0.37378  -0.37098
 Alpha virt. eigenvalues --    0.04187   0.04456   0.10074   0.10530   0.15570
 Alpha virt. eigenvalues --    0.15904   0.17900   0.22042   0.24312   0.26555
 Alpha virt. eigenvalues --    0.27595   0.28941   0.29536   0.31162   0.31599

 Mulliken charges:
               1
     1  C   -0.177032
     2  C   -0.225859
     3  C   -0.170586
     4  C    0.159327
     5  C   -0.169224
     6  C   -0.218240
     7  H    0.226943
     8  H    0.221013
     9  H    0.279085
    10  H    0.279086
    11  H    0.227077
    12  N    0.487928
    13  O   -0.457662
    14  O   -0.458077
    15  C   -0.178149
    16  C   -0.224000
    17  C   -0.169182
    18  C    0.159027
    19  C   -0.169543
    20  C   -0.218905
    21  H    0.226888
    22  H    0.217473
    23  H    0.277781
    24  H    0.278039
    25  H    0.226123
    26  N    0.487901
    27  O   -0.458343
    28  O   -0.458886
 Sum of Mulliken charges =  -0.00000

 Dipole moment (field-independent basis, Debye):
    X=              1.0551    Y=              3.6304    Z=             -1.2942  Tot=              3.9960
 Quadrupole moment (field-independent basis, Debye-Ang):
   XX=           -182.6876   YY=            -99.9675   ZZ=           -103.1300
   XY=              8.0657   XZ=            -11.1686   YZ=              2.7559

 Normal termination of Gaussian 16 at Thu May  6 21:11:19 2021.
