 Gaussian 16, Revision A.03,
 Gaussian 16:  EM64L-G16RevA.03 25-Dec-2016

 -------------
 #p 6-31g* mp2
 -------------

 ------------------------------------------------------
 Input file generated by CHIRIPA (05-May-2021 14:53:12)
 ------------------------------------------------------
 Symbolic Z-matrix:
 Charge =  0 Multiplicity = 1

                         Standard orientation:
 ---------------------------------------------------------------------
 Center     Atomic      Atomic             Coordinates (Angstroms)
 Number     Number       Type             X           Y           Z
 ---------------------------------------------------------------------
      1          6           0        3.470766   -0.125041    0.076410
      2          6           0        4.864581   -0.225192   -0.544260
      3          6           0        5.717868    1.016731   -0.284791
      4          1           0        2.960981    0.762011   -0.323844
      5          1           0        3.569709    0.033303    1.159246
      6          1           0        4.763028   -0.384682   -1.625401
      7          1           0        5.371036   -1.112215   -0.142626
      8          1           0        5.848767    1.176448    0.790364
      9          1           0        5.237304    1.908115   -0.700836
     10          1           0        6.710091    0.923796   -0.737248
     11          6           0        2.605828   -1.359023   -0.174386
     12          6           0        1.212013   -1.258872    0.446284
     13          6           0        0.358726   -2.500794    0.186815
     14          1           0        2.506885   -1.517366   -1.257222
     15          1           0        3.115613   -2.246075    0.225868
     16          1           0        0.705558   -0.371848    0.044650
     17          1           0        1.313566   -1.099382    1.527425
     18          1           0        0.839290   -3.392178    0.602860
     19          1           0        0.227827   -2.660511   -0.888340
     20          1           0       -0.633497   -2.407860    0.639272
     21          6           0       -0.740398    2.426355    0.575169
     22          6           0       -1.375141    2.393611   -0.670845
     23          6           0       -2.281912    1.375166   -0.979202
     24          6           0       -2.531568    0.401186   -0.013633
     25          6           0       -1.915094    0.406489    1.236655
     26          6           0       -1.011921    1.434438    1.523270
     27          1           0       -0.037395    3.221199    0.806263
     28          1           0       -1.166203    3.162625   -1.409092
     29          1           0       -2.787369    1.325710   -1.936013
     30          1           0       -2.143712   -0.374030    1.952157
     31          1           0       -0.520446    1.457341    2.491760
     32          7           0       -3.489620   -0.682028   -0.328569
     33          8           0       -3.692397   -1.528346    0.539338
     34          8           0       -4.019625   -0.664220   -1.437359
 ---------------------------------------------------------------------

 SCF Done:  E(RHF) =  -669.534477604     A.U. after   15 cycles
 E2 =    -0.2094829733D+01 EUMP2 =    -0.67162930733658D+03

 The electronic state is 1-A.
 Alpha  occ. eigenvalues --  -20.60879 -20.60873 -15.85908 -11.31260 -11.27834
 Alpha  occ. eigenvalues --  -11.27779 -11.27547 -11.26867 -11.26792 -11.21890
 Alpha  occ. eigenvalues --  -11.21702 -11.21577 -11.21485 -11.21423 -11.20902
 Alpha  occ. eigenvalues --   -1.59935  -1.39492  -1.19445  -1.08834  -1.08625
 Alpha  occ. eigenvalues --   -1.04847  -1.03675  -0.96136  -0.95663  -0.87141
 Alpha  occ. eigenvalues --   -0.86228  -0.82500  -0.79759  -0.78460  -0.77550
 Alpha  occ. eigenvalues --   -0.72130  -0.71253  -0.70538  -0.65269  -0.65083
 Alpha  occ. eigenvalues --   -0.64834  -0.62193  -0.61097  -0.59535  -0.57800
 Alpha  occ. eigenvalues --   -0.55440  -0.55328  -0.53231  -0.52944  -0.52707
 Alpha  occ. eigenvalues --   -0.52539  -0.50064  -0.48892  -0.48887  -0.48052
 Alpha  occ. eigenvalues --   -0.46779  -0.45977  -0.45874  -0.44900  -0.43911
 Alpha  occ. eigenvalues --   -0.37402  -0.36344
 Alpha virt. eigenvalues --    0.04949   0.11142   0.16400   0.21020   0.22740
 Alpha virt. eigenvalues --    0.24059   0.26098   0.26846   0.27150   0.27947
 Alpha virt. eigenvalues --    0.28601   0.30123   0.31301   0.31570   0.31772

 Mulliken charges:
               1
     1  C   -0.297155
     2  C   -0.299585
     3  C   -0.475474
     4  H    0.145329
     5  H    0.146381
     6  H    0.152949
     7  H    0.153454
     8  H    0.154319
     9  H    0.152670
    10  H    0.161635
    11  C   -0.297609
    12  C   -0.304005
    13  C   -0.482085
    14  H    0.150511
    15  H    0.150001
    16  H    0.160567
    17  H    0.142374
    18  H    0.155328
    19  H    0.157425
    20  H    0.165942
    21  C   -0.172224
    22  C   -0.218493
    23  C   -0.172340
    24  C    0.161702
    25  C   -0.170932
    26  C   -0.215104
    27  H    0.226301
    28  H    0.223840
    29  H    0.275805
    30  H    0.275439
    31  H    0.224085
    32  N    0.488742
    33  O   -0.460544
    34  O   -0.459250
 Sum of Mulliken charges =  -0.00000

 Dipole moment (field-independent basis, Debye):
    X=              3.2677    Y=              3.8208    Z=              1.0750  Tot=              5.1412
 Quadrupole moment (field-independent basis, Debye-Ang):
   XX=           -113.0732   YY=            -91.9381   ZZ=            -90.0907
   XY=             -9.4702   XZ=             -1.9249   YZ=             -2.0290

 Normal termination of Gaussian 16 at Thu May  6 08:52:23 2021.
