 Gaussian 16, Revision A.03,
 Gaussian 16:  EM64L-G16RevA.03 25-Dec-2016

 -------------
 #p 6-31g* mp2
 -------------

 ------------------------------------------------------
 Input file generated by CHIRIPA (05-May-2021 14:53:11)
 ------------------------------------------------------
 Symbolic Z-matrix:
 Charge =  0 Multiplicity = 1

                         Standard orientation:
 ---------------------------------------------------------------------
 Center     Atomic      Atomic             Coordinates (Angstroms)
 Number     Number       Type             X           Y           Z
 ---------------------------------------------------------------------
      1          6           0       -2.775671   -0.037235   -0.014970
      2          6           0       -4.054066   -0.812349   -0.335734
      3          6           0       -3.897870   -2.319823   -0.133455
      4          1           0       -1.959268   -0.410934   -0.648042
      5          1           0       -2.483140   -0.240274    1.024548
      6          1           0       -4.344865   -0.606820   -1.373911
      7          1           0       -4.867566   -0.436631    0.298040
      8          1           0       -3.630805   -2.543618    0.904424
      9          1           0       -3.105133   -2.714774   -0.777027
     10          1           0       -4.823516   -2.854456   -0.368419
     11          6           0       -2.916065    1.471089   -0.212394
     12          6           0       -1.637670    2.246202    0.108370
     13          6           0       -1.793866    3.753677   -0.093909
     14          1           0       -3.208596    1.674127   -1.251912
     15          1           0       -3.732468    1.844787    0.420678
     16          1           0       -0.824170    1.870484   -0.525404
     17          1           0       -1.346871    2.040673    1.146547
     18          1           0       -2.586603    4.148627    0.549663
     19          1           0       -2.060931    3.977471   -1.131788
     20          1           0       -0.868220    4.288309    0.141055
     21          6           0        0.214907   -2.013170    0.558634
     22          6           0        0.826429   -2.049524   -0.698840
     23          6           0        1.939806   -1.248755   -0.970330
     24          6           0        2.417502   -0.419621    0.043394
     25          6           0        1.830119   -0.361059    1.306264
     26          6           0        0.717819   -1.170539    1.555416
     27          1           0       -0.649572   -2.638611    0.760856
     28          1           0        0.438023   -2.702961   -1.474860
     29          1           0        2.432541   -1.257185   -1.934985
     30          1           0        2.240074    0.300456    2.059759
     31          1           0        0.244929   -1.140239    2.532913
     32          7           0        3.595615    0.432729   -0.232196
     33          8           0        3.997239    1.154638    0.677849
     34          8           0        4.095087    0.362752   -1.353029
 ---------------------------------------------------------------------

 SCF Done:  E(RHF) =  -669.534817576     A.U. after   15 cycles
 E2 =    -0.2093916494D+01 EUMP2 =    -0.67162873407030D+03

 The electronic state is 1-A.
 Alpha  occ. eigenvalues --  -20.60755 -20.60749 -15.85812 -11.31164 -11.27780
 Alpha  occ. eigenvalues --  -11.27766 -11.27456 -11.26744 -11.26721 -11.22310
 Alpha  occ. eigenvalues --  -11.22122 -11.21919 -11.21838 -11.21748 -11.21186
 Alpha  occ. eigenvalues --   -1.59832  -1.39386  -1.19356  -1.08966  -1.08718
 Alpha  occ. eigenvalues --   -1.04761  -1.04051  -0.96517  -0.95579  -0.87538
 Alpha  occ. eigenvalues --   -0.86157  -0.82418  -0.80127  -0.78729  -0.77461
 Alpha  occ. eigenvalues --   -0.72030  -0.71157  -0.70448  -0.65581  -0.65001
 Alpha  occ. eigenvalues --   -0.64764  -0.62112  -0.61449  -0.59912  -0.58125
 Alpha  occ. eigenvalues --   -0.55828  -0.55240  -0.53341  -0.53077  -0.52868
 Alpha  occ. eigenvalues --   -0.52849  -0.50480  -0.48788  -0.48784  -0.48440
 Alpha  occ. eigenvalues --   -0.47165  -0.46246  -0.46153  -0.44796  -0.44272
 Alpha  occ. eigenvalues --   -0.37199  -0.36357
 Alpha virt. eigenvalues --    0.05075   0.11136   0.16510   0.19801   0.22789
 Alpha virt. eigenvalues --    0.23806   0.25120   0.26286   0.26965   0.27927
 Alpha virt. eigenvalues --    0.29686   0.30125   0.31122   0.31321   0.32303

 Mulliken charges:
               1
     1  C   -0.300782
     2  C   -0.299219
     3  C   -0.477597
     4  H    0.154504
     5  H    0.142259
     6  H    0.154619
     7  H    0.154251
     8  H    0.150157
     9  H    0.148268
    10  H    0.165672
    11  C   -0.298723
    12  C   -0.299041
    13  C   -0.476581
    14  H    0.150667
    15  H    0.149568
    16  H    0.155154
    17  H    0.148475
    18  H    0.154347
    19  H    0.155977
    20  H    0.164121
    21  C   -0.166887
    22  C   -0.222782
    23  C   -0.170849
    24  C    0.157363
    25  C   -0.169780
    26  C   -0.218195
    27  H    0.231488
    28  H    0.223017
    29  H    0.275544
    30  H    0.275545
    31  H    0.222674
    32  N    0.488150
    33  O   -0.460579
    34  O   -0.460806
 Sum of Mulliken charges =  -0.00000

 Dipole moment (field-independent basis, Debye):
    X=             -4.1905    Y=             -2.9337    Z=              0.9390  Tot=              5.2008
 Quadrupole moment (field-independent basis, Debye-Ang):
   XX=           -115.4759   YY=            -93.3727   ZZ=            -89.5418
   XY=             -5.7559   XZ=              1.8224   YZ=              1.5635

 Normal termination of Gaussian 16 at Thu May  6 02:28:41 2021.
