 Gaussian 16, Revision A.03,
 Gaussian 16:  EM64L-G16RevA.03 25-Dec-2016

 -------------
 #p 6-31g* mp2
 -------------

 ------------------------------------------------------
 Input file generated by CHIRIPA (05-May-2021 14:57:27)
 ------------------------------------------------------
 Symbolic Z-matrix:
 Charge =  0 Multiplicity = 1

                         Standard orientation:
 ---------------------------------------------------------------------
 Center     Atomic      Atomic             Coordinates (Angstroms)
 Number     Number       Type             X           Y           Z
 ---------------------------------------------------------------------
      1          6           0       -6.668335   -0.804402    0.304592
      2          6           0       -6.415454    0.530265   -0.028930
      3          6           0       -5.109008    0.967314   -0.267118
      4          6           0       -4.074634    0.038637   -0.162622
      5          6           0       -4.294461   -1.297697    0.167799
      6          6           0       -5.608899   -1.712522    0.401720
      7          1           0       -7.686319   -1.135280    0.487965
      8          1           0       -7.236268    1.237733   -0.105076
      9          1           0       -4.884889    1.994769   -0.526974
     10          1           0       -3.455602   -1.979649    0.236177
     11          1           0       -5.802319   -2.749650    0.660564
     12          7           0       -2.687327    0.489558   -0.412522
     13          8           0       -1.793460   -0.348269   -0.314104
     14          8           0       -2.520092    1.672277   -0.702081
     15          6           0        2.210882    1.336667    0.664788
     16          6           0        2.155737   -0.054846    0.533748
     17          6           0        3.308804   -0.785916    0.232880
     18          6           0        4.505564   -0.090094    0.068906
     19          6           0        4.592717    1.295646    0.193074
     20          6           0        3.427052    2.006292    0.494333
     21          1           0        1.310259    1.896646    0.898662
     22          1           0        1.212625   -0.577535    0.665584
     23          1           0        3.294533   -1.863759    0.125795
     24          1           0        5.547417    1.788760    0.055948
     25          1           0        3.472858    3.086898    0.595510
     26          7           0        5.732932   -0.853234   -0.249817
     27          8           0        6.774988   -0.216636   -0.389462
     28          8           0        5.629649   -2.073531   -0.353953
 ---------------------------------------------------------------------

 SCF Done:  E(RHF) =  -868.340447267     A.U. after   16 cycles
 E2 =    -0.2598107831D+01 EUMP2 =    -0.87093855509844D+03

 The electronic state is 1-A.
 Alpha  occ. eigenvalues --  -20.61857 -20.61833 -20.59936 -20.59930 -15.86873
 Alpha  occ. eigenvalues --  -15.84978 -11.31939 -11.30113 -11.28475 -11.28464
 Alpha  occ. eigenvalues --  -11.28150 -11.27414 -11.27405 -11.26682 -11.26595
 Alpha  occ. eigenvalues --  -11.26210 -11.25636 -11.25402  -1.60910  -1.59016
 Alpha  occ. eigenvalues --   -1.40470  -1.38576  -1.20082  -1.18235  -1.09531
 Alpha  occ. eigenvalues --   -1.07645  -1.05439  -1.03598  -0.96416  -0.94532
 Alpha  occ. eigenvalues --   -0.86850  -0.84983  -0.83260  -0.81376  -0.78341
 Alpha  occ. eigenvalues --   -0.76476  -0.73109  -0.72208  -0.71203  -0.71183
 Alpha  occ. eigenvalues --   -0.70336  -0.69290  -0.65738  -0.65436  -0.63868
 Alpha  occ. eigenvalues --   -0.63549  -0.62790  -0.60945  -0.55945  -0.54020
 Alpha  occ. eigenvalues --   -0.53784  -0.53525  -0.51948  -0.51661  -0.49866
 Alpha  occ. eigenvalues --   -0.49831  -0.47972  -0.47933  -0.45938  -0.44035
 Alpha  occ. eigenvalues --   -0.38041  -0.37028  -0.36164  -0.35207
 Alpha virt. eigenvalues --    0.04163   0.06036   0.10631   0.12462   0.15715
 Alpha virt. eigenvalues --    0.17618   0.20800   0.22734   0.26739   0.27616
 Alpha virt. eigenvalues --    0.28600   0.29569   0.30426   0.31795   0.32369

 Mulliken charges:
               1
     1  C   -0.169665
     2  C   -0.218502
     3  C   -0.170386
     4  C    0.157436
     5  C   -0.170447
     6  C   -0.218428
     7  H    0.228251
     8  H    0.225657
     9  H    0.276079
    10  H    0.274870
    11  H    0.225819
    12  N    0.490655
    13  O   -0.469337
    14  O   -0.459623
    15  C   -0.170777
    16  C   -0.220613
    17  C   -0.173815
    18  C    0.157793
    19  C   -0.173154
    20  C   -0.219460
    21  H    0.232904
    22  H    0.239560
    23  H    0.272075
    24  H    0.271621
    25  H    0.220057
    26  N    0.488251
    27  O   -0.463627
    28  O   -0.463197
 Sum of Mulliken charges =  -0.00000

 Dipole moment (field-independent basis, Debye):
    X=             -9.8884    Y=              1.1168    Z=              2.0202  Tot=             10.1542
 Quadrupole moment (field-independent basis, Debye-Ang):
   XX=           -103.4399   YY=            -97.7683   ZZ=           -106.5490
   XY=             19.8568   XZ=              2.1577   YZ=             -0.7343

 Normal termination of Gaussian 16 at Thu May  6 13:10:15 2021.
