 Gaussian 16, Revision A.03,
 Gaussian 16:  EM64L-G16RevA.03 25-Dec-2016

 -------------
 #p 6-31g* mp2
 -------------

 ------------------------------------------------------
 Input file generated by CHIRIPA (05-May-2021 14:57:21)
 ------------------------------------------------------
 Symbolic Z-matrix:
 Charge =  0 Multiplicity = 1

                         Standard orientation:
 ---------------------------------------------------------------------
 Center     Atomic      Atomic             Coordinates (Angstroms)
 Number     Number       Type             X           Y           Z
 ---------------------------------------------------------------------
      1          6           0        2.420713    2.635251    0.109994
      2          6           0        3.772804    2.416724    0.393926
      3          6           0        4.319116    1.133103    0.302227
      4          6           0        3.480745    0.086275   -0.078003
      5          6           0        2.129789    0.272020   -0.367325
      6          6           0        1.604959    1.564090   -0.269057
      7          1           0        2.004669    3.635681    0.183779
      8          1           0        4.408699    3.246716    0.688539
      9          1           0        5.362476    0.935710    0.516360
     10          1           0        1.520861   -0.575234   -0.658505
     11          1           0        0.554553    1.730843   -0.490157
     12          7           0        4.047729   -1.277110   -0.178558
     13          8           0        3.288048   -2.182585   -0.515656
     14          8           0        5.241077   -1.414439    0.081630
     15          6           0       -1.182234   -1.474838    0.447488
     16          6           0       -1.560091   -1.102549   -0.846787
     17          6           0       -2.779566   -0.457181   -1.072459
     18          6           0       -3.600476   -0.198459    0.024107
     19          6           0       -3.252031   -0.556938    1.325402
     20          6           0       -2.027919   -1.201327    1.527547
     21          1           0       -0.233116   -1.975795    0.613657
     22          1           0       -0.905324   -1.313687   -1.687469
     23          1           0       -3.096816   -0.157989   -2.064051
     24          1           0       -3.925850   -0.333032    2.143480
     25          1           0       -1.737063   -1.489301    2.533787
     26          7           0       -4.893935    0.484244   -0.202348
     27          8           0       -5.599331    0.700837    0.780577
     28          8           0       -5.177859    0.789827   -1.358481
 ---------------------------------------------------------------------

 SCF Done:  E(RHF) =  -868.338239424     A.U. after   16 cycles
 E2 =    -0.2600897722D+01 EUMP2 =    -0.87093913714626D+03

 The electronic state is 1-A.
 Alpha  occ. eigenvalues --  -20.61568 -20.61523 -20.61210 -20.61203 -15.86589
 Alpha  occ. eigenvalues --  -15.86267 -11.31851 -11.31706 -11.28440 -11.28341
 Alpha  occ. eigenvalues --  -11.28327 -11.28265 -11.28031 -11.27981 -11.27343
 Alpha  occ. eigenvalues --  -11.27338 -11.27325 -11.27232  -1.60615  -1.60286
 Alpha  occ. eigenvalues --   -1.40177  -1.39836  -1.19992  -1.19893  -1.09388
 Alpha  occ. eigenvalues --   -1.09267  -1.05388  -1.05288  -0.96264  -0.96072
 Alpha  occ. eigenvalues --   -0.86796  -0.86672  -0.83085  -0.82905  -0.78188
 Alpha  occ. eigenvalues --   -0.77940  -0.72811  -0.72479  -0.71935  -0.71615
 Alpha  occ. eigenvalues --   -0.71232  -0.70823  -0.65647  -0.65562  -0.65417
 Alpha  occ. eigenvalues --   -0.65192  -0.62811  -0.62544  -0.55890  -0.55698
 Alpha  occ. eigenvalues --   -0.53747  -0.53579  -0.53459  -0.53346  -0.49584
 Alpha  occ. eigenvalues --   -0.49540  -0.49244  -0.49231  -0.45603  -0.45225
 Alpha  occ. eigenvalues --   -0.37946  -0.37903  -0.36930  -0.36917
 Alpha virt. eigenvalues --    0.04243   0.04665   0.10581   0.10649   0.15766
 Alpha virt. eigenvalues --    0.16175   0.19505   0.21807   0.25365   0.27192
 Alpha virt. eigenvalues --    0.27400   0.28955   0.30460   0.30796   0.31381

 Mulliken charges:
               1
     1  C   -0.170754
     2  C   -0.217988
     3  C   -0.170581
     4  C    0.159816
     5  C   -0.176648
     6  C   -0.219804
     7  H    0.229126
     8  H    0.225988
     9  H    0.276953
    10  H    0.267049
    11  H    0.228502
    12  N    0.488541
    13  O   -0.467806
    14  O   -0.455959
    15  C   -0.177715
    16  C   -0.229794
    17  C   -0.172879
    18  C    0.157628
    19  C   -0.170711
    20  C   -0.219009
    21  H    0.238306
    22  H    0.226533
    23  H    0.277077
    24  H    0.277372
    25  H    0.227515
    26  N    0.487980
    27  O   -0.458956
    28  O   -0.459783
 Sum of Mulliken charges =  -0.00000

 Dipole moment (field-independent basis, Debye):
    X=              2.5497    Y=              2.5002    Z=              1.2877  Tot=              3.7961
 Quadrupole moment (field-independent basis, Debye-Ang):
   XX=           -147.3076   YY=           -103.2530   ZZ=           -100.3243
   XY=             26.8059   XZ=             -1.0567   YZ=             -0.3511

 Normal termination of Gaussian 16 at Thu May  6 21:03:55 2021.
