 Gaussian 16, Revision A.03,
 Gaussian 16:  EM64L-G16RevA.03 25-Dec-2016

 -------------
 #p 6-31g* mp2
 -------------

 ------------------------------------------------------
 Input file generated by CHIRIPA (05-May-2021 14:51:12)
 ------------------------------------------------------
 Symbolic Z-matrix:
 Charge =  0 Multiplicity = 1

                         Standard orientation:
 ---------------------------------------------------------------------
 Center     Atomic      Atomic             Coordinates (Angstroms)
 Number     Number       Type             X           Y           Z
 ---------------------------------------------------------------------
      1          6           0       -1.850232   -0.969910    0.021335
      2          6           0       -2.266527   -2.440180    0.075993
      3          6           0       -1.070744   -3.391632    0.127346
      4          1           0       -1.213167   -0.808283   -0.858990
      5          1           0       -1.233289   -0.737806    0.900485
      6          1           0       -2.883651   -2.669089   -0.802287
      7          1           0       -2.902832   -2.598285    0.956184
      8          1           0       -0.457162   -3.191823    1.011764
      9          1           0       -0.437872   -3.263029   -0.756698
     10          1           0       -1.391182   -4.437428    0.165960
     11          6           0       -3.034628   -0.006449   -0.030378
     12          6           0       -2.618333    1.463822   -0.085037
     13          6           0       -3.814116    2.415274   -0.136390
     14          1           0       -3.651571   -0.238553   -0.909528
     15          1           0       -3.671693   -0.168076    0.849946
     16          1           0       -1.982028    1.621927   -0.965227
     17          1           0       -2.001209    1.692731    0.793243
     18          1           0       -4.446988    2.286671    0.747655
     19          1           0       -4.427698    2.215464   -1.020807
     20          1           0       -3.493678    3.461070   -0.175003
     21          6           0        2.482444    1.181273   -0.313994
     22          6           0        1.965078    2.296950    0.594621
     23          6           0        2.051629    3.677613   -0.056586
     24          1           0        3.524732    1.394179   -0.588314
     25          1           0        1.906342    1.183141   -1.249675
     26          1           0        2.541066    2.292089    1.528876
     27          1           0        0.923961    2.081264    0.866965
     28          1           0        1.462120    3.706272   -0.978681
     29          1           0        3.088413    3.918295   -0.313010
     30          1           0        1.676633    4.460252    0.610283
     31          6           0        2.402416   -0.204914    0.323038
     32          6           0        2.919782   -1.320591   -0.585578
     33          6           0        2.833231   -2.701255    0.065630
     34          1           0        2.978518   -0.206783    1.258718
     35          1           0        1.360128   -0.417821    0.597357
     36          1           0        3.960899   -1.104905   -0.857922
     37          1           0        2.343794   -1.315730   -1.519832
     38          1           0        1.796447   -2.941936    0.322053
     39          1           0        3.422740   -2.729913    0.987724
     40          1           0        3.208227   -3.483893   -0.601240
 ---------------------------------------------------------------------

 SCF Done:  E(RHF) =  -470.732395269     A.U. after   11 cycles
 E2 =    -0.1585000970D+01 EUMP2 =    -0.47231739623871D+03

 The electronic state is 1-A.
 Alpha  occ. eigenvalues --  -11.21713 -11.21705 -11.21529 -11.21524 -11.21485
 Alpha  occ. eigenvalues --  -11.21463 -11.21304 -11.21220 -11.21176 -11.21139
 Alpha  occ. eigenvalues --  -11.21019 -11.20827  -1.08556  -1.08319  -1.03652
 Alpha  occ. eigenvalues --   -1.03413  -0.96118  -0.95847  -0.87155  -0.86848
 Alpha  occ. eigenvalues --   -0.79773  -0.79438  -0.78450  -0.78071  -0.65178
 Alpha  occ. eigenvalues --   -0.64958  -0.61035  -0.60867  -0.59451  -0.59223
 Alpha  occ. eigenvalues --   -0.57845  -0.57415  -0.55377  -0.55183  -0.52786
 Alpha  occ. eigenvalues --   -0.52685  -0.52557  -0.52116  -0.50038  -0.49743
 Alpha  occ. eigenvalues --   -0.48267  -0.47630  -0.46779  -0.46430  -0.46326
 Alpha  occ. eigenvalues --   -0.45847  -0.45640  -0.45087  -0.43893  -0.43673
 Alpha virt. eigenvalues --    0.20228   0.22220   0.23665   0.24126   0.25578
 Alpha virt. eigenvalues --    0.26060   0.26595   0.28304   0.28832   0.29611
 Alpha virt. eigenvalues --    0.30677   0.30913   0.31578   0.31805   0.32387

 Mulliken charges:
               1
     1  C   -0.302662
     2  C   -0.299519
     3  C   -0.480793
     4  H    0.150216
     5  H    0.152465
     6  H    0.152408
     7  H    0.152403
     8  H    0.157722
     9  H    0.158228
    10  H    0.161647
    11  C   -0.297939
    12  C   -0.302192
    13  C   -0.475793
    14  H    0.150027
    15  H    0.150096
    16  H    0.151973
    17  H    0.154014
    18  H    0.155431
    19  H    0.155427
    20  H    0.160885
    21  C   -0.297436
    22  C   -0.302620
    23  C   -0.475361
    24  H    0.149299
    25  H    0.148757
    26  H    0.151355
    27  H    0.154766
    28  H    0.154996
    29  H    0.154966
    30  H    0.159804
    31  C   -0.304962
    32  C   -0.298641
    33  C   -0.484917
    34  H    0.148548
    35  H    0.156804
    36  H    0.151350
    37  H    0.150131
    38  H    0.166722
    39  H    0.153569
    40  H    0.158826
 Sum of Mulliken charges =  -0.00000

 Dipole moment (field-independent basis, Debye):
    X=             -0.1314    Y=             -0.0394    Z=              0.0149  Tot=              0.1380
 Quadrupole moment (field-independent basis, Debye-Ang):
   XX=            -84.6730   YY=            -86.4725   ZZ=            -83.7043
   XY=              0.8419   XZ=              0.3251   YZ=              0.4527

 Normal termination of Gaussian 16 at Wed May  5 16:49:49 2021.
