 Gaussian 16, Revision A.03,
 Gaussian 16:  EM64L-G16RevA.03 25-Dec-2016

 -------------
 #p 6-31g* mp2
 -------------

 ------------------------------------------------------
 Input file generated by CHIRIPA (05-May-2021 14:55:23)
 ------------------------------------------------------
 Symbolic Z-matrix:
 Charge =  0 Multiplicity = 1

                         Standard orientation:
 ---------------------------------------------------------------------
 Center     Atomic      Atomic             Coordinates (Angstroms)
 Number     Number       Type             X           Y           Z
 ---------------------------------------------------------------------
      1          6           0       -3.362792   -1.831558   -0.312352
      2          6           0       -2.791685   -1.480397    0.915265
      3          6           0       -2.301002   -0.188423    1.126413
      4          6           0       -2.398020    0.731418    0.083450
      5          6           0       -2.961560    0.411915   -1.150905
      6          6           0       -3.445760   -0.885949   -1.339707
      7          1           0       -3.741448   -2.837482   -0.467697
      8          1           0       -2.725923   -2.212708    1.714916
      9          1           0       -1.854044    0.110231    2.066866
     10          1           0       -3.013125    1.163646   -1.929146
     11          1           0       -3.888784   -1.155856   -2.294131
     12          7           0       -1.881988    2.102290    0.295155
     13          8           0       -1.979271    2.894328   -0.639644
     14          8           0       -1.390009    2.358784    1.391879
     15          6           0        2.445501   -0.827063   -0.180390
     16          6           0        2.076272   -2.224405    0.318696
     17          6           0        0.606927   -2.570040    0.075061
     18          1           0        1.805542   -0.085819    0.317562
     19          1           0        2.225093   -0.758908   -1.254713
     20          1           0        2.298603   -2.290349    1.391466
     21          1           0        2.717314   -2.962392   -0.180360
     22          1           0        0.374388   -2.532020   -0.994089
     23          1           0       -0.046702   -1.856158    0.586668
     24          1           0        0.364727   -3.573238    0.439466
     25          6           0        3.911155   -0.466970    0.056080
     26          6           0        4.280384    0.930374   -0.443006
     27          6           0        5.749729    1.276008   -0.199372
     28          1           0        4.131562   -0.535124    1.130403
     29          1           0        4.551114   -1.208213   -0.441873
     30          1           0        3.639341    1.668360    0.056050
     31          1           0        4.058053    0.996317   -1.515777
     32          1           0        6.403357    0.562126   -0.710979
     33          1           0        5.982267    1.237988    0.869778
     34          1           0        5.991930    2.279207   -0.563777
 ---------------------------------------------------------------------

 SCF Done:  E(RHF) =  -669.534280916     A.U. after   15 cycles
 E2 =    -0.2093167998D+01 EUMP2 =    -0.67162744891435D+03

 The electronic state is 1-A.
 Alpha  occ. eigenvalues --  -20.60822 -20.60814 -15.85873 -11.31246 -11.27782
 Alpha  occ. eigenvalues --  -11.27774 -11.27512 -11.26820 -11.26790 -11.21604
 Alpha  occ. eigenvalues --  -11.21284 -11.21255 -11.21166 -11.21114 -11.20784
 Alpha  occ. eigenvalues --   -1.59894  -1.39448  -1.19411  -1.08797  -1.08280
 Alpha  occ. eigenvalues --   -1.04826  -1.03398  -0.95867  -0.95634  -0.86896
 Alpha  occ. eigenvalues --   -0.86203  -0.82472  -0.79473  -0.78077  -0.77519
 Alpha  occ. eigenvalues --   -0.72090  -0.71216  -0.70503  -0.65063  -0.64914
 Alpha  occ. eigenvalues --   -0.64811  -0.62163  -0.60816  -0.59250  -0.57497
 Alpha  occ. eigenvalues --   -0.55299  -0.55235  -0.53360  -0.52903  -0.52552
 Alpha  occ. eigenvalues --   -0.52086  -0.49789  -0.48849  -0.48845  -0.47758
 Alpha  occ. eigenvalues --   -0.46500  -0.45619  -0.45536  -0.44847  -0.43660
 Alpha  occ. eigenvalues --   -0.37366  -0.36287
 Alpha virt. eigenvalues --    0.04992   0.11167   0.16462   0.21246   0.23031
 Alpha virt. eigenvalues --    0.24434   0.26709   0.27145   0.27627   0.28317
 Alpha virt. eigenvalues --    0.28419   0.30881   0.31623   0.31712   0.32159

 Mulliken charges:
               1
     1  C   -0.168915
     2  C   -0.214349
     3  C   -0.176658
     4  C    0.162147
     5  C   -0.171390
     6  C   -0.218039
     7  H    0.226027
     8  H    0.224788
     9  H    0.275556
    10  H    0.275682
    11  H    0.223693
    12  N    0.488044
    13  O   -0.459861
    14  O   -0.461076
    15  C   -0.299199
    16  C   -0.299116
    17  C   -0.480099
    18  H    0.153108
    19  H    0.148965
    20  H    0.150447
    21  H    0.150781
    22  H    0.154071
    23  H    0.160901
    24  H    0.152533
    25  C   -0.298048
    26  C   -0.300898
    27  C   -0.475759
    28  H    0.149409
    29  H    0.148060
    30  H    0.157871
    31  H    0.151567
    32  H    0.153402
    33  H    0.155042
    34  H    0.161313
 Sum of Mulliken charges =  -0.00000

 Dipole moment (field-independent basis, Debye):
    X=             -1.9230    Y=             -4.7318    Z=             -0.7605  Tot=              5.1639
 Quadrupole moment (field-independent basis, Debye-Ang):
   XX=            -87.3756   YY=           -102.5186   ZZ=            -89.8270
   XY=              9.9621   XZ=              2.8636   YZ=             -1.9349

 Normal termination of Gaussian 16 at Thu May  6 20:52:02 2021.
