 Gaussian 16, Revision A.03,
 Gaussian 16:  EM64L-G16RevA.03 25-Dec-2016

 -------------
 #p 6-31g* mp2
 -------------

 ------------------------------------------------------
 Input file generated by CHIRIPA (05-May-2021 14:53:12)
 ------------------------------------------------------
 Symbolic Z-matrix:
 Charge =  0 Multiplicity = 1

                         Standard orientation:
 ---------------------------------------------------------------------
 Center     Atomic      Atomic             Coordinates (Angstroms)
 Number     Number       Type             X           Y           Z
 ---------------------------------------------------------------------
      1          6           0        3.920817    0.676703   -0.077754
      2          6           0        3.152899    1.811302    0.601194
      3          6           0        4.012006    3.056422    0.823466
      4          1           0        4.794936    0.416264    0.534644
      5          1           0        4.309492    1.032075   -1.042138
      6          1           0        2.764612    1.453474    1.563384
      7          1           0        2.280399    2.068941   -0.012795
      8          1           0        4.388065    3.440287   -0.130384
      9          1           0        4.875029    2.821324    1.454750
     10          1           0        3.443274    3.854974    1.310003
     11          6           0        3.075372   -0.574900   -0.306754
     12          6           0        3.843290   -1.709500   -0.985703
     13          6           0        2.984183   -2.954620   -1.207974
     14          1           0        2.686697   -0.930273    0.657630
     15          1           0        2.201253   -0.314461   -0.919152
     16          1           0        4.715790   -1.967139   -0.371714
     17          1           0        4.231577   -1.351672   -1.947892
     18          1           0        2.121160   -2.719521   -1.839258
     19          1           0        2.608124   -3.338485   -0.254124
     20          1           0        3.552915   -3.753172   -1.694511
     21          6           0       -1.199300   -1.389387    1.630929
     22          6           0       -0.671890   -0.403254    0.790751
     23          6           0       -1.512185    0.350613   -0.033955
     24          6           0       -2.881148    0.090709    0.007047
     25          6           0       -3.436843   -0.884903    0.833287
     26          6           0       -2.577663   -1.626646    1.649483
     27          1           0       -0.539204   -1.970299    2.268274
     28          1           0        0.398164   -0.216820    0.774258
     29          1           0       -1.130550    1.120129   -0.693967
     30          1           0       -4.507750   -1.047831    0.827783
     31          1           0       -2.990052   -2.391852    2.300973
     32          7           0       -3.780727    0.882377   -0.861528
     33          8           0       -4.983218    0.634054   -0.806878
     34          8           0       -3.266291    1.736219   -1.580518
 ---------------------------------------------------------------------

 SCF Done:  E(RHF) =  -669.535096906     A.U. after   15 cycles
 E2 =    -0.2092424723D+01 EUMP2 =    -0.67162752162944D+03

 The electronic state is 1-A.
 Alpha  occ. eigenvalues --  -20.60686 -20.60681 -15.85735 -11.31071 -11.27631
 Alpha  occ. eigenvalues --  -11.27605 -11.27348 -11.26655 -11.26501 -11.22533
 Alpha  occ. eigenvalues --  -11.22527 -11.22416 -11.22254 -11.21797 -11.21717
 Alpha  occ. eigenvalues --   -1.59761  -1.39316  -1.19227  -1.09381  -1.08628
 Alpha  occ. eigenvalues --   -1.04619  -1.04348  -0.96795  -0.95475  -0.87805
 Alpha  occ. eigenvalues --   -0.86028  -0.82314  -0.80434  -0.79294  -0.77332
 Alpha  occ. eigenvalues --   -0.71955  -0.71083  -0.70348  -0.65996  -0.64874
 Alpha  occ. eigenvalues --   -0.64629  -0.61990  -0.61732  -0.60160  -0.58415
 Alpha  occ. eigenvalues --   -0.56072  -0.55135  -0.53457  -0.53283  -0.52953
 Alpha  occ. eigenvalues --   -0.52648  -0.50725  -0.48759  -0.48713  -0.48698
 Alpha  occ. eigenvalues --   -0.47464  -0.46693  -0.46650  -0.44728  -0.44642
 Alpha  occ. eigenvalues --   -0.37210  -0.36215
 Alpha virt. eigenvalues --    0.05157   0.11400   0.16624   0.19970   0.22621
 Alpha virt. eigenvalues --    0.23317   0.24541   0.25133   0.27141   0.28620
 Alpha virt. eigenvalues --    0.29533   0.30531   0.31041   0.31369   0.31803

 Mulliken charges:
               1
     1  C   -0.297419
     2  C   -0.303342
     3  C   -0.475994
     4  H    0.152629
     5  H    0.154418
     6  H    0.148925
     7  H    0.149829
     8  H    0.158512
     9  H    0.156908
    10  H    0.163652
    11  C   -0.305325
    12  C   -0.299046
    13  C   -0.476583
    14  H    0.141746
    15  H    0.149777
    16  H    0.154201
    17  H    0.156393
    18  H    0.158430
    19  H    0.151370
    20  H    0.164070
    21  C   -0.174327
    22  C   -0.226049
    23  C   -0.175850
    24  C    0.159201
    25  C   -0.171849
    26  C   -0.218168
    27  H    0.224485
    28  H    0.240890
    29  H    0.274487
    30  H    0.275019
    31  H    0.222717
    32  N    0.488053
    33  O   -0.460824
    34  O   -0.460936
 Sum of Mulliken charges =  -0.00000

 Dipole moment (field-independent basis, Debye):
    X=              3.4791    Y=             -2.7591    Z=              2.9746  Tot=              5.3446
 Quadrupole moment (field-independent basis, Debye-Ang):
   XX=           -109.4197   YY=            -94.9688   ZZ=            -93.9022
   XY=             10.2847   XZ=            -10.5824   YZ=             -1.1886

 Normal termination of Gaussian 16 at Wed May  5 18:32:35 2021.
