 Gaussian 16, Revision A.03,
 Gaussian 16:  EM64L-G16RevA.03 25-Dec-2016

 -------------
 #p 6-31g* mp2
 -------------

 ------------------------------------------------------
 Input file generated by CHIRIPA (05-May-2021 14:55:25)
 ------------------------------------------------------
 Symbolic Z-matrix:
 Charge =  0 Multiplicity = 1

                         Standard orientation:
 ---------------------------------------------------------------------
 Center     Atomic      Atomic             Coordinates (Angstroms)
 Number     Number       Type             X           Y           Z
 ---------------------------------------------------------------------
      1          6           0       -5.340688   -1.281951    0.321957
      2          6           0       -5.307584   -0.078107   -0.389510
      3          6           0       -4.092046    0.565792   -0.639328
      4          6           0       -2.923484   -0.024882   -0.160939
      5          6           0       -2.923776   -1.223420    0.550957
      6          6           0       -4.150776   -1.849764    0.789096
      7          1           0       -6.289399   -1.775329    0.511486
      8          1           0       -6.230115    0.365171   -0.753495
      9          1           0       -4.037572    1.498545   -1.187436
     10          1           0       -1.987606   -1.640989    0.901159
     11          1           0       -4.173462   -2.784604    1.341913
     12          7           0       -1.630581    0.647493   -0.419229
     13          8           0       -0.615044    0.106581    0.012901
     14          8           0       -1.657221    1.702681   -1.048915
     15          6           0        3.615571    0.564216    0.672602
     16          6           0        2.679587    1.607893    0.062147
     17          6           0        1.887743    2.380945    1.117214
     18          1           0        3.026330   -0.137889    1.278232
     19          1           0        4.311015    1.063698    1.361276
     20          1           0        1.987016    1.106783   -0.626223
     21          1           0        3.271101    2.307482   -0.542256
     22          1           0        2.564697    2.906586    1.798416
     23          1           0        1.273317    1.699065    1.713973
     24          1           0        1.225073    3.121686    0.658922
     25          6           0        4.414046   -0.216829   -0.369575
     26          6           0        5.350031   -1.260506    0.240881
     27          6           0        6.141875   -2.033559   -0.814186
     28          1           0        3.718603   -0.716311   -1.058249
     29          1           0        5.003288    0.485276   -0.975205
     30          1           0        4.758518   -1.960095    0.845284
     31          1           0        6.042602   -0.759396    0.929250
     32          1           0        6.756301   -1.351679   -1.410944
     33          1           0        5.464922   -2.559199   -1.495388
     34          1           0        6.804546   -2.774299   -0.355893
 ---------------------------------------------------------------------

 SCF Done:  E(RHF) =  -669.536479394     A.U. after   15 cycles
 E2 =    -0.2091934248D+01 EUMP2 =    -0.67162841364140D+03

 The electronic state is 1-A.
 Alpha  occ. eigenvalues --  -20.61099 -20.61090 -15.86102 -11.31382 -11.27938
 Alpha  occ. eigenvalues --  -11.27931 -11.27664 -11.26932 -11.26922 -11.20754
 Alpha  occ. eigenvalues --  -11.20392 -11.20258 -11.19957 -11.19635 -11.19179
 Alpha  occ. eigenvalues --   -1.60136  -1.39696  -1.19542  -1.08956  -1.07139
 Alpha  occ. eigenvalues --   -1.04931  -1.02164  -0.95807  -0.94662  -0.86334
 Alpha  occ. eigenvalues --   -0.85702  -0.82642  -0.78325  -0.77700  -0.76862
 Alpha  occ. eigenvalues --   -0.72333  -0.71441  -0.70651  -0.65202  -0.64937
 Alpha  occ. eigenvalues --   -0.63762  -0.62279  -0.59543  -0.58120  -0.56244
 Alpha  occ. eigenvalues --   -0.55435  -0.53977  -0.53263  -0.53021  -0.51382
 Alpha  occ. eigenvalues --   -0.51100  -0.49079  -0.49056  -0.48632  -0.46617
 Alpha  occ. eigenvalues --   -0.45417  -0.45067  -0.44427  -0.44186  -0.42445
 Alpha  occ. eigenvalues --   -0.37517  -0.36529
 Alpha virt. eigenvalues --    0.04811   0.11127   0.16311   0.21255   0.24049
 Alpha virt. eigenvalues --    0.25738   0.27188   0.27824   0.28242   0.28769
 Alpha virt. eigenvalues --    0.29285   0.30858   0.32313   0.32708   0.32923

 Mulliken charges:
               1
     1  C   -0.170402
     2  C   -0.218581
     3  C   -0.170483
     4  C    0.157941
     5  C   -0.170696
     6  C   -0.218522
     7  H    0.226334
     8  H    0.224149
     9  H    0.276081
    10  H    0.275590
    11  H    0.224123
    12  N    0.489596
    13  O   -0.459529
    14  O   -0.458102
    15  C   -0.297452
    16  C   -0.301422
    17  C   -0.472215
    18  H    0.149412
    19  H    0.142788
    20  H    0.174894
    21  H    0.141970
    22  H    0.141482
    23  H    0.158411
    24  H    0.163078
    25  C   -0.297636
    26  C   -0.298385
    27  C   -0.474876
    28  H    0.150881
    29  H    0.146958
    30  H    0.149748
    31  H    0.149791
    32  H    0.154167
    33  H    0.154057
    34  H    0.156849
 Sum of Mulliken charges =  -0.00000

 Dipole moment (field-independent basis, Debye):
    X=             -5.0634    Y=             -2.4171    Z=              0.7980  Tot=              5.6672
 Quadrupole moment (field-independent basis, Debye-Ang):
   XX=            -68.8604   YY=            -92.7476   ZZ=            -95.2138
   XY=              5.9741   XZ=             -0.4619   YZ=             -2.4774

 Normal termination of Gaussian 16 at Thu May  6 00:02:25 2021.
