 Gaussian 16, Revision A.03,
 Gaussian 16:  EM64L-G16RevA.03 25-Dec-2016

 -------------
 #p 6-31g* mp2
 -------------

 ------------------------------------------------------
 Input file generated by CHIRIPA (05-May-2021 14:57:26)
 ------------------------------------------------------
 Symbolic Z-matrix:
 Charge =  0 Multiplicity = 1

                         Standard orientation:
 ---------------------------------------------------------------------
 Center     Atomic      Atomic             Coordinates (Angstroms)
 Number     Number       Type             X           Y           Z
 ---------------------------------------------------------------------
      1          6           0       -1.132499    2.364815   -0.996738
      2          6           0       -1.776849    2.327256    0.244198
      3          6           0       -2.372744    1.147312    0.699379
      4          6           0       -2.305108    0.018498   -0.115787
      5          6           0       -1.670449    0.024260   -1.356942
      6          6           0       -1.081446    1.215224   -1.791946
      7          1           0       -0.672271    3.285704   -1.342496
      8          1           0       -1.818049    3.218513    0.863883
      9          1           0       -2.878040    1.090301    1.655853
     10          1           0       -1.645723   -0.880320   -1.952375
     11          1           0       -0.581713    1.241465   -2.756115
     12          7           0       -2.932307   -1.236489    0.355413
     13          8           0       -2.858921   -2.217356   -0.381575
     14          8           0       -3.485415   -1.215517    1.452804
     15          6           0        2.149692    2.212454    0.841826
     16          6           0        2.293478    1.848183   -0.500989
     17          6           0        2.323597    0.500533   -0.871770
     18          6           0        2.206770   -0.461011    0.130763
     19          6           0        2.062340   -0.129785    1.477136
     20          6           0        2.034784    1.224050    1.824870
     21          1           0        2.127290    3.261744    1.120906
     22          1           0        2.382934    2.613643   -1.266571
     23          1           0        2.433879    0.190551   -1.903840
     24          1           0        1.975451   -0.915469    2.217789
     25          1           0        1.923010    1.504015    2.868503
     26          7           0        2.237299   -1.890982   -0.249567
     27          8           0        2.132444   -2.718993    0.652674
     28          8           0        2.365504   -2.156707   -1.442711
 ---------------------------------------------------------------------

 SCF Done:  E(RHF) =  -868.334267829     A.U. after   16 cycles
 E2 =    -0.2605439732D+01 EUMP2 =    -0.87093970756108D+03

 The electronic state is 1-A.
 Alpha  occ. eigenvalues --  -20.60971 -20.60930 -20.60719 -20.60680 -15.86012
 Alpha  occ. eigenvalues --  -15.85764 -11.31519 -11.31283 -11.28162 -11.28072
 Alpha  occ. eigenvalues --  -11.27929 -11.27929 -11.27840 -11.27759 -11.27232
 Alpha  occ. eigenvalues --  -11.27140 -11.27003 -11.26948  -1.60023  -1.59777
 Alpha  occ. eigenvalues --   -1.39575  -1.39325  -1.19740  -1.19483  -1.09120
 Alpha  occ. eigenvalues --   -1.08874  -1.05182  -1.04919  -0.95914  -0.95686
 Alpha  occ. eigenvalues --   -0.86572  -0.86349  -0.82749  -0.82519  -0.77771
 Alpha  occ. eigenvalues --   -0.77512  -0.72229  -0.71981  -0.71356  -0.71103
 Alpha  occ. eigenvalues --   -0.70884  -0.70666  -0.65396  -0.65229  -0.65146
 Alpha  occ. eigenvalues --   -0.64979  -0.62541  -0.62265  -0.55702  -0.55512
 Alpha  occ. eigenvalues --   -0.54278  -0.53288  -0.53050  -0.52450  -0.48999
 Alpha  occ. eigenvalues --   -0.48973  -0.48756  -0.48722  -0.44948  -0.44695
 Alpha  occ. eigenvalues --   -0.38449  -0.37778  -0.36478  -0.35719
 Alpha virt. eigenvalues --    0.04655   0.04983   0.10797   0.11103   0.16337
 Alpha virt. eigenvalues --    0.16632   0.19605   0.22056   0.25753   0.26446
 Alpha virt. eigenvalues --    0.28459   0.28738   0.29805   0.30980   0.32530

 Mulliken charges:
               1
     1  C   -0.164427
     2  C   -0.218186
     3  C   -0.170926
     4  C    0.158444
     5  C   -0.172446
     6  C   -0.216289
     7  H    0.217054
     8  H    0.218574
     9  H    0.274721
    10  H    0.281728
    11  H    0.219940
    12  N    0.487933
    13  O   -0.454872
    14  O   -0.462101
    15  C   -0.169457
    16  C   -0.217125
    17  C   -0.168393
    18  C    0.160529
    19  C   -0.169835
    20  C   -0.217324
    21  H    0.221349
    22  H    0.215842
    23  H    0.271536
    24  H    0.279266
    25  H    0.223975
    26  N    0.487782
    27  O   -0.454619
    28  O   -0.462672
 Sum of Mulliken charges =  -0.00000

 Dipole moment (field-independent basis, Debye):
    X=              2.0841    Y=              9.1564    Z=             -0.2299  Tot=              9.3934
 Quadrupole moment (field-independent basis, Debye-Ang):
   XX=           -116.8143   YY=           -109.3895   ZZ=            -96.2050
   XY=              0.4336   XZ=              4.9045   YZ=              0.3932

 Normal termination of Gaussian 16 at Wed May  5 21:14:10 2021.
