 Gaussian 16, Revision A.03,
 Gaussian 16:  EM64L-G16RevA.03 25-Dec-2016

 -------------
 #p 6-31g* mp2
 -------------

 ------------------------------------------------------
 Input file generated by CHIRIPA (05-May-2021 14:57:26)
 ------------------------------------------------------
 Symbolic Z-matrix:
 Charge =  0 Multiplicity = 1

                         Standard orientation:
 ---------------------------------------------------------------------
 Center     Atomic      Atomic             Coordinates (Angstroms)
 Number     Number       Type             X           Y           Z
 ---------------------------------------------------------------------
      1          6           0       -1.184403   -1.051716   -0.144373
      2          6           0       -2.233381   -1.864122   -0.587273
      3          6           0       -3.553304   -1.405229   -0.545208
      4          6           0       -3.789219   -0.122908   -0.051969
      5          6           0       -2.765559    0.710284    0.396588
      6          6           0       -1.453365    0.230634    0.345281
      7          1           0       -0.162057   -1.416257   -0.180640
      8          1           0       -2.027466   -2.860445   -0.968043
      9          1           0       -4.384326   -2.013193   -0.881660
     10          1           0       -3.002069    1.698901    0.770910
     11          1           0       -0.640700    0.863758    0.689917
     12          7           0       -5.182471    0.373889   -0.002544
     13          8           0       -5.363934    1.507471    0.436430
     14          8           0       -6.066657   -0.379711   -0.403716
     15          6           0        4.225916   -2.212063    0.344339
     16          6           0        3.195854   -1.673755    1.122619
     17          6           0        2.818281   -0.335925    0.973628
     18          6           0        3.495176    0.438438    0.032637
     19          6           0        4.525426   -0.068866   -0.757629
     20          6           0        4.886250   -1.409316   -0.591651
     21          1           0        4.512718   -3.252338    0.466677
     22          1           0        2.681275   -2.294826    1.850302
     23          1           0        2.024349    0.106427    1.563047
     24          1           0        5.019879    0.575037   -1.474793
     25          1           0        5.686576   -1.824688   -1.197447
     26          7           0        3.104322    1.856125   -0.134085
     27          8           0        3.716292    2.517412   -0.970045
     28          8           0        2.193402    2.279176    0.574356
 ---------------------------------------------------------------------

 SCF Done:  E(RHF) =  -868.338822547     A.U. after   16 cycles
 E2 =    -0.2600224875D+01 EUMP2 =    -0.87093904742250D+03

 The electronic state is 1-A.
 Alpha  occ. eigenvalues --  -20.61894 -20.61840 -20.60571 -20.60559 -15.86903
 Alpha  occ. eigenvalues --  -15.85618 -11.32289 -11.30984 -11.28918 -11.28782
 Alpha  occ. eigenvalues --  -11.28529 -11.27893 -11.27787 -11.27574 -11.27481
 Alpha  occ. eigenvalues --  -11.27306 -11.26632 -11.26450  -1.60921  -1.59643
 Alpha  occ. eigenvalues --   -1.40480  -1.39196  -1.20451  -1.19151  -1.09824
 Alpha  occ. eigenvalues --   -1.08561  -1.05854  -1.04537  -0.96662  -0.95396
 Alpha  occ. eigenvalues --   -0.87238  -0.85946  -0.83494  -0.82210  -0.78557
 Alpha  occ. eigenvalues --   -0.77248  -0.73116  -0.72236  -0.71838  -0.71530
 Alpha  occ. eigenvalues --   -0.70965  -0.70291  -0.66093  -0.65832  -0.64803
 Alpha  occ. eigenvalues --   -0.64532  -0.63186  -0.61861  -0.56307  -0.55130
 Alpha  occ. eigenvalues --   -0.54133  -0.53922  -0.52891  -0.52611  -0.49881
 Alpha  occ. eigenvalues --   -0.49860  -0.48597  -0.48591  -0.45868  -0.44601
 Alpha  occ. eigenvalues --   -0.38402  -0.37465  -0.37166  -0.36138
 Alpha virt. eigenvalues --    0.03912   0.05259   0.10143   0.11482   0.15379
 Alpha virt. eigenvalues --    0.16746   0.19696   0.21827   0.25388   0.26689
 Alpha virt. eigenvalues --    0.27997   0.28898   0.29588   0.30876   0.31935

 Mulliken charges:
               1
     1  C   -0.176622
     2  C   -0.218513
     3  C   -0.171780
     4  C    0.158769
     5  C   -0.171185
     6  C   -0.228649
     7  H    0.221523
     8  H    0.220376
     9  H    0.274432
    10  H    0.278691
    11  H    0.239191
    12  N    0.487940
    13  O   -0.459126
    14  O   -0.461694
    15  C   -0.170635
    16  C   -0.222573
    17  C   -0.179153
    18  C    0.159675
    19  C   -0.169731
    20  C   -0.217712
    21  H    0.229245
    22  H    0.226402
    23  H    0.274248
    24  H    0.279087
    25  H    0.227666
    26  N    0.489517
    27  O   -0.453071
    28  O   -0.466320
 Sum of Mulliken charges =  -0.00000

 Dipole moment (field-independent basis, Debye):
    X=              6.6876    Y=             -6.6245    Z=              0.3476  Tot=              9.4196
 Quadrupole moment (field-independent basis, Debye-Ang):
   XX=           -128.8976   YY=           -105.5272   ZZ=           -102.6086
   XY=             -9.3669   XZ=             -0.0269   YZ=              1.5747

 Normal termination of Gaussian 16 at Thu May  6 09:55:32 2021.
