 Gaussian 16, Revision A.03,
 Gaussian 16:  EM64L-G16RevA.03 25-Dec-2016

 -------------
 #p 6-31g* mp2
 -------------

 ------------------------------------------------------
 Input file generated by CHIRIPA (05-May-2021 14:51:12)
 ------------------------------------------------------
 Symbolic Z-matrix:
 Charge =  0 Multiplicity = 1

                         Standard orientation:
 ---------------------------------------------------------------------
 Center     Atomic      Atomic             Coordinates (Angstroms)
 Number     Number       Type             X           Y           Z
 ---------------------------------------------------------------------
      1          6           0       -2.855342    0.286463    0.018485
      2          6           0       -3.334807   -0.440036   -1.238614
      3          6           0       -4.288340   -1.593954   -0.927098
      4          1           0       -2.357653   -0.433181    0.682837
      5          1           0       -3.727037    0.668052    0.567969
      6          1           0       -2.462394   -0.818945   -1.786282
      7          1           0       -3.831243    0.281458   -1.900137
      8          1           0       -5.176308   -1.228642   -0.401113
      9          1           0       -3.799681   -2.335298   -0.286611
     10          1           0       -4.618700   -2.099356   -1.839946
     11          6           0       -1.901399    1.442588   -0.276632
     12          6           0       -1.421934    2.169087    0.980467
     13          6           0       -0.468401    3.323005    0.668951
     14          1           0       -1.029704    1.060999   -0.826116
     15          1           0       -2.399088    2.162232   -0.940983
     16          1           0       -0.925497    1.447593    1.641990
     17          1           0       -2.294347    2.547996    1.528135
     18          1           0       -0.957059    4.064349    0.028464
     19          1           0        0.419568    2.957693    0.142966
     20          1           0       -0.138041    3.828407    1.581799
     21          6           0        2.708125   -0.213609   -0.096763
     22          6           0        4.139249   -0.402051   -0.601100
     23          6           0        4.785544    0.909133   -1.049316
     24          1           0        2.102786    0.242054   -0.892301
     25          1           0        2.712393    0.498887    0.739734
     26          1           0        4.132460   -1.115035   -1.435499
     27          1           0        4.741206   -0.857493    0.195667
     28          1           0        4.821665    1.623799   -0.220734
     29          1           0        4.209461    1.364793   -1.861167
     30          1           0        5.808143    0.751299   -1.406025
     31          6           0        2.048615   -1.515441    0.354909
     32          6           0        0.617491   -1.327000    0.859247
     33          6           0       -0.028804   -2.638183    1.307462
     34          1           0        2.044348   -2.227937   -0.481588
     35          1           0        2.653954   -1.971105    1.150448
     36          1           0        0.015536   -0.871558    0.062480
     37          1           0        0.624281   -0.614015    1.693646
     38          1           0        0.547279   -3.093844    2.119314
     39          1           0       -0.064925   -3.352850    0.478880
     40          1           0       -1.051401   -2.480350    1.664172
 ---------------------------------------------------------------------

 SCF Done:  E(RHF) =  -470.732078516     A.U. after   11 cycles
 E2 =    -0.1585769493D+01 EUMP2 =    -0.47231784800891D+03

 The electronic state is 1-A.
 Alpha  occ. eigenvalues --  -11.21663 -11.21661 -11.21597 -11.21506 -11.21492
 Alpha  occ. eigenvalues --  -11.21432 -11.21343 -11.21282 -11.21180 -11.21110
 Alpha  occ. eigenvalues --  -11.21060 -11.21001  -1.08561  -1.08354  -1.03616
 Alpha  occ. eigenvalues --   -1.03485  -0.96076  -0.95928  -0.87087  -0.86944
 Alpha  occ. eigenvalues --   -0.79699  -0.79552  -0.78358  -0.78206  -0.65372
 Alpha  occ. eigenvalues --   -0.64892  -0.61070  -0.60826  -0.59423  -0.59306
 Alpha  occ. eigenvalues --   -0.57712  -0.57533  -0.55376  -0.55181  -0.52760
 Alpha  occ. eigenvalues --   -0.52630  -0.52508  -0.52356  -0.50003  -0.49889
 Alpha  occ. eigenvalues --   -0.48053  -0.47817  -0.46911  -0.46447  -0.46113
 Alpha  occ. eigenvalues --   -0.45898  -0.45504  -0.45355  -0.43867  -0.43734
 Alpha virt. eigenvalues --    0.19942   0.22036   0.23555   0.24046   0.25228
 Alpha virt. eigenvalues --    0.26077   0.26990   0.27660   0.28919   0.29883
 Alpha virt. eigenvalues --    0.30141   0.31348   0.31677   0.31964   0.32355

 Mulliken charges:
               1
     1  C   -0.306417
     2  C   -0.299619
     3  C   -0.476299
     4  H    0.157685
     5  H    0.149989
     6  H    0.150821
     7  H    0.152148
     8  H    0.155197
     9  H    0.155794
    10  H    0.160130
    11  C   -0.300694
    12  C   -0.302612
    13  C   -0.477234
    14  H    0.150138
    15  H    0.150133
    16  H    0.156259
    17  H    0.151338
    18  H    0.154763
    19  H    0.156993
    20  H    0.159508
    21  C   -0.300409
    22  C   -0.299678
    23  C   -0.475904
    24  H    0.149734
    25  H    0.150471
    26  H    0.152131
    27  H    0.152316
    28  H    0.155508
    29  H    0.155287
    30  H    0.160538
    31  C   -0.297592
    32  C   -0.309835
    33  C   -0.478745
    34  H    0.149596
    35  H    0.149905
    36  H    0.160890
    37  H    0.154343
    38  H    0.156060
    39  H    0.155692
    40  H    0.161670
 Sum of Mulliken charges =  -0.00000

 Dipole moment (field-independent basis, Debye):
    X=              0.0425    Y=             -0.0313    Z=              0.0172  Tot=              0.0555
 Quadrupole moment (field-independent basis, Debye-Ang):
   XX=            -84.8776   YY=            -85.9416   ZZ=            -84.0079
   XY=             -1.5480   XZ=              0.6393   YZ=              0.4415

 Normal termination of Gaussian 16 at Thu May  6 02:19:56 2021.
