 Gaussian 16, Revision A.03,
 Gaussian 16:  EM64L-G16RevA.03 25-Dec-2016

 -------------
 #p 6-31g* mp2
 -------------

 ------------------------------------------------------
 Input file generated by CHIRIPA (05-May-2021 14:57:23)
 ------------------------------------------------------
 Symbolic Z-matrix:
 Charge =  0 Multiplicity = 1

                         Standard orientation:
 ---------------------------------------------------------------------
 Center     Atomic      Atomic             Coordinates (Angstroms)
 Number     Number       Type             X           Y           Z
 ---------------------------------------------------------------------
      1          6           0        2.355009   -2.089122    0.905360
      2          6           0        2.184735   -0.892360    1.609127
      3          6           0        2.784393    0.287574    1.158891
      4          6           0        3.551161    0.234327   -0.004089
      5          6           0        3.739522   -0.942439   -0.727299
      6          6           0        3.130492   -2.110304   -0.258556
      7          1           0        1.885540   -3.001035    1.262303
      8          1           0        1.583027   -0.872937    2.513348
      9          1           0        2.669084    1.227830    1.684286
     10          1           0        4.345050   -0.930475   -1.625415
     11          1           0        3.264460   -3.038282   -0.807148
     12          7           0        4.190953    1.477082   -0.490531
     13          8           0        4.861650    1.403724   -1.517867
     14          8           0        4.009610    2.500980    0.164744
     15          6           0       -5.529462    1.393008   -0.056741
     16          6           0       -5.514019    0.183610   -0.759336
     17          6           0       -4.365021   -0.612657   -0.776962
     18          6           0       -3.244266   -0.167029   -0.077953
     19          6           0       -3.228532    1.032964    0.631314
     20          6           0       -4.388681    1.813085    0.635121
     21          1           0       -6.426363    2.005296   -0.048417
     22          1           0       -6.398501   -0.145133   -1.297541
     23          1           0       -4.325605   -1.553308   -1.312722
     24          1           0       -2.331405    1.334266    1.158381
     25          1           0       -4.397796    2.751860    1.181621
     26          7           0       -2.021971   -1.001455   -0.089297
     27          8           0       -1.047612   -0.586562    0.534503
     28          8           0       -2.061439   -2.054570   -0.721775
 ---------------------------------------------------------------------

 SCF Done:  E(RHF) =  -868.338835805     A.U. after   16 cycles
 E2 =    -0.2599393457D+01 EUMP2 =    -0.87093822926231D+03

 The electronic state is 1-A.
 Alpha  occ. eigenvalues --  -20.61358 -20.61342 -20.59859 -20.59853 -15.86391
 Alpha  occ. eigenvalues --  -15.84900 -11.31587 -11.29940 -11.28141 -11.28133
 Alpha  occ. eigenvalues --  -11.27839 -11.27110 -11.27099 -11.26487 -11.26448
 Alpha  occ. eigenvalues --  -11.26074 -11.25434 -11.25356  -1.60426  -1.58940
 Alpha  occ. eigenvalues --   -1.39985  -1.38504  -1.19743  -1.18057  -1.09169
 Alpha  occ. eigenvalues --   -1.07497  -1.05121  -1.03431  -0.96034  -0.94402
 Alpha  occ. eigenvalues --   -0.86527  -0.84845  -0.82873  -0.81267  -0.77943
 Alpha  occ. eigenvalues --   -0.76370  -0.72629  -0.71735  -0.71133  -0.70849
 Alpha  occ. eigenvalues --   -0.70257  -0.69170  -0.65400  -0.65121  -0.63722
 Alpha  occ. eigenvalues --   -0.63452  -0.62473  -0.60824  -0.55625  -0.53913
 Alpha  occ. eigenvalues --   -0.53458  -0.53211  -0.51755  -0.51550  -0.49382
 Alpha  occ. eigenvalues --   -0.49336  -0.47902  -0.47856  -0.45427  -0.43985
 Alpha  occ. eigenvalues --   -0.37710  -0.36716  -0.35923  -0.34972
 Alpha virt. eigenvalues --    0.04581   0.06170   0.10941   0.12687   0.16112
 Alpha virt. eigenvalues --    0.17778   0.21101   0.22682   0.27014   0.27930
 Alpha virt. eigenvalues --    0.28548   0.29563   0.30686   0.32093   0.32310

 Mulliken charges:
               1
     1  C   -0.159903
     2  C   -0.198301
     3  C   -0.173436
     4  C    0.157366
     5  C   -0.173029
     6  C   -0.218164
     7  H    0.225495
     8  H    0.220831
     9  H    0.268685
    10  H    0.270738
    11  H    0.219946
    12  N    0.488234
    13  O   -0.464049
    14  O   -0.465343
    15  C   -0.170123
    16  C   -0.218444
    17  C   -0.170593
    18  C    0.157859
    19  C   -0.170288
    20  C   -0.218268
    21  H    0.227267
    22  H    0.224625
    23  H    0.275532
    24  H    0.274253
    25  H    0.225230
    26  N    0.491146
    27  O   -0.465976
    28  O   -0.461288
 Sum of Mulliken charges =  -0.00000

 Dipole moment (field-independent basis, Debye):
    X=             -7.0070    Y=             -1.5800    Z=              1.8315  Tot=              7.4127
 Quadrupole moment (field-independent basis, Debye-Ang):
   XX=            -93.0704   YY=           -105.2082   ZZ=           -101.1769
   XY=            -25.1450   XZ=              6.4435   YZ=              4.5808

 Normal termination of Gaussian 16 at Wed May  5 16:18:54 2021.
