 Gaussian 16, Revision A.03,
 Gaussian 16:  EM64L-G16RevA.03 25-Dec-2016

 -------------
 #p 6-31g* mp2
 -------------

 ------------------------------------------------------
 Input file generated by CHIRIPA (05-May-2021 14:57:21)
 ------------------------------------------------------
 Symbolic Z-matrix:
 Charge =  0 Multiplicity = 1

                         Standard orientation:
 ---------------------------------------------------------------------
 Center     Atomic      Atomic             Coordinates (Angstroms)
 Number     Number       Type             X           Y           Z
 ---------------------------------------------------------------------
      1          6           0       -1.921557    2.168909    0.524344
      2          6           0       -1.914435    1.556513   -0.733209
      3          6           0       -2.710111    0.433948   -0.980789
      4          6           0       -3.504397   -0.051943    0.056664
      5          6           0       -3.533292    0.536073    1.320267
      6          6           0       -2.729538    1.657636    1.545269
      7          1           0       -1.300320    3.040555    0.707901
      8          1           0       -1.287938    1.951400   -1.527949
      9          1           0       -2.723831   -0.059675   -1.944929
     10          1           0       -4.168267    0.119524    2.092738
     11          1           0       -2.737086    2.131184    2.522889
     12          7           0       -4.351019   -1.239821   -0.193486
     13          8           0       -5.041962   -1.648553    0.737198
     14          8           0       -4.307628   -1.739656   -1.315502
     15          6           0        2.681858    2.201549   -0.729243
     16          6           0        1.993047    1.105368   -1.258817
     17          6           0        2.362788   -0.198588   -0.915978
     18          6           0        3.430895   -0.370577   -0.036855
     19          6           0        4.136800    0.701201    0.507459
     20          6           0        3.749654    1.996329    0.150653
     21          1           0        2.387874    3.211064   -1.000994
     22          1           0        1.163391    1.261742   -1.942384
     23          1           0        1.846851   -1.065192   -1.311232
     24          1           0        4.959714    0.513670    1.186475
     25          1           0        4.286409    2.845753    0.563471
     26          7           0        3.831535   -1.746343    0.333486
     27          8           0        4.776024   -1.871145    1.110018
     28          8           0        3.193482   -2.673819   -0.159786
 ---------------------------------------------------------------------

 SCF Done:  E(RHF) =  -868.336181708     A.U. after   16 cycles
 E2 =    -0.2600298812D+01 EUMP2 =    -0.87093648051945D+03

 The electronic state is 1-A.
 Alpha  occ. eigenvalues --  -20.61113 -20.61104 -20.61062 -20.61054 -15.86171
 Alpha  occ. eigenvalues --  -15.86123 -11.31703 -11.31633 -11.28302 -11.28286
 Alpha  occ. eigenvalues --  -11.28285 -11.28198 -11.28151 -11.28051 -11.27443
 Alpha  occ. eigenvalues --  -11.27403 -11.27354 -11.27233  -1.60184  -1.60133
 Alpha  occ. eigenvalues --   -1.39732  -1.39683  -1.19911  -1.19837  -1.09295
 Alpha  occ. eigenvalues --   -1.09206  -1.05352  -1.05268  -0.96089  -0.96013
 Alpha  occ. eigenvalues --   -0.86789  -0.86636  -0.82932  -0.82842  -0.77960
 Alpha  occ. eigenvalues --   -0.77838  -0.72387  -0.72339  -0.71509  -0.71457
 Alpha  occ. eigenvalues --   -0.71050  -0.70953  -0.65610  -0.65565  -0.65499
 Alpha  occ. eigenvalues --   -0.65129  -0.62798  -0.62507  -0.55907  -0.55771
 Alpha  occ. eigenvalues --   -0.53745  -0.53585  -0.53512  -0.53225  -0.49165
 Alpha  occ. eigenvalues --   -0.49129  -0.49106  -0.49083  -0.45100  -0.45057
 Alpha  occ. eigenvalues --   -0.38016  -0.37763  -0.37059  -0.36711
 Alpha virt. eigenvalues --    0.04593   0.04713   0.10354   0.11049   0.15937
 Alpha virt. eigenvalues --    0.16204   0.18741   0.21933   0.24791   0.27106
 Alpha virt. eigenvalues --    0.28057   0.28682   0.29364   0.31503   0.31824

 Mulliken charges:
               1
     1  C   -0.168135
     2  C   -0.218261
     3  C   -0.171592
     4  C    0.159706
     5  C   -0.169024
     6  C   -0.218102
     7  H    0.223049
     8  H    0.213534
     9  H    0.275277
    10  H    0.278091
    11  H    0.225262
    12  N    0.488239
    13  O   -0.458123
    14  O   -0.459573
    15  C   -0.174118
    16  C   -0.217193
    17  C   -0.169168
    18  C    0.159023
    19  C   -0.170234
    20  C   -0.218467
    21  H    0.221753
    22  H    0.216486
    23  H    0.278779
    24  H    0.277415
    25  H    0.224229
    26  N    0.487872
    27  O   -0.459319
    28  O   -0.457405
 Sum of Mulliken charges =  -0.00000

 Dipole moment (field-independent basis, Debye):
    X=              1.5477    Y=              8.8426    Z=             -0.2391  Tot=              8.9802
 Quadrupole moment (field-independent basis, Debye-Ang):
   XX=           -132.3194   YY=           -109.5855   ZZ=            -99.1494
   XY=              3.7615   XZ=             -6.9226   YZ=              2.2799

 Normal termination of Gaussian 16 at Thu May  6 14:28:24 2021.
