 Gaussian 16, Revision A.03,
 Gaussian 16:  EM64L-G16RevA.03 25-Dec-2016

 -------------
 #p 6-31g* mp2
 -------------

 ------------------------------------------------------
 Input file generated by CHIRIPA (05-May-2021 14:53:17)
 ------------------------------------------------------
 Symbolic Z-matrix:
 Charge =  0 Multiplicity = 1

                         Standard orientation:
 ---------------------------------------------------------------------
 Center     Atomic      Atomic             Coordinates (Angstroms)
 Number     Number       Type             X           Y           Z
 ---------------------------------------------------------------------
      1          6           0        4.331608    0.123050    0.215099
      2          6           0        5.599275   -0.607047   -0.229832
      3          6           0        6.826169   -0.217737    0.595374
      4          1           0        4.495562    1.206897    0.142023
      5          1           0        4.145044   -0.094026    1.275980
      6          1           0        5.782625   -0.389768   -1.289921
      7          1           0        5.432218   -1.689284   -0.155869
      8          1           0        6.668422   -0.450429    1.653472
      9          1           0        7.020819    0.856471    0.512977
     10          1           0        7.721103   -0.751360    0.260414
     11          6           0        3.096576   -0.255599   -0.600405
     12          6           0        1.828909    0.474498   -0.155474
     13          6           0        0.602015    0.085189   -0.980679
     14          1           0        3.283139   -0.038523   -1.661285
     15          1           0        2.932621   -1.339446   -0.527328
     16          1           0        1.995965    1.556736   -0.229436
     17          1           0        1.645559    0.257219    0.904615
     18          1           0        0.407365   -0.989020   -0.898282
     19          1           0        0.759762    0.317880   -2.038777
     20          1           0       -0.292920    0.618812   -0.645719
     21          6           0       -2.333472    2.509776    0.187311
     22          6           0       -2.239006    1.751862    1.359132
     23          6           0       -2.551318    0.389169    1.350454
     24          6           0       -2.956562   -0.185854    0.146952
     25          6           0       -3.060508    0.542613   -1.037034
     26          6           0       -2.743199    1.903801   -1.004930
     27          1           0       -2.088920    3.567764    0.203152
     28          1           0       -1.921081    2.219814    2.286488
     29          1           0       -2.486854   -0.221109    2.243104
     30          1           0       -3.380332    0.048139   -1.946224
     31          1           0       -2.817473    2.489940   -1.916504
     32          7           0       -3.289837   -1.627680    0.125364
     33          8           0       -3.644409   -2.110639   -0.947792
     34          8           0       -3.190176   -2.247522    1.182011
 ---------------------------------------------------------------------

 SCF Done:  E(RHF) =  -669.533621926     A.U. after   15 cycles
 E2 =    -0.2094464233D+01 EUMP2 =    -0.67162808615900D+03

 The electronic state is 1-A.
 Alpha  occ. eigenvalues --  -20.60806 -20.60800 -15.85860 -11.31247 -11.27852
 Alpha  occ. eigenvalues --  -11.27802 -11.27595 -11.26895 -11.26837 -11.21639
 Alpha  occ. eigenvalues --  -11.21625 -11.21435 -11.21356 -11.21112 -11.20820
 Alpha  occ. eigenvalues --   -1.59880  -1.39432  -1.19483  -1.08846  -1.08447
 Alpha  occ. eigenvalues --   -1.04868  -1.03530  -0.95976  -0.95663  -0.86998
 Alpha  occ. eigenvalues --   -0.86248  -0.82492  -0.79615  -0.78271  -0.77535
 Alpha  occ. eigenvalues --   -0.72080  -0.71205  -0.70555  -0.65100  -0.65082
 Alpha  occ. eigenvalues --   -0.64854  -0.62200  -0.60936  -0.59522  -0.57709
 Alpha  occ. eigenvalues --   -0.55356  -0.55264  -0.54020  -0.52940  -0.52454
 Alpha  occ. eigenvalues --   -0.51544  -0.49917  -0.48841  -0.48831  -0.47871
 Alpha  occ. eigenvalues --   -0.46652  -0.45807  -0.45742  -0.44832  -0.43710
 Alpha  occ. eigenvalues --   -0.37458  -0.36462
 Alpha virt. eigenvalues --    0.04994   0.11162   0.16470   0.21338   0.22853
 Alpha virt. eigenvalues --    0.24400   0.26590   0.27189   0.27508   0.28091
 Alpha virt. eigenvalues --    0.28271   0.30895   0.31377   0.31847   0.32489

 Mulliken charges:
               1
     1  C   -0.297984
     2  C   -0.299708
     3  C   -0.475659
     4  H    0.147608
     5  H    0.149078
     6  H    0.151765
     7  H    0.153333
     8  H    0.155168
     9  H    0.154224
    10  H    0.160657
    11  C   -0.298594
    12  C   -0.297085
    13  C   -0.485735
    14  H    0.148926
    15  H    0.152375
    16  H    0.146486
    17  H    0.149448
    18  H    0.156630
    19  H    0.150284
    20  H    0.173685
    21  C   -0.172752
    22  C   -0.217093
    23  C   -0.172170
    24  C    0.162888
    25  C   -0.172353
    26  C   -0.218626
    27  H    0.226457
    28  H    0.224519
    29  H    0.276105
    30  H    0.276282
    31  H    0.224338
    32  N    0.488143
    33  O   -0.459997
    34  O   -0.460642
 Sum of Mulliken charges =  -0.00000

 Dipole moment (field-independent basis, Debye):
    X=              1.0277    Y=              5.0774    Z=              0.0897  Tot=              5.1811
 Quadrupole moment (field-independent basis, Debye-Ang):
   XX=           -103.3315   YY=            -96.6626   ZZ=            -89.8358
   XY=            -15.6785   XZ=              0.5587   YZ=             -0.1962

 Normal termination of Gaussian 16 at Wed May  5 20:25:44 2021.
