 Gaussian 16, Revision A.03,
 Gaussian 16:  EM64L-G16RevA.03 25-Dec-2016

 -------------
 #p 6-31g* mp2
 -------------

 ------------------------------------------------------
 Input file generated by CHIRIPA (05-May-2021 14:53:14)
 ------------------------------------------------------
 Symbolic Z-matrix:
 Charge =  0 Multiplicity = 1

                         Standard orientation:
 ---------------------------------------------------------------------
 Center     Atomic      Atomic             Coordinates (Angstroms)
 Number     Number       Type             X           Y           Z
 ---------------------------------------------------------------------
      1          6           0        2.616897    0.971322    0.319165
      2          6           0        2.594943    2.363167   -0.313505
      3          6           0        1.413296    3.209597    0.160901
      4          1           0        1.676258    0.454249    0.085116
      5          1           0        2.653599    1.073736    1.412581
      6          1           0        2.559691    2.258158   -1.405451
      7          1           0        3.535823    2.876915   -0.078084
      8          1           0        1.447051    3.343924    1.246911
      9          1           0        0.465372    2.721651   -0.087999
     10          1           0        1.417064    4.200510   -0.303789
     11          6           0        3.792361    0.113228   -0.145256
     12          6           0        3.814315   -1.278617    0.487413
     13          6           0        4.995962   -2.125047    0.013008
     14          1           0        3.755659    0.010814   -1.238672
     15          1           0        4.733000    0.630301    0.088793
     16          1           0        2.873434   -1.792366    0.251992
     17          1           0        3.849567   -1.173608    1.579359
     18          1           0        5.943885   -1.637101    0.261907
     19          1           0        4.962206   -2.259374   -1.073002
     20          1           0        4.992193   -3.115961    0.477698
     21          6           0       -1.636218   -2.789401   -0.197450
     22          6           0       -2.955268   -2.548272    0.200653
     23          6           0       -3.446567   -1.241560    0.276005
     24          6           0       -2.587473   -0.194940   -0.055412
     25          6           0       -1.268395   -0.402889   -0.455512
     26          6           0       -0.798468   -1.717829   -0.523686
     27          1           0       -1.262866   -3.807682   -0.253197
     28          1           0       -3.608134   -3.378525    0.454602
     29          1           0       -4.463427   -1.026389    0.581148
     30          1           0       -0.641387    0.445229   -0.702444
     31          1           0        0.226374   -1.902107   -0.833177
     32          7           0       -3.096276    1.192773    0.020561
     33          8           0       -2.319320    2.097556   -0.276666
     34          8           0       -4.262398    1.349403    0.375896
 ---------------------------------------------------------------------

 SCF Done:  E(RHF) =  -669.535168973     A.U. after   15 cycles
 E2 =    -0.2093455721D+01 EUMP2 =    -0.67162862469346D+03

 The electronic state is 1-A.
 Alpha  occ. eigenvalues --  -20.60871 -20.60866 -15.85908 -11.31237 -11.27808
 Alpha  occ. eigenvalues --  -11.27795 -11.27544 -11.26818 -11.26807 -11.22232
 Alpha  occ. eigenvalues --  -11.21860 -11.21782 -11.21615 -11.21609 -11.20596
 Alpha  occ. eigenvalues --   -1.59935  -1.39492  -1.19413  -1.08823  -1.08805
 Alpha  occ. eigenvalues --   -1.04816  -1.03778  -0.96187  -0.95654  -0.87196
 Alpha  occ. eigenvalues --   -0.86214  -0.82493  -0.79859  -0.78643  -0.77521
 Alpha  occ. eigenvalues --   -0.72136  -0.71248  -0.70535  -0.65505  -0.65066
 Alpha  occ. eigenvalues --   -0.64834  -0.62181  -0.61151  -0.59609  -0.57795
 Alpha  occ. eigenvalues --   -0.55477  -0.55317  -0.53144  -0.52916  -0.52838
 Alpha  occ. eigenvalues --   -0.52592  -0.50172  -0.48883  -0.48874  -0.48116
 Alpha  occ. eigenvalues --   -0.46909  -0.46122  -0.46050  -0.44877  -0.44050
 Alpha  occ. eigenvalues --   -0.37387  -0.36393
 Alpha virt. eigenvalues --    0.04954   0.11203   0.16360   0.18911   0.22740
 Alpha virt. eigenvalues --    0.23245   0.24978   0.26623   0.27112   0.28130
 Alpha virt. eigenvalues --    0.29544   0.31125   0.31515   0.31630   0.32351

 Mulliken charges:
               1
     1  C   -0.300713
     2  C   -0.301623
     3  C   -0.487240
     4  H    0.138846
     5  H    0.153780
     6  H    0.149671
     7  H    0.152611
     8  H    0.154869
     9  H    0.175135
    10  H    0.162985
    11  C   -0.298485
    12  C   -0.299951
    13  C   -0.475887
    14  H    0.147891
    15  H    0.153515
    16  H    0.142527
    17  H    0.155507
    18  H    0.158386
    19  H    0.154586
    20  H    0.160112
    21  C   -0.170820
    22  C   -0.218760
    23  C   -0.170304
    24  C    0.156660
    25  C   -0.172986
    26  C   -0.223457
    27  H    0.226084
    28  H    0.223726
    29  H    0.275744
    30  H    0.282804
    31  H    0.227697
    32  N    0.491377
    33  O   -0.464945
    34  O   -0.459340
 Sum of Mulliken charges =  -0.00000

 Dipole moment (field-independent basis, Debye):
    X=              1.7503    Y=             -4.7795    Z=             -0.2042  Tot=              5.0940
 Quadrupole moment (field-independent basis, Debye-Ang):
   XX=           -100.0554   YY=            -92.8088   ZZ=            -94.5682
   XY=             15.0292   XZ=             -0.1465   YZ=             -0.1492

 Normal termination of Gaussian 16 at Thu May  6 01:02:09 2021.
