 Gaussian 16, Revision A.03,
 Gaussian 16:  EM64L-G16RevA.03 25-Dec-2016

 -------------
 #p 6-31g* mp2
 -------------

 ------------------------------------------------------
 Input file generated by CHIRIPA (05-May-2021 14:51:07)
 ------------------------------------------------------
 Symbolic Z-matrix:
 Charge =  0 Multiplicity = 1

                         Standard orientation:
 ---------------------------------------------------------------------
 Center     Atomic      Atomic             Coordinates (Angstroms)
 Number     Number       Type             X           Y           Z
 ---------------------------------------------------------------------
      1          6           0        2.888273   -0.700674    0.041591
      2          6           0        2.123166   -1.469840    1.119079
      3          6           0        2.037189   -2.968257    0.827278
      4          1           0        2.399873   -0.859110   -0.929650
      5          1           0        3.901447   -1.116750   -0.046463
      6          1           0        1.112189   -1.051534    1.206040
      7          1           0        2.613331   -1.309399    2.087899
      8          1           0        3.038526   -3.405909    0.761049
      9          1           0        1.528855   -3.146578   -0.125821
     10          1           0        1.486179   -3.498745    1.610113
     11          6           0        2.982728    0.798572    0.319200
     12          6           0        3.747835    1.567737   -0.758288
     13          6           0        3.833811    3.066154   -0.466486
     14          1           0        1.969554    1.214647    0.407254
     15          1           0        3.471127    0.957008    1.290442
     16          1           0        3.257669    1.407297   -1.727108
     17          1           0        4.758812    1.149431   -0.845248
     18          1           0        4.342146    3.244476    0.486613
     19          1           0        2.832474    3.503806   -0.400257
     20          1           0        4.384822    3.596643   -1.249321
     21          6           0       -2.471123   -0.469658   -0.617190
     22          6           0       -2.512372   -1.961502   -0.284493
     23          6           0       -1.578043   -2.789989   -1.166782
     24          1           0       -2.740342   -0.328331   -1.672886
     25          1           0       -1.440719   -0.104617   -0.505816
     26          1           0       -3.542648   -2.323314   -0.395123
     27          1           0       -2.243211   -2.099277    0.770583
     28          1           0       -0.541743   -2.456822   -1.049814
     29          1           0       -1.848564   -2.682131   -2.222143
     30          1           0       -1.623340   -3.853403   -0.911912
     31          6           0       -3.399877    0.371761    0.256399
     32          6           0       -3.358629    1.863604   -0.076298
     33          6           0       -4.292957    2.692091    0.805990
     34          1           0       -4.430283    0.006719    0.145023
     35          1           0       -3.130659    0.230434    1.312095
     36          1           0       -3.627790    2.001380   -1.131375
     37          1           0       -2.328353    2.225417    0.034332
     38          1           0       -4.022437    2.584233    1.861352
     39          1           0       -5.329258    2.358924    0.689022
     40          1           0       -4.247660    3.755506    0.551121
 ---------------------------------------------------------------------

 SCF Done:  E(RHF) =  -470.733206410     A.U. after   11 cycles
 E2 =    -0.1583163071D+01 EUMP2 =    -0.47231636948039D+03

 The electronic state is 1-A.
 Alpha  occ. eigenvalues --  -11.21649 -11.21638 -11.21632 -11.21624 -11.21451
 Alpha  occ. eigenvalues --  -11.21447 -11.21390 -11.21388 -11.21095 -11.21089
 Alpha  occ. eigenvalues --  -11.21077 -11.21050  -1.08483  -1.08453  -1.03593
 Alpha  occ. eigenvalues --   -1.03526  -0.96052  -0.95962  -0.87076  -0.86972
 Alpha  occ. eigenvalues --   -0.79660  -0.79584  -0.78284  -0.78279  -0.65240
 Alpha  occ. eigenvalues --   -0.64979  -0.61209  -0.60727  -0.59387  -0.59359
 Alpha  occ. eigenvalues --   -0.57653  -0.57584  -0.55567  -0.55041  -0.52720
 Alpha  occ. eigenvalues --   -0.52677  -0.52487  -0.52369  -0.50178  -0.49713
 Alpha  occ. eigenvalues --   -0.48020  -0.47857  -0.46761  -0.46524  -0.45916
 Alpha  occ. eigenvalues --   -0.45792  -0.45737  -0.45660  -0.43824  -0.43805
 Alpha virt. eigenvalues --    0.19322   0.23266   0.23461   0.25252   0.25532
 Alpha virt. eigenvalues --    0.26297   0.27018   0.27833   0.28965   0.29078
 Alpha virt. eigenvalues --    0.30455   0.31255   0.31451   0.31963   0.32157

 Mulliken charges:
               1
     1  C   -0.298838
     2  C   -0.301846
     3  C   -0.479192
     4  H    0.149615
     5  H    0.150063
     6  H    0.152144
     7  H    0.152403
     8  H    0.155228
     9  H    0.159774
    10  H    0.160201
    11  C   -0.298264
    12  C   -0.299737
    13  C   -0.475731
    14  H    0.148860
    15  H    0.149845
    16  H    0.152253
    17  H    0.152070
    18  H    0.155179
    19  H    0.155173
    20  H    0.160418
    21  C   -0.299637
    22  C   -0.299480
    23  C   -0.480677
    24  H    0.149868
    25  H    0.149370
    26  H    0.152168
    27  H    0.152390
    28  H    0.160222
    29  H    0.154904
    30  H    0.160810
    31  C   -0.298320
    32  C   -0.299557
    33  C   -0.475748
    34  H    0.149799
    35  H    0.149798
    36  H    0.152017
    37  H    0.151466
    38  H    0.155334
    39  H    0.155286
    40  H    0.160368
 Sum of Mulliken charges =  -0.00000

 Dipole moment (field-independent basis, Debye):
    X=             -0.0007    Y=             -0.0129    Z=             -0.0041  Tot=              0.0136
 Quadrupole moment (field-independent basis, Debye-Ang):
   XX=            -83.7542   YY=            -86.4484   ZZ=            -84.3812
   XY=              0.2696   XZ=              1.2925   YZ=             -0.4694

 Normal termination of Gaussian 16 at Wed May  5 15:01:16 2021.
