 Gaussian 16, Revision A.03,
 Gaussian 16:  EM64L-G16RevA.03 25-Dec-2016

 -------------
 #p 6-31g* mp2
 -------------

 ------------------------------------------------------
 Input file generated by CHIRIPA (05-May-2021 14:53:13)
 ------------------------------------------------------
 Symbolic Z-matrix:
 Charge =  0 Multiplicity = 1

                         Standard orientation:
 ---------------------------------------------------------------------
 Center     Atomic      Atomic             Coordinates (Angstroms)
 Number     Number       Type             X           Y           Z
 ---------------------------------------------------------------------
      1          6           0       -3.794416    0.845951   -0.394974
      2          6           0       -2.833469    1.881739    0.189585
      3          6           0       -3.113167    3.298076   -0.313957
      4          1           0       -3.724168    0.867481   -1.491125
      5          1           0       -4.825632    1.128990   -0.142231
      6          1           0       -1.804287    1.596085   -0.063007
      7          1           0       -2.905873    1.857607    1.284478
      8          1           0       -4.129287    3.607564   -0.048783
      9          1           0       -3.021443    3.344556   -1.403924
     10          1           0       -2.414681    4.022439    0.116479
     11          6           0       -3.527481   -0.574779    0.098987
     12          6           0       -4.488428   -1.610567   -0.485572
     13          6           0       -4.208730   -3.026904    0.017969
     14          1           0       -2.496266   -0.857818   -0.153756
     15          1           0       -3.597729   -0.596309    1.195137
     16          1           0       -4.416025   -1.586435   -1.580466
     17          1           0       -5.517610   -1.324913   -0.232981
     18          1           0       -4.300454   -3.073384    1.107936
     19          1           0       -3.192610   -3.336392   -0.247205
     20          1           0       -4.907217   -3.751267   -0.412466
     21          6           0        0.581751    0.018319    1.192440
     22          6           0        0.695774   -0.030851   -0.200795
     23          6           0        1.953047   -0.099840   -0.808290
     24          6           0        3.080380   -0.117938    0.011517
     25          6           0        2.999485   -0.070149    1.402367
     26          6           0        1.731944   -0.001452    1.988171
     27          1           0       -0.398917    0.071797    1.655932
     28          1           0       -0.195758   -0.015645   -0.821267
     29          1           0        2.070180   -0.138965   -1.884471
     30          1           0        3.906366   -0.086866    1.994571
     31          1           0        1.646418    0.036623    3.070428
     32          7           0        4.416835   -0.190819   -0.620129
     33          8           0        5.394685   -0.205448    0.124338
     34          8           0        4.461191   -0.231933   -1.847720
 ---------------------------------------------------------------------

 SCF Done:  E(RHF) =  -669.534796198     A.U. after   15 cycles
 E2 =    -0.2093125785D+01 EUMP2 =    -0.67162792198306D+03

 The electronic state is 1-A.
 Alpha  occ. eigenvalues --  -20.60737 -20.60732 -15.85792 -11.31149 -11.27731
 Alpha  occ. eigenvalues --  -11.27727 -11.27409 -11.26713 -11.26698 -11.22728
 Alpha  occ. eigenvalues --  -11.22601 -11.22483 -11.22424 -11.21914 -11.21817
 Alpha  occ. eigenvalues --   -1.59814  -1.39367  -1.19324  -1.09512  -1.08708
 Alpha  occ. eigenvalues --   -1.04734  -1.04477  -0.96908  -0.95548  -0.87920
 Alpha  occ. eigenvalues --   -0.86140  -0.82383  -0.80572  -0.79374  -0.77437
 Alpha  occ. eigenvalues --   -0.72010  -0.71137  -0.70406  -0.66252  -0.64967
 Alpha  occ. eigenvalues --   -0.64681  -0.62132  -0.61823  -0.60274  -0.58533
 Alpha  occ. eigenvalues --   -0.56195  -0.55201  -0.53563  -0.53344  -0.53041
 Alpha  occ. eigenvalues --   -0.52834  -0.50852  -0.48868  -0.48775  -0.48764
 Alpha  occ. eigenvalues --   -0.47610  -0.46828  -0.46763  -0.44775  -0.44763
 Alpha  occ. eigenvalues --   -0.37269  -0.36331
 Alpha virt. eigenvalues --    0.05098   0.11136   0.16592   0.19313   0.22635
 Alpha virt. eigenvalues --    0.23551   0.24497   0.25231   0.27053   0.28097
 Alpha virt. eigenvalues --    0.29967   0.30553   0.30922   0.31391   0.31617

 Mulliken charges:
               1
     1  C   -0.298540
     2  C   -0.308489
     3  C   -0.475410
     4  H    0.151420
     5  H    0.154550
     6  H    0.149821
     7  H    0.150365
     8  H    0.158174
     9  H    0.157411
    10  H    0.163637
    11  C   -0.304710
    12  C   -0.299870
    13  C   -0.476746
    14  H    0.143667
    15  H    0.149278
    16  H    0.154078
    17  H    0.155406
    18  H    0.155549
    19  H    0.155851
    20  H    0.164009
    21  C   -0.171418
    22  C   -0.223695
    23  C   -0.171486
    24  C    0.158135
    25  C   -0.170576
    26  C   -0.219684
    27  H    0.231336
    28  H    0.226606
    29  H    0.275468
    30  H    0.275500
    31  H    0.223380
    32  N    0.488072
    33  O   -0.460496
    34  O   -0.460595
 Sum of Mulliken charges =  -0.00000

 Dipole moment (field-independent basis, Debye):
    X=             -4.9350    Y=              0.2813    Z=              2.2084  Tot=              5.4139
 Quadrupole moment (field-independent basis, Debye-Ang):
   XX=           -122.0673   YY=            -96.3002   ZZ=            -90.1283
   XY=              1.3585   XZ=              8.7253   YZ=              0.1987

 Normal termination of Gaussian 16 at Thu May  6 15:23:27 2021.
