 Gaussian 16, Revision A.03,
 Gaussian 16:  EM64L-G16RevA.03 25-Dec-2016

 -------------
 #p 6-31g* mp2
 -------------

 ------------------------------------------------------
 Input file generated by CHIRIPA (05-May-2021 14:55:20)
 ------------------------------------------------------
 Symbolic Z-matrix:
 Charge =  0 Multiplicity = 1

                         Standard orientation:
 ---------------------------------------------------------------------
 Center     Atomic      Atomic             Coordinates (Angstroms)
 Number     Number       Type             X           Y           Z
 ---------------------------------------------------------------------
      1          6           0       -3.485990    0.952593   -1.607137
      2          6           0       -2.557249   -0.016829   -1.999799
      3          6           0       -1.815791   -0.718001   -1.044213
      4          6           0       -2.029442   -0.423018    0.301383
      5          6           0       -2.947416    0.537150    0.724102
      6          6           0       -3.677771    1.226006   -0.248834
      7          1           0       -4.057660    1.492497   -2.356198
      8          1           0       -2.406222   -0.231253   -3.053961
      9          1           0       -1.090303   -1.473516   -1.320403
     10          1           0       -3.075966    0.728898    1.782462
     11          1           0       -4.398363    1.978346    0.059026
     12          7           0       -1.250370   -1.158799    1.322204
     13          8           0       -1.457171   -0.880345    2.501328
     14          8           0       -0.447684   -2.000026    0.923869
     15          6           0        2.998207    1.109516   -0.237749
     16          6           0        2.128616    2.105338    0.530456
     17          6           0        2.613768    3.548100    0.386026
     18          1           0        4.034672    1.186712    0.118235
     19          1           0        3.011150    1.388331   -1.300523
     20          1           0        2.116198    1.823921    1.591242
     21          1           0        1.094063    2.025627    0.172736
     22          1           0        2.609392    3.852556   -0.665586
     23          1           0        3.637334    3.649703    0.760978
     24          1           0        1.977833    4.243167    0.943098
     25          6           0        2.525870   -0.337029   -0.103089
     26          6           0        3.395459   -1.332851   -0.871293
     27          6           0        2.910308   -2.775613   -0.726864
     28          1           0        2.512926   -0.615844    0.959685
     29          1           0        1.489404   -0.414225   -0.459073
     30          1           0        4.430013   -1.253140   -0.513574
     31          1           0        3.407878   -1.051434   -1.932079
     32          1           0        1.886742   -2.877216   -1.101816
     33          1           0        2.914683   -3.080069    0.324749
     34          1           0        3.546242   -3.470680   -1.283935
 ---------------------------------------------------------------------

 SCF Done:  E(RHF) =  -669.535722854     A.U. after   15 cycles
 E2 =    -0.2093205049D+01 EUMP2 =    -0.67162892790249D+03

 The electronic state is 1-A.
 Alpha  occ. eigenvalues --  -20.60902 -20.60874 -15.85909 -11.31299 -11.27865
 Alpha  occ. eigenvalues --  -11.27845 -11.27589 -11.26872 -11.26860 -11.21229
 Alpha  occ. eigenvalues --  -11.20934 -11.20879 -11.20830 -11.20554 -11.20183
 Alpha  occ. eigenvalues --   -1.59944  -1.39501  -1.19460  -1.08851  -1.07847
 Alpha  occ. eigenvalues --   -1.04863  -1.02969  -0.95687  -0.95400  -0.86413
 Alpha  occ. eigenvalues --   -0.86259  -0.82523  -0.79055  -0.77751  -0.77440
 Alpha  occ. eigenvalues --   -0.72136  -0.71248  -0.70564  -0.65115  -0.64874
 Alpha  occ. eigenvalues --   -0.64486  -0.62212  -0.60382  -0.58785  -0.57000
 Alpha  occ. eigenvalues --   -0.55359  -0.54691  -0.53188  -0.52954  -0.52134
 Alpha  occ. eigenvalues --   -0.51801  -0.49342  -0.48927  -0.48901  -0.47355
 Alpha  occ. eigenvalues --   -0.46100  -0.45555  -0.45065  -0.44425  -0.43212
 Alpha  occ. eigenvalues --   -0.37429  -0.36458
 Alpha virt. eigenvalues --    0.04942   0.11092   0.16426   0.20791   0.23140
 Alpha virt. eigenvalues --    0.24243   0.26224   0.27500   0.27652   0.28089
 Alpha virt. eigenvalues --    0.29044   0.30602   0.31513   0.32192   0.32426

 Mulliken charges:
               1
     1  C   -0.170654
     2  C   -0.219083
     3  C   -0.172717
     4  C    0.159590
     5  C   -0.170784
     6  C   -0.218347
     7  H    0.226055
     8  H    0.223998
     9  H    0.276456
    10  H    0.276018
    11  H    0.223952
    12  N    0.489485
    13  O   -0.459576
    14  O   -0.458869
    15  C   -0.297961
    16  C   -0.300086
    17  C   -0.474926
    18  H    0.148744
    19  H    0.144387
    20  H    0.156693
    21  H    0.147254
    22  H    0.152521
    23  H    0.155640
    24  H    0.158249
    25  C   -0.297706
    26  C   -0.301183
    27  C   -0.472237
    28  H    0.160247
    29  H    0.147025
    30  H    0.149867
    31  H    0.144631
    32  H    0.155624
    33  H    0.164352
    34  H    0.153342
 Sum of Mulliken charges =  -0.00000

 Dipole moment (field-independent basis, Debye):
    X=             -2.9007    Y=              2.4641    Z=             -3.4074  Tot=              5.1085
 Quadrupole moment (field-independent basis, Debye-Ang):
   XX=            -83.1074   YY=            -97.6385   ZZ=            -93.9973
   XY=             -6.1668   XZ=              5.7436   YZ=              4.1301

 Normal termination of Gaussian 16 at Thu May  6 10:51:37 2021.
