 Gaussian 16, Revision A.03,
 Gaussian 16:  EM64L-G16RevA.03 25-Dec-2016

 -------------
 #p 6-31g* mp2
 -------------

 ------------------------------------------------------
 Input file generated by CHIRIPA (05-May-2021 14:55:20)
 ------------------------------------------------------
 Symbolic Z-matrix:
 Charge =  0 Multiplicity = 1

                         Standard orientation:
 ---------------------------------------------------------------------
 Center     Atomic      Atomic             Coordinates (Angstroms)
 Number     Number       Type             X           Y           Z
 ---------------------------------------------------------------------
      1          6           0        4.159221    1.253625    0.791093
      2          6           0        2.800927    1.581918    0.729607
      3          6           0        1.863473    0.645051    0.284625
      4          6           0        2.321280   -0.616392   -0.092819
      5          6           0        3.667836   -0.973577   -0.042842
      6          6           0        4.587585   -0.020828    0.405352
      7          1           0        4.880582    1.987574    1.138013
      8          1           0        2.465385    2.570904    1.028541
      9          1           0        0.805973    0.872647    0.227068
     10          1           0        3.972092   -1.967562   -0.347539
     11          1           0        5.641831   -0.278568    0.452060
     12          7           0        1.338211   -1.616617   -0.565602
     13          8           0        1.767061   -2.721100   -0.892471
     14          8           0        0.157446   -1.277173   -0.600348
     15          6           0       -3.454937    0.108374    0.554383
     16          6           0       -4.209306   -1.090495   -0.021489
     17          6           0       -4.756084   -2.020746    1.061775
     18          1           0       -2.628008   -0.253269    1.180760
     19          1           0       -4.126423    0.671135    1.217559
     20          1           0       -3.537010   -1.650046   -0.684464
     21          1           0       -5.034417   -0.725955   -0.646722
     22          1           0       -5.447859   -1.482968    1.718161
     23          1           0       -3.941944   -2.412309    1.680204
     24          1           0       -5.291689   -2.870930    0.627986
     25          6           0       -2.902316    1.047576   -0.516242
     26          6           0       -2.147948    2.246444    0.059630
     27          6           0       -1.601169    3.176694   -1.023634
     28          1           0       -2.230830    0.484815   -1.179418
     29          1           0       -3.729245    1.409217   -1.142619
     30          1           0       -1.322835    1.881904    0.684863
     31          1           0       -2.820244    2.805995    0.722605
     32          1           0       -2.415309    3.568258   -1.642063
     33          1           0       -0.909393    2.638917   -1.680020
     34          1           0       -1.065564    4.026879   -0.589846
 ---------------------------------------------------------------------

 SCF Done:  E(RHF) =  -669.536084077     A.U. after   15 cycles
 E2 =    -0.2092458264D+01 EUMP2 =    -0.67162854234120D+03

 The electronic state is 1-A.
 Alpha  occ. eigenvalues --  -20.60960 -20.60946 -15.85993 -11.31269 -11.27834
 Alpha  occ. eigenvalues --  -11.27806 -11.27564 -11.26836 -11.26818 -11.21598
 Alpha  occ. eigenvalues --  -11.21188 -11.20742 -11.20707 -11.20614 -11.20302
 Alpha  occ. eigenvalues --   -1.60018  -1.39575  -1.19438  -1.08850  -1.07874
 Alpha  occ. eigenvalues --   -1.04828  -1.03091  -0.95699  -0.95520  -0.86557
 Alpha  occ. eigenvalues --   -0.86233  -0.82534  -0.79187  -0.77612  -0.77596
 Alpha  occ. eigenvalues --   -0.72226  -0.71331  -0.70558  -0.65103  -0.64903
 Alpha  occ. eigenvalues --   -0.64428  -0.62196  -0.60448  -0.58958  -0.57122
 Alpha  occ. eigenvalues --   -0.55343  -0.54778  -0.53163  -0.52920  -0.52298
 Alpha  occ. eigenvalues --   -0.51951  -0.49492  -0.48971  -0.48962  -0.47491
 Alpha  occ. eigenvalues --   -0.46200  -0.45190  -0.45119  -0.44850  -0.43282
 Alpha  occ. eigenvalues --   -0.37418  -0.36426
 Alpha virt. eigenvalues --    0.04914   0.11209   0.16423   0.19627   0.23104
 Alpha virt. eigenvalues --    0.24491   0.26485   0.27372   0.27966   0.28476
 Alpha virt. eigenvalues --    0.29567   0.30723   0.31524   0.31934   0.32378

 Mulliken charges:
               1
     1  C   -0.170328
     2  C   -0.222280
     3  C   -0.180960
     4  C    0.157239
     5  C   -0.169800
     6  C   -0.219075
     7  H    0.226029
     8  H    0.224489
     9  H    0.291576
    10  H    0.275686
    11  H    0.223760
    12  N    0.490543
    13  O   -0.458790
    14  O   -0.466017
    15  C   -0.296571
    16  C   -0.302297
    17  C   -0.475686
    18  H    0.154472
    19  H    0.143254
    20  H    0.165799
    21  H    0.147328
    22  H    0.150702
    23  H    0.157278
    24  H    0.159103
    25  C   -0.304178
    26  C   -0.301686
    27  C   -0.478336
    28  H    0.169847
    29  H    0.146511
    30  H    0.140193
    31  H    0.153003
    32  H    0.159172
    33  H    0.156316
    34  H    0.153704
 Sum of Mulliken charges =  -0.00000

 Dipole moment (field-independent basis, Debye):
    X=              3.5592    Y=              3.3429    Z=              1.5459  Tot=              5.1218
 Quadrupole moment (field-independent basis, Debye-Ang):
   XX=            -75.9915   YY=            -97.9092   ZZ=            -96.3022
   XY=              2.7695   XZ=              3.7799   YZ=             -0.2702

 Normal termination of Gaussian 16 at Thu May  6 20:41:12 2021.
