 Gaussian 16, Revision A.03,
 Gaussian 16:  EM64L-G16RevA.03 25-Dec-2016

 -------------
 #p 6-31g* mp2
 -------------

 ------------------------------------------------------
 Input file generated by CHIRIPA (05-May-2021 14:51:11)
 ------------------------------------------------------
 Symbolic Z-matrix:
 Charge =  0 Multiplicity = 1

                         Standard orientation:
 ---------------------------------------------------------------------
 Center     Atomic      Atomic             Coordinates (Angstroms)
 Number     Number       Type             X           Y           Z
 ---------------------------------------------------------------------
      1          6           0        2.070904    0.178927    0.903383
      2          6           0        1.144339   -0.971478    1.298391
      3          6           0       -0.002803   -0.522312    2.203991
      4          1           0        2.479059    0.641290    1.812545
      5          1           0        1.483320    0.955571    0.394499
      6          1           0        1.733744   -1.746341    1.805150
      7          1           0        0.738493   -1.431278    0.388178
      8          1           0       -0.615298    0.234439    1.703212
      9          1           0        0.385608   -0.082414    3.128235
     10          1           0       -0.652773   -1.360408    2.474166
     11          6           0        3.222631   -0.254337   -0.001900
     12          6           0        4.149196    0.896068   -0.396909
     13          6           0        5.296338    0.446902   -1.302508
     14          1           0        3.810215   -1.030981    0.506983
     15          1           0        2.814476   -0.716700   -0.911062
     16          1           0        4.555042    1.355868    0.513304
     17          1           0        3.559791    1.670931   -0.903668
     18          1           0        4.907927    0.007004   -2.226753
     19          1           0        5.908833   -0.309848   -0.801729
     20          1           0        5.946308    1.284998   -1.572683
     21          6           0       -3.012566    0.624119   -0.125561
     22          6           0       -2.510154    1.988999   -0.597441
     23          6           0       -3.251668    3.152205    0.062031
     24          1           0       -4.087480    0.542864   -0.337464
     25          1           0       -2.903275    0.558221    0.965818
     26          1           0       -2.619077    2.051774   -1.687767
     27          1           0       -1.436271    2.066939   -0.384564
     28          1           0       -3.132873    3.117593    1.149823
     29          1           0       -4.322401    3.102341   -0.160785
     30          1           0       -2.876595    4.118389   -0.289635
     31          6           0       -2.280969   -0.548709   -0.775921
     32          6           0       -2.783381   -1.913589   -0.304041
     33          6           0       -2.041867   -3.076795   -0.963514
     34          1           0       -2.390261   -0.482811   -1.867300
     35          1           0       -1.206056   -0.467454   -0.564018
     36          1           0       -3.857263   -1.991529   -0.516918
     37          1           0       -2.674457   -1.976364    0.786285
     38          1           0       -0.971135   -3.026932   -0.740697
     39          1           0       -2.160661   -3.042183   -2.051305
     40          1           0       -2.416941   -4.042979   -0.611847
 ---------------------------------------------------------------------

 SCF Done:  E(RHF) =  -470.731486798     A.U. after   11 cycles
 E2 =    -0.1586098479D+01 EUMP2 =    -0.47231758527737D+03

 The electronic state is 1-A.
 Alpha  occ. eigenvalues --  -11.21680 -11.21645 -11.21633 -11.21564 -11.21477
 Alpha  occ. eigenvalues --  -11.21407 -11.21369 -11.21299 -11.21124 -11.21091
 Alpha  occ. eigenvalues --  -11.21089 -11.21064  -1.08557  -1.08384  -1.03628
 Alpha  occ. eigenvalues --   -1.03508  -0.96088  -0.95944  -0.87068  -0.86996
 Alpha  occ. eigenvalues --   -0.79697  -0.79581  -0.78345  -0.78213  -0.65677
 Alpha  occ. eigenvalues --   -0.64720  -0.61169  -0.60759  -0.59382  -0.59338
 Alpha  occ. eigenvalues --   -0.57649  -0.57593  -0.55625  -0.54959  -0.52758
 Alpha  occ. eigenvalues --   -0.52663  -0.52487  -0.52378  -0.49977  -0.49938
 Alpha  occ. eigenvalues --   -0.48036  -0.47939  -0.46838  -0.46544  -0.46044
 Alpha  occ. eigenvalues --   -0.45816  -0.45635  -0.45392  -0.43818  -0.43775
 Alpha virt. eigenvalues --    0.19485   0.22449   0.23076   0.24661   0.25502
 Alpha virt. eigenvalues --    0.26122   0.26727   0.28262   0.28855   0.29488
 Alpha virt. eigenvalues --    0.30240   0.30698   0.31697   0.32098   0.32396

 Mulliken charges:
               1
     1  C   -0.300298
     2  C   -0.307833
     3  C   -0.483324
     4  H    0.150429
     5  H    0.150188
     6  H    0.153531
     7  H    0.157353
     8  H    0.162255
     9  H    0.155903
    10  H    0.161621
    11  C   -0.298317
    12  C   -0.299765
    13  C   -0.475787
    14  H    0.149828
    15  H    0.149938
    16  H    0.151993
    17  H    0.152151
    18  H    0.155397
    19  H    0.155226
    20  H    0.160393
    21  C   -0.302329
    22  C   -0.302200
    23  C   -0.475524
    24  H    0.150847
    25  H    0.152218
    26  H    0.152411
    27  H    0.151862
    28  H    0.155473
    29  H    0.155480
    30  H    0.160282
    31  C   -0.304733
    32  C   -0.301309
    33  C   -0.479804
    34  H    0.149428
    35  H    0.156673
    36  H    0.151968
    37  H    0.154770
    38  H    0.158176
    39  H    0.155094
    40  H    0.160334
 Sum of Mulliken charges =  -0.00000

 Dipole moment (field-independent basis, Debye):
    X=              0.0159    Y=              0.0004    Z=              0.0210  Tot=              0.0264
 Quadrupole moment (field-independent basis, Debye-Ang):
   XX=            -84.8955   YY=            -85.7089   ZZ=            -84.1253
   XY=              0.4410   XZ=              1.6899   YZ=             -0.6437

 Normal termination of Gaussian 16 at Thu May  6 05:25:57 2021.
