 Gaussian 16, Revision A.03,
 Gaussian 16:  EM64L-G16RevA.03 25-Dec-2016

 -------------
 #p 6-31g* mp2
 -------------

 ------------------------------------------------------
 Input file generated by CHIRIPA (05-May-2021 14:57:22)
 ------------------------------------------------------
 Symbolic Z-matrix:
 Charge =  0 Multiplicity = 1

                         Standard orientation:
 ---------------------------------------------------------------------
 Center     Atomic      Atomic             Coordinates (Angstroms)
 Number     Number       Type             X           Y           Z
 ---------------------------------------------------------------------
      1          6           0       -2.551230    1.786511   -1.041200
      2          6           0       -2.147434    0.460789   -0.851649
      3          6           0       -3.052599   -0.497426   -0.385765
      4          6           0       -4.359677   -0.093367   -0.118233
      5          6           0       -4.792270    1.219718   -0.297008
      6          6           0       -3.870035    2.161084   -0.763763
      7          1           0       -1.841446    2.524331   -1.403448
      8          1           0       -1.123869    0.167036   -1.066289
      9          1           0       -2.766711   -1.530607   -0.230128
     10          1           0       -5.819314    1.482469   -0.074386
     11          1           0       -4.186429    3.189940   -0.910039
     12          7           0       -5.326971   -1.098868    0.375439
     13          8           0       -6.472848   -0.717498    0.603823
     14          8           0       -4.920942   -2.249309    0.524646
     15          6           0        2.033685    0.456769    1.379397
     16          6           0        2.030579   -0.356743    0.241544
     17          6           0        3.225056   -0.656527   -0.420197
     18          6           0        4.409711   -0.123505    0.085537
     19          6           0        4.445425    0.690112    1.216927
     20          6           0        3.238974    0.976684    1.862605
     21          1           0        1.101137    0.684516    1.887215
     22          1           0        1.096035   -0.761906   -0.135969
     23          1           0        3.251432   -1.283591   -1.303098
     24          1           0        5.392815    1.079361    1.569565
     25          1           0        3.244403    1.608754    2.746066
     26          7           0        5.680589   -0.433879   -0.606515
     27          8           0        6.710941    0.048072   -0.140966
     28          8           0        5.622288   -1.153223   -1.601393
 ---------------------------------------------------------------------

 SCF Done:  E(RHF) =  -868.336931618     A.U. after   16 cycles
 E2 =    -0.2599447164D+01 EUMP2 =    -0.87093637878237D+03

 The electronic state is 1-A.
 Alpha  occ. eigenvalues --  -20.61353 -20.61345 -20.61232 -20.61226 -15.86413
 Alpha  occ. eigenvalues --  -15.86293 -11.31899 -11.31769 -11.28548 -11.28462
 Alpha  occ. eigenvalues --  -11.28410 -11.28345 -11.28259 -11.28149 -11.27624
 Alpha  occ. eigenvalues --  -11.27510 -11.27471 -11.27354  -1.60426  -1.60306
 Alpha  occ. eigenvalues --   -1.39976  -1.39856  -1.20097  -1.19973  -1.09463
 Alpha  occ. eigenvalues --   -1.09345  -1.05534  -1.05402  -0.96272  -0.96153
 Alpha  occ. eigenvalues --   -0.86936  -0.86784  -0.83118  -0.82988  -0.78160
 Alpha  occ. eigenvalues --   -0.78005  -0.72626  -0.72507  -0.71753  -0.71632
 Alpha  occ. eigenvalues --   -0.71184  -0.71065  -0.65751  -0.65728  -0.65621
 Alpha  occ. eigenvalues --   -0.65289  -0.62957  -0.62663  -0.56006  -0.55883
 Alpha  occ. eigenvalues --   -0.53846  -0.53768  -0.53687  -0.53385  -0.49397
 Alpha  occ. eigenvalues --   -0.49374  -0.49275  -0.49254  -0.45355  -0.45237
 Alpha  occ. eigenvalues --   -0.38078  -0.37955  -0.37146  -0.37009
 Alpha virt. eigenvalues --    0.04412   0.04540   0.10433   0.10616   0.15827
 Alpha virt. eigenvalues --    0.15971   0.18425   0.21786   0.24526   0.27578
 Alpha virt. eigenvalues --    0.27701   0.28374   0.29575   0.31468   0.31694

 Mulliken charges:
               1
     1  C   -0.171590
     2  C   -0.225003
     3  C   -0.171779
     4  C    0.158874
     5  C   -0.169761
     6  C   -0.218591
     7  H    0.228499
     8  H    0.219805
     9  H    0.274816
    10  H    0.278012
    11  H    0.226104
    12  N    0.488053
    13  O   -0.458253
    14  O   -0.459684
    15  C   -0.171991
    16  C   -0.223419
    17  C   -0.170262
    18  C    0.158794
    19  C   -0.169662
    20  C   -0.218718
    21  H    0.227850
    22  H    0.217808
    23  H    0.276792
    24  H    0.277700
    25  H    0.225728
    26  N    0.488017
    27  O   -0.458715
    28  O   -0.459424
 Sum of Mulliken charges =  -0.00000

 Dipole moment (field-independent basis, Debye):
    X=             -1.0876    Y=              4.7428    Z=              0.7594  Tot=              4.9248
 Quadrupole moment (field-independent basis, Debye-Ang):
   XX=           -169.3596   YY=           -102.4328   ZZ=           -102.8340
   XY=            -11.9103   XZ=             19.6020   YZ=              1.8193

 Normal termination of Gaussian 16 at Thu May  6 06:34:18 2021.
