 Gaussian 16, Revision A.03,
 Gaussian 16:  EM64L-G16RevA.03 25-Dec-2016

 -------------
 #p 6-31g* mp2
 -------------

 ------------------------------------------------------
 Input file generated by CHIRIPA (05-May-2021 14:51:10)
 ------------------------------------------------------
 Symbolic Z-matrix:
 Charge =  0 Multiplicity = 1

                         Standard orientation:
 ---------------------------------------------------------------------
 Center     Atomic      Atomic             Coordinates (Angstroms)
 Number     Number       Type             X           Y           Z
 ---------------------------------------------------------------------
      1          6           0        3.856042   -0.221289   -0.167234
      2          6           0        2.964146   -1.351458    0.347766
      3          6           0        1.480073   -1.104160    0.075432
      4          1           0        3.548067    0.723101    0.302045
      5          1           0        3.695719   -0.100365   -1.247544
      6          1           0        3.127125   -1.471135    1.426529
      7          1           0        3.274404   -2.293300   -0.122649
      8          1           0        1.296761   -1.006129   -0.999457
      9          1           0        1.148644   -0.179293    0.558523
     10          1           0        0.860730   -1.924293    0.451805
     11          6           0        5.342457   -0.454022    0.097592
     12          6           0        6.234354    0.676147   -0.417409
     13          6           0        7.718426    0.428849   -0.145075
     14          1           0        5.502781   -0.574946    1.177901
     15          1           0        5.650433   -1.398412   -0.371687
     16          1           0        5.924095    1.617989    0.053006
     17          1           0        6.071375    0.795824   -1.496172
     18          1           0        8.049855   -0.496018   -0.628166
     19          1           0        7.901739    0.330818    0.929814
     20          1           0        8.337769    1.248982   -0.521448
     21          6           0       -3.898635    0.302409    0.337028
     22          6           0       -3.009532    1.483370   -0.053881
     23          6           0       -1.611079    1.398602    0.558441
     24          1           0       -3.978246    0.258209    1.431859
     25          1           0       -3.414931   -0.632172    0.020824
     26          1           0       -3.495421    2.415526    0.261734
     27          1           0       -2.932184    1.524878   -1.147915
     28          1           0       -1.103169    0.484664    0.233873
     29          1           0       -1.669607    1.380373    1.651531
     30          1           0       -0.992332    2.252711    0.266022
     31          6           0       -5.299864    0.372902   -0.267386
     32          6           0       -6.188968   -0.808059    0.123524
     33          6           0       -7.587420   -0.723292   -0.488799
     34          1           0       -5.783568    1.307482    0.048819
     35          1           0       -5.220253    0.417102   -1.362215
     36          1           0       -6.266317   -0.849566    1.217558
     37          1           0       -5.703078   -1.740215   -0.192090
     38          1           0       -7.528892   -0.705062   -1.581887
     39          1           0       -8.095330    0.190647   -0.164229
     40          1           0       -8.206168   -1.577400   -0.196379
 ---------------------------------------------------------------------

 SCF Done:  E(RHF) =  -470.732966141     A.U. after   11 cycles
 E2 =    -0.1582373623D+01 EUMP2 =    -0.47231533976405D+03

 The electronic state is 1-A.
 Alpha  occ. eigenvalues --  -11.21590 -11.21576 -11.21576 -11.21539 -11.21387
 Alpha  occ. eigenvalues --  -11.21365 -11.21328 -11.21304 -11.21062 -11.21051
 Alpha  occ. eigenvalues --  -11.21021 -11.20947  -1.08414  -1.08385  -1.03527
 Alpha  occ. eigenvalues --   -1.03469  -0.96010  -0.95892  -0.87067  -0.86876
 Alpha  occ. eigenvalues --   -0.79662  -0.79473  -0.78237  -0.78186  -0.65052
 Alpha  occ. eigenvalues --   -0.65010  -0.60969  -0.60833  -0.59344  -0.59289
 Alpha  occ. eigenvalues --   -0.57632  -0.57504  -0.55381  -0.55119  -0.52738
 Alpha  occ. eigenvalues --   -0.52645  -0.52488  -0.52189  -0.50038  -0.49730
 Alpha  occ. eigenvalues --   -0.48008  -0.47737  -0.46677  -0.46483  -0.45811
 Alpha  occ. eigenvalues --   -0.45717  -0.45690  -0.45591  -0.43766  -0.43737
 Alpha virt. eigenvalues --    0.22786   0.22887   0.23851   0.24549   0.26216
 Alpha virt. eigenvalues --    0.26583   0.26946   0.27517   0.27723   0.28987
 Alpha virt. eigenvalues --    0.30653   0.30856   0.31674   0.31845   0.32192

 Mulliken charges:
               1
     1  C   -0.298378
     2  C   -0.300251
     3  C   -0.479938
     4  H    0.149955
     5  H    0.149377
     6  H    0.151978
     7  H    0.151560
     8  H    0.154390
     9  H    0.161720
    10  H    0.159620
    11  C   -0.298274
    12  C   -0.299628
    13  C   -0.475694
    14  H    0.149530
    15  H    0.149582
    16  H    0.151967
    17  H    0.151871
    18  H    0.155143
    19  H    0.155182
    20  H    0.160212
    21  C   -0.298371
    22  C   -0.299624
    23  C   -0.482579
    24  H    0.149438
    25  H    0.149762
    26  H    0.151354
    27  H    0.151716
    28  H    0.165470
    29  H    0.154112
    30  H    0.159139
    31  C   -0.298239
    32  C   -0.299615
    33  C   -0.475676
    34  H    0.149430
    35  H    0.149572
    36  H    0.151862
    37  H    0.151895
    38  H    0.155139
    39  H    0.155135
    40  H    0.160154
 Sum of Mulliken charges =  -0.00000

 Dipole moment (field-independent basis, Debye):
    X=              0.0165    Y=             -0.0066    Z=              0.0030  Tot=              0.0180
 Quadrupole moment (field-independent basis, Debye-Ang):
   XX=            -87.1983   YY=            -84.3951   ZZ=            -83.4445
   XY=             -0.1828   XZ=             -0.8454   YZ=              0.8392

 Normal termination of Gaussian 16 at Wed May  5 21:24:51 2021.
