 Gaussian 16, Revision A.03,
 Gaussian 16:  EM64L-G16RevA.03 25-Dec-2016

 -------------
 #p 6-31g* mp2
 -------------

 ------------------------------------------------------
 Input file generated by CHIRIPA (05-May-2021 14:51:09)
 ------------------------------------------------------
 Symbolic Z-matrix:
 Charge =  0 Multiplicity = 1

                         Standard orientation:
 ---------------------------------------------------------------------
 Center     Atomic      Atomic             Coordinates (Angstroms)
 Number     Number       Type             X           Y           Z
 ---------------------------------------------------------------------
      1          6           0       -4.021443    0.790680   -0.243634
      2          6           0       -3.639831    2.138044    0.370342
      3          6           0       -4.345758    3.315539   -0.302687
      4          1           0       -3.779192    0.801427   -1.315149
      5          1           0       -5.109688    0.657362   -0.170532
      6          1           0       -2.552469    2.268168    0.297349
      7          1           0       -3.882842    2.124021    1.440560
      8          1           0       -5.432422    3.212861   -0.217724
      9          1           0       -4.094490    3.357826   -1.367430
     10          1           0       -4.058497    4.268838    0.151804
     11          6           0       -3.323827   -0.396154    0.418546
     12          6           0       -3.705439   -1.743518   -0.195431
     13          6           0       -2.999512   -2.921013    0.477598
     14          1           0       -2.235582   -0.262836    0.345444
     15          1           0       -3.566078   -0.406901    1.490061
     16          1           0       -3.462428   -1.729495   -1.265648
     17          1           0       -4.792801   -1.873641   -0.122438
     18          1           0       -3.250780   -2.963300    1.542341
     19          1           0       -1.912848   -2.818335    0.392635
     20          1           0       -3.286773   -3.874312    0.023108
     21          6           0        3.337860   -0.883755   -0.096761
     22          6           0        1.840047   -0.823917   -0.398356
     23          6           0        1.184442   -2.205129   -0.413523
     24          1           0        3.831360   -1.517238   -0.846496
     25          1           0        3.489834   -1.373479    0.875077
     26          1           0        1.690867   -0.333209   -1.368700
     27          1           0        1.350085   -0.190348    0.352073
     28          1           0        1.303834   -2.698900    0.556291
     29          1           0        1.646552   -2.842572   -1.174259
     30          1           0        0.113847   -2.138989   -0.631034
     31          6           0        4.007409    0.489229   -0.078151
     32          6           0        5.505223    0.429391    0.223445
     33          6           0        6.160828    1.810603    0.238611
     34          1           0        3.855437    0.978953   -1.049989
     35          1           0        3.513910    1.122712    0.671585
     36          1           0        5.995185   -0.204178   -0.526983
     37          1           0        5.654403   -0.061317    1.193788
     38          1           0        5.698718    2.448046    0.999348
     39          1           0        6.041436    2.304374   -0.731203
     40          1           0        7.231423    1.744463    0.456123
 ---------------------------------------------------------------------

 SCF Done:  E(RHF) =  -470.733282681     A.U. after   11 cycles
 E2 =    -0.1582555509D+01 EUMP2 =    -0.47231583818958D+03

 The electronic state is 1-A.
 Alpha  occ. eigenvalues --  -11.21666 -11.21624 -11.21593 -11.21581 -11.21442
 Alpha  occ. eigenvalues --  -11.21395 -11.21381 -11.21336 -11.21133 -11.21088
 Alpha  occ. eigenvalues --  -11.21064 -11.20993  -1.08470  -1.08416  -1.03579
 Alpha  occ. eigenvalues --   -1.03505  -0.96037  -0.95945  -0.87065  -0.86951
 Alpha  occ. eigenvalues --   -0.79654  -0.79554  -0.78280  -0.78230  -0.65105
 Alpha  occ. eigenvalues --   -0.65050  -0.61000  -0.60924  -0.59433  -0.59286
 Alpha  occ. eigenvalues --   -0.57670  -0.57534  -0.55333  -0.55234  -0.52782
 Alpha  occ. eigenvalues --   -0.52648  -0.52460  -0.52315  -0.49992  -0.49853
 Alpha  occ. eigenvalues --   -0.47988  -0.47848  -0.46675  -0.46587  -0.45827
 Alpha  occ. eigenvalues --   -0.45768  -0.45747  -0.45688  -0.43798  -0.43761
 Alpha virt. eigenvalues --    0.20752   0.23059   0.23642   0.24909   0.26195
 Alpha virt. eigenvalues --    0.26705   0.27148   0.27279   0.28080   0.28923
 Alpha virt. eigenvalues --    0.30601   0.31364   0.31686   0.31734   0.31938

 Mulliken charges:
               1
     1  C   -0.298174
     2  C   -0.299714
     3  C   -0.475690
     4  H    0.149637
     5  H    0.149568
     6  H    0.152070
     7  H    0.151837
     8  H    0.155154
     9  H    0.155196
    10  H    0.160213
    11  C   -0.299778
    12  C   -0.299459
    13  C   -0.482543
    14  H    0.150306
    15  H    0.149701
    16  H    0.151438
    17  H    0.151995
    18  H    0.154918
    19  H    0.162140
    20  H    0.160144
    21  C   -0.298580
    22  C   -0.299869
    23  C   -0.481927
    24  H    0.149858
    25  H    0.149846
    26  H    0.151800
    27  H    0.152203
    28  H    0.156030
    29  H    0.155842
    30  H    0.165514
    31  C   -0.298338
    32  C   -0.299686
    33  C   -0.475734
    34  H    0.149502
    35  H    0.149761
    36  H    0.151992
    37  H    0.152045
    38  H    0.155242
    39  H    0.155188
    40  H    0.160350
 Sum of Mulliken charges =  -0.00000

 Dipole moment (field-independent basis, Debye):
    X=              0.0361    Y=             -0.0040    Z=              0.0004  Tot=              0.0364
 Quadrupole moment (field-independent basis, Debye-Ang):
   XX=            -84.7442   YY=            -86.5533   ZZ=            -83.4644
   XY=             -0.1718   XZ=             -0.9196   YZ=              0.3604

 Normal termination of Gaussian 16 at Wed May  5 16:38:28 2021.
