 Gaussian 16, Revision A.03,
 Gaussian 16:  EM64L-G16RevA.03 25-Dec-2016

 -------------
 #p 6-31g* mp2
 -------------

 ------------------------------------------------------
 Input file generated by CHIRIPA (05-May-2021 14:55:24)
 ------------------------------------------------------
 Symbolic Z-matrix:
 Charge =  0 Multiplicity = 1

                         Standard orientation:
 ---------------------------------------------------------------------
 Center     Atomic      Atomic             Coordinates (Angstroms)
 Number     Number       Type             X           Y           Z
 ---------------------------------------------------------------------
      1          6           0       -4.356679    0.894213   -0.004202
      2          6           0       -3.788651    0.475100   -1.211765
      3          6           0       -2.618170   -0.289414   -1.218265
      4          6           0       -2.039642   -0.618239    0.006672
      5          6           0       -2.581531   -0.215708    1.226350
      6          6           0       -3.752372    0.548082    1.208863
      7          1           0       -5.266076    1.487825   -0.008470
      8          1           0       -4.255785    0.742427   -2.155358
      9          1           0       -2.157200   -0.627150   -2.138514
     10          1           0       -2.092910   -0.497820    2.151056
     11          1           0       -4.191285    0.872180    2.148203
     12          7           0       -0.800316   -1.427212    0.012488
     13          8           0       -0.310016   -1.703714    1.105095
     14          8           0       -0.342700   -1.769464   -1.075670
     15          6           0        2.711260    1.264920   -0.384798
     16          6           0        2.374250    2.438763    0.535258
     17          6           0        2.054591    3.720490   -0.234669
     18          1           0        3.566976    1.537271   -1.017664
     19          1           0        1.865613    1.085131   -1.062995
     20          1           0        3.219729    2.615397    1.212446
     21          1           0        1.519358    2.163515    1.166141
     22          1           0        1.197233    3.567679   -0.898135
     23          1           0        2.907264    4.022129   -0.851568
     24          1           0        1.816565    4.546769    0.442433
     25          6           0        3.033119   -0.023550    0.370172
     26          6           0        3.370128   -1.197393   -0.549884
     27          6           0        3.689786   -2.479120    0.220043
     28          1           0        3.878765    0.156239    1.048369
     29          1           0        2.177402   -0.295901    1.003038
     30          1           0        4.225020   -0.922145   -1.180768
     31          1           0        2.524650   -1.374028   -1.227072
     32          1           0        2.837114   -2.780759    0.836941
     33          1           0        4.547145   -2.326309    0.883509
     34          1           0        3.927814   -3.305399   -0.457059
 ---------------------------------------------------------------------

 SCF Done:  E(RHF) =  -669.537109344     A.U. after   15 cycles
 E2 =    -0.2093147056D+01 EUMP2 =    -0.67163025640007D+03

 The electronic state is 1-A.
 Alpha  occ. eigenvalues --  -20.61248 -20.61243 -15.86225 -11.31450 -11.27994
 Alpha  occ. eigenvalues --  -11.27990 -11.27712 -11.26975 -11.26965 -11.20974
 Alpha  occ. eigenvalues --  -11.20668 -11.20425 -11.19905 -11.19819 -11.19324
 Alpha  occ. eigenvalues --   -1.60271  -1.39832  -1.19602  -1.09027  -1.07282
 Alpha  occ. eigenvalues --   -1.04981  -1.02352  -0.95883  -0.94848  -0.86387
 Alpha  occ. eigenvalues --   -0.85874  -0.82722  -0.78530  -0.77790  -0.76970
 Alpha  occ. eigenvalues --   -0.72438  -0.71586  -0.70709  -0.65258  -0.64987
 Alpha  occ. eigenvalues --   -0.63901  -0.62328  -0.59733  -0.58315  -0.56427
 Alpha  occ. eigenvalues --   -0.55487  -0.54133  -0.53316  -0.53071  -0.51601
 Alpha  occ. eigenvalues --   -0.51262  -0.49238  -0.49219  -0.48768  -0.46810
 Alpha  occ. eigenvalues --   -0.45579  -0.45492  -0.44503  -0.44034  -0.42612
 Alpha  occ. eigenvalues --   -0.37571  -0.36575
 Alpha virt. eigenvalues --    0.04674   0.11077   0.16154   0.21200   0.23771
 Alpha virt. eigenvalues --    0.25636   0.27152   0.27581   0.28364   0.28603
 Alpha virt. eigenvalues --    0.29028   0.30903   0.32278   0.32570   0.32673

 Mulliken charges:
               1
     1  C   -0.170090
     2  C   -0.218539
     3  C   -0.170675
     4  C    0.158351
     5  C   -0.170585
     6  C   -0.218493
     7  H    0.226717
     8  H    0.224499
     9  H    0.276152
    10  H    0.276168
    11  H    0.224513
    12  N    0.488855
    13  O   -0.458402
    14  O   -0.457729
    15  C   -0.298408
    16  C   -0.298038
    17  C   -0.474432
    18  H    0.146595
    19  H    0.147433
    20  H    0.151169
    21  H    0.148274
    22  H    0.151694
    23  H    0.154903
    24  H    0.156537
    25  C   -0.306311
    26  C   -0.303350
    27  C   -0.478709
    28  H    0.142353
    29  H    0.165442
    30  H    0.140941
    31  H    0.171911
    32  H    0.171478
    33  H    0.145299
    34  H    0.154477
 Sum of Mulliken charges =  -0.00000

 Dipole moment (field-independent basis, Debye):
    X=             -4.8006    Y=              2.6418    Z=             -0.0109  Tot=              5.4795
 Quadrupole moment (field-independent basis, Debye-Ang):
   XX=            -77.8467   YY=           -100.5174   ZZ=            -89.8792
   XY=             -2.9071   XZ=              0.0584   YZ=              0.6237

 Normal termination of Gaussian 16 at Wed May  5 22:21:59 2021.
