 Gaussian 16, Revision A.03,
 Gaussian 16:  EM64L-G16RevA.03 25-Dec-2016

 -------------
 #p 6-31g* mp2
 -------------

 ------------------------------------------------------
 Input file generated by CHIRIPA (05-May-2021 14:53:14)
 ------------------------------------------------------
 Symbolic Z-matrix:
 Charge =  0 Multiplicity = 1

                         Standard orientation:
 ---------------------------------------------------------------------
 Center     Atomic      Atomic             Coordinates (Angstroms)
 Number     Number       Type             X           Y           Z
 ---------------------------------------------------------------------
      1          6           0        5.087132   -0.204356   -0.446858
      2          6           0        5.798381   -1.331440    0.302671
      3          6           0        6.923554   -1.966894   -0.514627
      4          1           0        4.680885   -0.598143   -1.388580
      5          1           0        5.822072    0.565120   -0.721021
      6          1           0        5.062081   -2.097905    0.576550
      7          1           0        6.202817   -0.934968    1.242808
      8          1           0        7.679452   -1.219279   -0.775951
      9          1           0        6.532235   -2.388823   -1.445995
     10          1           0        7.418421   -2.770142    0.040133
     11          6           0        3.959773    0.440817    0.357220
     12          6           0        3.248525    1.567900   -0.392309
     13          6           0        2.123352    2.203355    0.424990
     14          1           0        3.224834   -0.328660    0.631384
     15          1           0        4.366021    0.834603    1.298942
     16          1           0        2.844089    1.171429   -1.332446
     17          1           0        3.984825    2.334365   -0.666187
     18          1           0        2.514671    2.625283    1.356358
     19          1           0        1.367454    1.455739    0.686314
     20          1           0        1.628485    3.006603   -0.129771
     21          6           0       -1.664685    1.582478    0.293230
     22          6           0       -2.825771    1.931378   -0.404388
     23          6           0       -3.867868    1.011433   -0.553664
     24          6           0       -3.714661   -0.254285    0.010051
     25          6           0       -2.570176   -0.631825    0.710700
     26          6           0       -1.540812    0.304244    0.847570
     27          1           0       -0.860106    2.303376    0.404373
     28          1           0       -2.924728    2.923349   -0.835951
     29          1           0       -4.777624    1.255137   -1.088800
     30          1           0       -2.500562   -1.628291    1.129781
     31          1           0       -0.640238    0.030516    1.389866
     32          7           0       -4.811142   -1.236724   -0.141414
     33          8           0       -4.651657   -2.345391    0.364610
     34          8           0       -5.809287   -0.879492   -0.763289
 ---------------------------------------------------------------------

 SCF Done:  E(RHF) =  -669.534817095     A.U. after   15 cycles
 E2 =    -0.2091745449D+01 EUMP2 =    -0.67162656254340D+03

 The electronic state is 1-A.
 Alpha  occ. eigenvalues --  -20.60714 -20.60709 -15.85768 -11.31113 -11.27700
 Alpha  occ. eigenvalues --  -11.27690 -11.27336 -11.26687 -11.26670 -11.22587
 Alpha  occ. eigenvalues --  -11.22458 -11.22206 -11.22107 -11.21985 -11.21469
 Alpha  occ. eigenvalues --   -1.59790  -1.39344  -1.19287  -1.09189  -1.08677
 Alpha  occ. eigenvalues --   -1.04696  -1.04328  -0.96822  -0.95512  -0.87850
 Alpha  occ. eigenvalues --   -0.86091  -0.82356  -0.80415  -0.78949  -0.77412
 Alpha  occ. eigenvalues --   -0.71987  -0.71114  -0.70400  -0.65825  -0.64940
 Alpha  occ. eigenvalues --   -0.64724  -0.62091  -0.61676  -0.60227  -0.58382
 Alpha  occ. eigenvalues --   -0.56169  -0.55161  -0.53451  -0.53246  -0.53011
 Alpha  occ. eigenvalues --   -0.52778  -0.50721  -0.48762  -0.48742  -0.48694
 Alpha  occ. eigenvalues --   -0.47406  -0.46503  -0.46391  -0.44755  -0.44564
 Alpha  occ. eigenvalues --   -0.37243  -0.36306
 Alpha virt. eigenvalues --    0.05130   0.11301   0.16617   0.20153   0.22425
 Alpha virt. eigenvalues --    0.23863   0.24966   0.26287   0.26381   0.27527
 Alpha virt. eigenvalues --    0.29131   0.29386   0.31062   0.31347   0.32013

 Mulliken charges:
               1
     1  C   -0.299111
     2  C   -0.300215
     3  C   -0.476181
     4  H    0.151406
     5  H    0.151000
     6  H    0.152321
     7  H    0.152463
     8  H    0.155826
     9  H    0.156269
    10  H    0.161911
    11  C   -0.298932
    12  C   -0.299486
    13  C   -0.483431
    14  H    0.147372
    15  H    0.151016
    16  H    0.155506
    17  H    0.155950
    18  H    0.160541
    19  H    0.149519
    20  H    0.158110
    21  C   -0.173506
    22  C   -0.220494
    23  C   -0.170615
    24  C    0.157890
    25  C   -0.170816
    26  C   -0.223737
    27  H    0.235146
    28  H    0.223166
    29  H    0.275264
    30  H    0.275236
    31  H    0.223917
    32  N    0.488102
    33  O   -0.460764
    34  O   -0.460643
 Sum of Mulliken charges =  -0.00000

 Dipole moment (field-independent basis, Debye):
    X=              4.1400    Y=              3.4755    Z=              0.4901  Tot=              5.4276
 Quadrupole moment (field-independent basis, Debye-Ang):
   XX=           -121.9689   YY=            -94.4035   ZZ=            -94.1256
   XY=            -15.0626   XZ=              0.1891   YZ=             -2.1392

 Normal termination of Gaussian 16 at Wed May  5 17:07:17 2021.
