 Gaussian 16, Revision A.03,
 Gaussian 16:  EM64L-G16RevA.03 25-Dec-2016

 -------------
 #p 6-31g* mp2
 -------------

 ------------------------------------------------------
 Input file generated by CHIRIPA (05-May-2021 14:51:12)
 ------------------------------------------------------
 Symbolic Z-matrix:
 Charge =  0 Multiplicity = 1

                         Standard orientation:
 ---------------------------------------------------------------------
 Center     Atomic      Atomic             Coordinates (Angstroms)
 Number     Number       Type             X           Y           Z
 ---------------------------------------------------------------------
      1          6           0        2.723037   -1.439507   -0.251561
      2          6           0        1.265987   -1.581684    0.189771
      3          6           0        0.623793   -2.879769   -0.300490
      4          1           0        2.773352   -1.483812   -1.348124
      5          1           0        3.297661   -2.298094    0.122647
      6          1           0        0.694570   -0.722380   -0.183986
      7          1           0        1.219114   -1.536843    1.285403
      8          1           0        1.168650   -3.748181    0.083690
      9          1           0        0.641125   -2.929090   -1.394047
     10          1           0       -0.417592   -2.960874    0.026310
     11          6           0        3.378772   -0.146833    0.230866
     12          6           0        4.835822   -0.004656   -0.210466
     13          6           0        5.478016    1.293429    0.279795
     14          1           0        2.804148    0.711754   -0.143342
     15          1           0        3.328458   -0.102528    1.327429
     16          1           0        4.882695   -0.049497   -1.306098
     17          1           0        5.407239   -0.863961    0.163291
     18          1           0        5.460684    1.342749    1.373353
     19          1           0        4.933159    2.161841   -0.104385
     20          1           0        6.519401    1.374534   -0.047005
     21          6           0       -3.289597    0.129008    0.302488
     22          6           0       -4.624722   -0.342419   -0.274730
     23          6           0       -5.089021   -1.672479    0.319541
     24          1           0       -2.527029   -0.640969    0.122008
     25          1           0       -3.383462    0.226422    1.392945
     26          1           0       -4.528768   -0.437585   -1.363928
     27          1           0       -5.384155    0.428854   -0.093024
     28          1           0       -5.212702   -1.587611    1.404023
     29          1           0       -4.352454   -2.458972    0.125898
     30          1           0       -6.045326   -1.990783   -0.107101
     31          6           0       -2.812213    1.457333   -0.281793
     32          6           0       -1.477086    1.928758    0.295425
     33          6           0       -1.012788    3.258819   -0.298846
     34          1           0       -2.718347    1.359917   -1.372249
     35          1           0       -3.574780    2.227309   -0.101313
     36          1           0       -0.717653    1.157487    0.113719
     37          1           0       -1.573041    2.023926    1.384623
     38          1           0       -1.749355    4.045312   -0.105204
     39          1           0       -0.889108    3.173950   -1.383329
     40          1           0       -0.056482    3.577123    0.127796
 ---------------------------------------------------------------------

 SCF Done:  E(RHF) =  -470.733356518     A.U. after   11 cycles
 E2 =    -0.1583216769D+01 EUMP2 =    -0.47231657328705D+03

 The electronic state is 1-A.
 Alpha  occ. eigenvalues --  -11.21636 -11.21617 -11.21599 -11.21570 -11.21432
 Alpha  occ. eigenvalues --  -11.21401 -11.21372 -11.21342 -11.21131 -11.21080
 Alpha  occ. eigenvalues --  -11.21077 -11.21072  -1.08467  -1.08420  -1.03567
 Alpha  occ. eigenvalues --   -1.03522  -0.96011  -0.95976  -0.87032  -0.86988
 Alpha  occ. eigenvalues --   -0.79684  -0.79540  -0.78336  -0.78173  -0.65181
 Alpha  occ. eigenvalues --   -0.64983  -0.61042  -0.60852  -0.59393  -0.59332
 Alpha  occ. eigenvalues --   -0.57633  -0.57576  -0.55299  -0.55263  -0.52713
 Alpha  occ. eigenvalues --   -0.52666  -0.52461  -0.52378  -0.49998  -0.49890
 Alpha  occ. eigenvalues --   -0.48114  -0.47797  -0.46874  -0.46491  -0.46002
 Alpha  occ. eigenvalues --   -0.45776  -0.45739  -0.45322  -0.43814  -0.43779
 Alpha virt. eigenvalues --    0.20427   0.22900   0.23634   0.24082   0.25718
 Alpha virt. eigenvalues --    0.26824   0.27025   0.27285   0.27930   0.29238
 Alpha virt. eigenvalues --    0.30334   0.31554   0.31706   0.31809   0.32479

 Mulliken charges:
               1
     1  C   -0.297669
     2  C   -0.308217
     3  C   -0.476746
     4  H    0.149419
     5  H    0.149765
     6  H    0.159599
     7  H    0.152663
     8  H    0.155756
     9  H    0.154988
    10  H    0.160864
    11  C   -0.298705
    12  C   -0.299656
    13  C   -0.475754
    14  H    0.149607
    15  H    0.149866
    16  H    0.151949
    17  H    0.152018
    18  H    0.155213
    19  H    0.155294
    20  H    0.160313
    21  C   -0.300898
    22  C   -0.299588
    23  C   -0.475689
    24  H    0.151849
    25  H    0.149625
    26  H    0.151957
    27  H    0.152023
    28  H    0.155189
    29  H    0.154962
    30  H    0.160333
    31  C   -0.297565
    32  C   -0.308774
    33  C   -0.475359
    34  H    0.149020
    35  H    0.149715
    36  H    0.160377
    37  H    0.152153
    38  H    0.155340
    39  H    0.154546
    40  H    0.160220
 Sum of Mulliken charges =  -0.00000

 Dipole moment (field-independent basis, Debye):
    X=              0.0169    Y=             -0.0092    Z=              0.0123  Tot=              0.0229
 Quadrupole moment (field-independent basis, Debye-Ang):
   XX=            -85.0194   YY=            -86.0485   ZZ=            -83.6794
   XY=             -1.4003   XZ=             -0.1203   YZ=              0.0388

 Normal termination of Gaussian 16 at Thu May  6 00:44:42 2021.
