 Gaussian 16, Revision A.03,
 Gaussian 16:  EM64L-G16RevA.03 25-Dec-2016

 -------------
 #p 6-31g* mp2
 -------------

 ------------------------------------------------------
 Input file generated by CHIRIPA (05-May-2021 14:57:26)
 ------------------------------------------------------
 Symbolic Z-matrix:
 Charge =  0 Multiplicity = 1

                         Standard orientation:
 ---------------------------------------------------------------------
 Center     Atomic      Atomic             Coordinates (Angstroms)
 Number     Number       Type             X           Y           Z
 ---------------------------------------------------------------------
      1          6           0       -1.839338    0.869803    0.468421
      2          6           0       -2.328017   -0.248008    1.152682
      3          6           0       -3.617748   -0.725940    0.902237
      4          6           0       -4.395143   -0.058831   -0.043233
      5          6           0       -3.936662    1.057325   -0.741289
      6          6           0       -2.643802    1.517759   -0.474718
      7          1           0       -0.836228    1.234275    0.669237
      8          1           0       -1.705490   -0.753211    1.885672
      9          1           0       -4.021129   -1.589147    1.417577
     10          1           0       -4.580728    1.539950   -1.466321
     11          1           0       -2.266914    2.386092   -1.007632
     12          7           0       -5.762180   -0.555534   -0.316905
     13          8           0       -6.427226    0.049908   -1.154634
     14          8           0       -6.142733   -1.540887    0.311504
     15          6           0        3.256105    2.278428    0.482171
     16          6           0        4.460854    2.135768   -0.214069
     17          6           0        4.976566    0.865477   -0.487838
     18          6           0        4.258175   -0.245528   -0.048667
     19          6           0        3.055227   -0.136059    0.647194
     20          6           0        2.558367    1.144059    0.909827
     21          1           0        2.862810    3.269038    0.690514
     22          1           0        5.004874    3.014959   -0.547403
     23          1           0        5.906924    0.726210   -1.024920
     24          1           0        2.535548   -1.031186    0.966724
     25          1           0        1.622500    1.251830    1.450737
     26          7           0        4.794157   -1.595531   -0.332598
     27          8           0        4.142151   -2.558535    0.065081
     28          8           0        5.856118   -1.665096   -0.947446
 ---------------------------------------------------------------------

 SCF Done:  E(RHF) =  -868.336429323     A.U. after   16 cycles
 E2 =    -0.2599635884D+01 EUMP2 =    -0.87093606520686D+03

 The electronic state is 1-A.
 Alpha  occ. eigenvalues --  -20.61389 -20.61381 -20.61069 -20.61064 -15.86451
 Alpha  occ. eigenvalues --  -15.86127 -11.31975 -11.31612 -11.28649 -11.28546
 Alpha  occ. eigenvalues --  -11.28394 -11.28188 -11.28185 -11.28080 -11.27768
 Alpha  occ. eigenvalues --  -11.27566 -11.27289 -11.27272  -1.60460  -1.60141
 Alpha  occ. eigenvalues --   -1.40009  -1.39691  -1.20187  -1.19809  -1.09553
 Alpha  occ. eigenvalues --   -1.09208  -1.05630  -1.05225  -0.96353  -0.96019
 Alpha  occ. eigenvalues --   -0.87024  -0.86634  -0.83198  -0.82838  -0.78212
 Alpha  occ. eigenvalues --   -0.77842  -0.72665  -0.72345  -0.71786  -0.71465
 Alpha  occ. eigenvalues --   -0.71294  -0.71006  -0.65847  -0.65675  -0.65474
 Alpha  occ. eigenvalues --   -0.65241  -0.62984  -0.62565  -0.56154  -0.55817
 Alpha  occ. eigenvalues --   -0.53923  -0.53714  -0.53549  -0.53332  -0.49437
 Alpha  occ. eigenvalues --   -0.49409  -0.49114  -0.49090  -0.45379  -0.45070
 Alpha  occ. eigenvalues --   -0.38173  -0.37831  -0.37227  -0.36814
 Alpha virt. eigenvalues --    0.04352   0.04691   0.10329   0.10828   0.15713
 Alpha virt. eigenvalues --    0.16148   0.18118   0.21905   0.24784   0.26660
 Alpha virt. eigenvalues --    0.27596   0.28741   0.29856   0.31305   0.32141

 Mulliken charges:
               1
     1  C   -0.172150
     2  C   -0.218779
     3  C   -0.169664
     4  C    0.159179
     5  C   -0.169967
     6  C   -0.218743
     7  H    0.218788
     8  H    0.221460
     9  H    0.277847
    10  H    0.277037
    11  H    0.223398
    12  N    0.487939
    13  O   -0.459288
    14  O   -0.458724
    15  C   -0.170948
    16  C   -0.218370
    17  C   -0.168978
    18  C    0.159060
    19  C   -0.169326
    20  C   -0.222827
    21  H    0.225874
    22  H    0.226313
    23  H    0.278583
    24  H    0.275099
    25  H    0.216196
    26  N    0.488126
    27  O   -0.459325
    28  O   -0.457811
 Sum of Mulliken charges =  -0.00000

 Dipole moment (field-independent basis, Debye):
    X=              3.0238    Y=              6.4422    Z=              1.8461  Tot=              7.3521
 Quadrupole moment (field-independent basis, Debye-Ang):
   XX=           -158.9975   YY=           -104.5910   ZZ=           -102.8569
   XY=             14.3441   XZ=             -1.8683   YZ=             -4.7408

 Normal termination of Gaussian 16 at Thu May  6 13:07:12 2021.
