 Gaussian 16, Revision A.03,
 Gaussian 16:  EM64L-G16RevA.03 25-Dec-2016

 -------------
 #p 6-31g* mp2
 -------------

 ------------------------------------------------------
 Input file generated by CHIRIPA (05-May-2021 14:51:10)
 ------------------------------------------------------
 Symbolic Z-matrix:
 Charge =  0 Multiplicity = 1

                         Standard orientation:
 ---------------------------------------------------------------------
 Center     Atomic      Atomic             Coordinates (Angstroms)
 Number     Number       Type             X           Y           Z
 ---------------------------------------------------------------------
      1          6           0       -2.257156    1.169485    0.415093
      2          6           0       -1.457245    2.199786   -0.382784
      3          6           0       -0.367428    2.875739    0.449790
      4          1           0       -2.711334    1.661733    1.285931
      5          1           0       -1.570339    0.407831    0.809505
      6          1           0       -2.145546    2.958510   -0.776733
      7          1           0       -1.005076    1.705068   -1.251929
      8          1           0        0.341932    2.134017    0.830917
      9          1           0       -0.805018    3.394581    1.308813
     10          1           0        0.192044    3.608434   -0.140133
     11          6           0       -3.350388    0.485166   -0.403612
     12          6           0       -4.150299   -0.545135    0.394265
     13          6           0       -5.240116   -1.221088   -0.438309
     14          1           0       -4.037205    1.246820   -0.798024
     15          1           0       -2.896210   -0.007082   -1.274450
     16          1           0       -4.602468   -0.050417    1.263410
     17          1           0       -3.461998   -1.303859    0.788214
     18          1           0       -4.802526   -1.739930   -1.297331
     19          1           0       -5.949476   -0.479366   -0.819435
     20          1           0       -5.799587   -1.953783    0.151615
     21          6           0        3.178022   -0.171885   -0.123073
     22          6           0        4.697418   -0.316223   -0.030417
     23          6           0        5.432154    1.003539   -0.267457
     24          1           0        2.913392    0.224067   -1.113092
     25          1           0        2.841979    0.572999    0.611515
     26          1           0        5.030340   -1.061624   -0.764009
     27          1           0        4.958450   -0.712058    0.959428
     28          1           0        5.128493    1.751695    0.471902
     29          1           0        5.200791    1.400143   -1.261327
     30          1           0        6.517019    0.877407   -0.196621
     31          6           0        2.429522   -1.482766    0.111592
     32          6           0        0.910125   -1.338428    0.018936
     33          6           0        0.175390   -2.658189    0.255976
     34          1           0        2.765563   -2.227649   -0.622997
     35          1           0        2.694152   -1.878717    1.101610
     36          1           0        0.649094   -0.942592   -0.970909
     37          1           0        0.577204   -0.593027    0.752528
     38          1           0        0.406753   -3.054793    1.249845
     39          1           0        0.479051   -3.406345   -0.483383
     40          1           0       -0.909476   -2.532058    0.185140
 ---------------------------------------------------------------------

 SCF Done:  E(RHF) =  -470.732922611     A.U. after   11 cycles
 E2 =    -0.1584503814D+01 EUMP2 =    -0.47231742642448D+03

 The electronic state is 1-A.
 Alpha  occ. eigenvalues --  -11.21698 -11.21635 -11.21596 -11.21541 -11.21466
 Alpha  occ. eigenvalues --  -11.21404 -11.21356 -11.21269 -11.21180 -11.21085
 Alpha  occ. eigenvalues --  -11.21063 -11.21019  -1.08512  -1.08375  -1.03606
 Alpha  occ. eigenvalues --   -1.03489  -0.96050  -0.95936  -0.87063  -0.86956
 Alpha  occ. eigenvalues --   -0.79691  -0.79548  -0.78371  -0.78150  -0.65200
 Alpha  occ. eigenvalues --   -0.64984  -0.61037  -0.60864  -0.59406  -0.59307
 Alpha  occ. eigenvalues --   -0.57686  -0.57535  -0.55351  -0.55197  -0.52750
 Alpha  occ. eigenvalues --   -0.52634  -0.52468  -0.52370  -0.50003  -0.49880
 Alpha  occ. eigenvalues --   -0.48093  -0.47798  -0.46913  -0.46536  -0.46042
 Alpha  occ. eigenvalues --   -0.45841  -0.45680  -0.45205  -0.43843  -0.43743
 Alpha virt. eigenvalues --    0.19679   0.21947   0.23543   0.24597   0.24980
 Alpha virt. eigenvalues --    0.26191   0.26416   0.27835   0.28888   0.29322
 Alpha virt. eigenvalues --    0.30273   0.31034   0.31744   0.31975   0.32451

 Mulliken charges:
               1
     1  C   -0.305117
     2  C   -0.299337
     3  C   -0.479620
     4  H    0.148932
     5  H    0.157571
     6  H    0.151589
     7  H    0.152590
     8  H    0.158314
     9  H    0.154591
    10  H    0.160252
    11  C   -0.297955
    12  C   -0.302516
    13  C   -0.475578
    14  H    0.149464
    15  H    0.149459
    16  H    0.152152
    17  H    0.153553
    18  H    0.155094
    19  H    0.155264
    20  H    0.160264
    21  C   -0.300385
    22  C   -0.299714
    23  C   -0.475772
    24  H    0.149898
    25  H    0.151508
    26  H    0.152057
    27  H    0.152023
    28  H    0.155578
    29  H    0.155271
    30  H    0.160324
    31  C   -0.297818
    32  C   -0.305758
    33  C   -0.479742
    34  H    0.149781
    35  H    0.149835
    36  H    0.152660
    37  H    0.156719
    38  H    0.155821
    39  H    0.156043
    40  H    0.162706
 Sum of Mulliken charges =  -0.00000

 Dipole moment (field-independent basis, Debye):
    X=              0.0436    Y=             -0.0236    Z=              0.0022  Tot=              0.0496
 Quadrupole moment (field-independent basis, Debye-Ang):
   XX=            -85.4963   YY=            -85.3586   ZZ=            -83.9261
   XY=             -1.5408   XZ=             -0.5150   YZ=              0.2548

 Normal termination of Gaussian 16 at Thu May  6 05:24:46 2021.
