 Gaussian 16, Revision A.03,
 Gaussian 16:  EM64L-G16RevA.03 25-Dec-2016

 -------------
 #p 6-31g* mp2
 -------------

 ------------------------------------------------------
 Input file generated by CHIRIPA (05-May-2021 14:57:21)
 ------------------------------------------------------
 Symbolic Z-matrix:
 Charge =  0 Multiplicity = 1

                         Standard orientation:
 ---------------------------------------------------------------------
 Center     Atomic      Atomic             Coordinates (Angstroms)
 Number     Number       Type             X           Y           Z
 ---------------------------------------------------------------------
      1          6           0       -2.200249    2.098919   -0.326846
      2          6           0       -1.788628    0.963374   -1.032273
      3          6           0       -2.482297   -0.243462   -0.902201
      4          6           0       -3.588156   -0.279247   -0.054213
      5          6           0       -4.022885    0.834945    0.661941
      6          6           0       -3.314100    2.031200    0.516523
      7          1           0       -1.655519    3.032309   -0.433850
      8          1           0       -0.923957    1.013036   -1.687958
      9          1           0       -2.185357   -1.137721   -1.436565
     10          1           0       -4.888630    0.754561    1.308038
     11          1           0       -3.636048    2.911490    1.065598
     12          7           0       -4.330514   -1.551269    0.091611
     13          8           0       -5.301571   -1.556725    0.845040
     14          8           0       -3.927260   -2.518738   -0.550282
     15          6           0        4.996187   -1.933378    0.187472
     16          6           0        4.578686   -1.438213   -1.052297
     17          6           0        3.730796   -0.328991   -1.124801
     18          6           0        3.317855    0.263243    0.067688
     19          6           0        3.716483   -0.206712    1.318099
     20          6           0        4.564514   -1.317134    1.366633
     21          1           0        5.654903   -2.795514    0.234485
     22          1           0        4.912343   -1.914785   -1.969682
     23          1           0        3.392281    0.074987   -2.071177
     24          1           0        3.367167    0.289550    2.215383
     25          1           0        4.887147   -1.699522    2.330860
     26          7           0        2.420157    1.438161    0.003618
     27          8           0        2.070465    1.942028    1.068733
     28          8           0        2.083232    1.832948   -1.110501
 ---------------------------------------------------------------------

 SCF Done:  E(RHF) =  -868.340465221     A.U. after   16 cycles
 E2 =    -0.2598356290D+01 EUMP2 =    -0.87093882151079D+03

 The electronic state is 1-A.
 Alpha  occ. eigenvalues --  -20.61719 -20.61661 -20.60193 -20.60187 -15.86708
 Alpha  occ. eigenvalues --  -15.85238 -11.31777 -11.30371 -11.28328 -11.28291
 Alpha  occ. eigenvalues --  -11.27984 -11.27259 -11.27235 -11.26933 -11.26900
 Alpha  occ. eigenvalues --  -11.26453 -11.25851 -11.25704  -1.60753  -1.59274
 Alpha  occ. eigenvalues --   -1.40315  -1.38835  -1.19920  -1.18498  -1.09368
 Alpha  occ. eigenvalues --   -1.07898  -1.05278  -1.03871  -0.96254  -0.94784
 Alpha  occ. eigenvalues --   -0.86689  -0.85250  -0.83098  -0.81637  -0.78181
 Alpha  occ. eigenvalues --   -0.76745  -0.72945  -0.72050  -0.71460  -0.71021
 Alpha  occ. eigenvalues --   -0.70596  -0.69529  -0.65575  -0.65275  -0.64130
 Alpha  occ. eigenvalues --   -0.63824  -0.62631  -0.61225  -0.55782  -0.54256
 Alpha  occ. eigenvalues --   -0.53621  -0.53364  -0.52209  -0.51934  -0.49717
 Alpha  occ. eigenvalues --   -0.49678  -0.48231  -0.48192  -0.45772  -0.44294
 Alpha  occ. eigenvalues --   -0.37876  -0.36866  -0.36401  -0.35492
 Alpha virt. eigenvalues --    0.04306   0.05783   0.10793   0.12180   0.15847
 Alpha virt. eigenvalues --    0.17366   0.20959   0.22514   0.26889   0.27724
 Alpha virt. eigenvalues --    0.28384   0.29381   0.30568   0.31835   0.32356

 Mulliken charges:
               1
     1  C   -0.167245
     2  C   -0.223838
     3  C   -0.174006
     4  C    0.157579
     5  C   -0.172572
     6  C   -0.219390
     7  H    0.235763
     8  H    0.234806
     9  H    0.270753
    10  H    0.272372
    11  H    0.221706
    12  N    0.488257
    13  O   -0.462810
    14  O   -0.464017
    15  C   -0.169441
    16  C   -0.218160
    17  C   -0.171542
    18  C    0.157882
    19  C   -0.169847
    20  C   -0.218186
    21  H    0.228340
    22  H    0.225386
    23  H    0.273742
    24  H    0.276604
    25  H    0.226022
    26  N    0.489360
    27  O   -0.457528
    28  O   -0.469992
 Sum of Mulliken charges =  -0.00000

 Dipole moment (field-independent basis, Debye):
    X=              6.2261    Y=              0.4483    Z=             -0.2203  Tot=              6.2461
 Quadrupole moment (field-independent basis, Debye-Ang):
   XX=           -102.0956   YY=           -109.4525   ZZ=            -98.1165
   XY=            -32.5796   XZ=              0.6388   YZ=              1.5600

 Normal termination of Gaussian 16 at Wed May  5 16:12:09 2021.
