 Gaussian 16, Revision A.03,
 Gaussian 16:  EM64L-G16RevA.03 25-Dec-2016

 -------------
 #p 6-31g* mp2
 -------------

 ------------------------------------------------------
 Input file generated by CHIRIPA (05-May-2021 14:55:24)
 ------------------------------------------------------
 Symbolic Z-matrix:
 Charge =  0 Multiplicity = 1

                         Standard orientation:
 ---------------------------------------------------------------------
 Center     Atomic      Atomic             Coordinates (Angstroms)
 Number     Number       Type             X           Y           Z
 ---------------------------------------------------------------------
      1          6           0        6.176652    0.347219    0.288620
      2          6           0        5.581974   -0.908471    0.126993
      3          6           0        4.203045   -1.020407   -0.074437
      4          6           0        3.445511    0.149314   -0.108865
      5          6           0        4.008637    1.414733    0.048914
      6          6           0        5.389473    1.502775    0.249134
      7          1           0        7.248577    0.424893    0.444626
      8          1           0        6.190833   -1.807594    0.157204
      9          1           0        3.716754   -1.979863   -0.202435
     10          1           0        3.375625    2.293081    0.014010
     11          1           0        5.848591    2.479287    0.374355
     12          7           0        1.984692    0.043459   -0.321470
     13          8           0        1.339314    1.089133   -0.347758
     14          8           0        1.512740   -1.083179   -0.457796
     15          6           0       -5.319923    0.109907    0.436658
     16          6           0       -6.410730    0.547931   -0.541227
     17          6           0       -7.607484    1.193041    0.158347
     18          1           0       -5.747818   -0.596790    1.160834
     19          1           0       -4.982286    0.982228    1.013245
     20          1           0       -6.745235   -0.324697   -1.116764
     21          1           0       -5.980142    1.253519   -1.263276
     22          1           0       -7.294156    2.080069    0.718354
     23          1           0       -8.063596    0.492885    0.865698
     24          1           0       -8.375219    1.498601   -0.559341
     25          6           0       -4.116933   -0.536811   -0.247666
     26          6           0       -3.026127   -0.974835    0.730219
     27          6           0       -1.829372   -1.619946    0.030646
     28          1           0       -4.454570   -1.409133   -0.824252
     29          1           0       -3.689038    0.169885   -0.971842
     30          1           0       -3.456715   -1.680424    1.452269
     31          1           0       -2.691621   -0.102208    1.305757
     32          1           0       -1.373260   -0.919790   -0.676705
     33          1           0       -2.142700   -2.506974   -0.529361
     34          1           0       -1.061637   -1.925506    0.748334
 ---------------------------------------------------------------------

 SCF Done:  E(RHF) =  -669.535729294     A.U. after   15 cycles
 E2 =    -0.2091357040D+01 EUMP2 =    -0.67162708633378D+03

 The electronic state is 1-A.
 Alpha  occ. eigenvalues --  -20.60964 -20.60959 -15.85985 -11.31311 -11.27872
 Alpha  occ. eigenvalues --  -11.27868 -11.27609 -11.26878 -11.26868 -11.20815
 Alpha  occ. eigenvalues --  -11.20431 -11.20417 -11.20152 -11.20042 -11.18901
 Alpha  occ. eigenvalues --   -1.60020  -1.39577  -1.19477  -1.08882  -1.07304
 Alpha  occ. eigenvalues --   -1.04873  -1.02291  -0.95729  -0.94702  -0.86274
 Alpha  occ. eigenvalues --   -0.85714  -0.82556  -0.78408  -0.77611  -0.77062
 Alpha  occ. eigenvalues --   -0.72197  -0.71334  -0.70586  -0.65132  -0.64877
 Alpha  occ. eigenvalues --   -0.63945  -0.62220  -0.59692  -0.58183  -0.56314
 Alpha  occ. eigenvalues --   -0.55384  -0.54006  -0.53205  -0.52965  -0.51408
 Alpha  occ. eigenvalues --   -0.51148  -0.49191  -0.48963  -0.48366  -0.46692
 Alpha  occ. eigenvalues --   -0.45439  -0.44986  -0.44591  -0.44470  -0.42512
 Alpha  occ. eigenvalues --   -0.37456  -0.36474
 Alpha virt. eigenvalues --    0.04911   0.11181   0.16406   0.21320   0.23906
 Alpha virt. eigenvalues --    0.25618   0.27237   0.27727   0.28199   0.28547
 Alpha virt. eigenvalues --    0.29389   0.30899   0.32417   0.32633   0.32777

 Mulliken charges:
               1
     1  C   -0.170580
     2  C   -0.218547
     3  C   -0.170891
     4  C    0.158326
     5  C   -0.170727
     6  C   -0.218577
     7  H    0.226040
     8  H    0.223904
     9  H    0.275967
    10  H    0.275773
    11  H    0.223844
    12  N    0.488523
    13  O   -0.460413
    14  O   -0.456907
    15  C   -0.297201
    16  C   -0.298845
    17  C   -0.475044
    18  H    0.146899
    19  H    0.148593
    20  H    0.150418
    21  H    0.151703
    22  H    0.154279
    23  H    0.153768
    24  H    0.157851
    25  C   -0.297679
    26  C   -0.300853
    27  C   -0.470706
    28  H    0.146048
    29  H    0.151649
    30  H    0.143512
    31  H    0.151256
    32  H    0.174237
    33  H    0.142747
    34  H    0.161635
 Sum of Mulliken charges =  -0.00000

 Dipole moment (field-independent basis, Debye):
    X=              5.6053    Y=              0.4239    Z=              0.6781  Tot=              5.6621
 Quadrupole moment (field-independent basis, Debye-Ang):
   XX=            -62.1995   YY=            -89.3218   ZZ=            -96.0937
   XY=              2.2454   XZ=              2.5694   YZ=              0.1809

 Normal termination of Gaussian 16 at Thu May  6 19:21:02 2021.
