 Gaussian 16, Revision A.03,
 Gaussian 16:  EM64L-G16RevA.03 25-Dec-2016

 -------------
 #p 6-31g* mp2
 -------------

 ------------------------------------------------------
 Input file generated by CHIRIPA (05-May-2021 14:53:11)
 ------------------------------------------------------
 Symbolic Z-matrix:
 Charge =  0 Multiplicity = 1

                         Standard orientation:
 ---------------------------------------------------------------------
 Center     Atomic      Atomic             Coordinates (Angstroms)
 Number     Number       Type             X           Y           Z
 ---------------------------------------------------------------------
      1          6           0       -3.020628   -0.920126   -0.755502
      2          6           0       -1.622418   -1.390773   -0.353649
      3          6           0       -1.043061   -2.419588   -1.325080
      4          1           0       -3.690336   -1.789040   -0.814026
      5          1           0       -2.978706   -0.489219   -1.765431
      6          1           0       -1.666700   -1.819406    0.655771
      7          1           0       -0.956006   -0.520615   -0.295889
      8          1           0       -0.969964   -1.999022   -2.333238
      9          1           0       -1.684695   -3.305193   -1.376171
     10          1           0       -0.043117   -2.742331   -1.018796
     11          6           0       -3.613180    0.108586    0.205934
     12          6           0       -5.011390    0.579233   -0.195919
     13          6           0       -5.590747    1.608049    0.775512
     14          1           0       -3.655101   -0.322320    1.215863
     15          1           0       -2.943471    0.977500    0.264458
     16          1           0       -5.677801   -0.290925   -0.253679
     17          1           0       -4.967108    1.007866   -1.205339
     18          1           0       -4.949112    2.493653    0.826603
     19          1           0       -5.663844    1.187483    1.783670
     20          1           0       -6.590690    1.930792    0.469228
     21          6           0        2.524725   -2.078624    1.003621
     22          6           0        3.547830   -1.650535    0.151262
     23          6           0        3.594690   -0.325495   -0.292158
     24          6           0        2.597771    0.548608    0.138402
     25          6           0        1.565528    0.152297    0.987345
     26          6           0        1.538578   -1.177431    1.418212
     27          1           0        2.496056   -3.109768    1.343204
     28          1           0        4.315017   -2.348214   -0.172333
     29          1           0        4.375365    0.032569   -0.952277
     30          1           0        0.814790    0.870952    1.292871
     31          1           0        0.742828   -1.507098    2.080138
     32          7           0        2.636840    1.953851   -0.324382
     33          8           0        1.746706    2.704372    0.069338
     34          8           0        3.556858    2.278149   -1.072068
 ---------------------------------------------------------------------

 SCF Done:  E(RHF) =  -669.534776283     A.U. after   15 cycles
 E2 =    -0.2093552257D+01 EUMP2 =    -0.67162832853950D+03

 The electronic state is 1-A.
 Alpha  occ. eigenvalues --  -20.60817 -20.60810 -15.85869 -11.31239 -11.27783
 Alpha  occ. eigenvalues --  -11.27776 -11.27539 -11.26822 -11.26795 -11.21957
 Alpha  occ. eigenvalues --  -11.21697 -11.21609 -11.21545 -11.21362 -11.21107
 Alpha  occ. eigenvalues --   -1.59892  -1.39445  -1.19413  -1.08812  -1.08642
 Alpha  occ. eigenvalues --   -1.04820  -1.03728  -0.96168  -0.95641  -0.87189
 Alpha  occ. eigenvalues --   -0.86207  -0.82477  -0.79834  -0.78485  -0.77493
 Alpha  occ. eigenvalues --   -0.72087  -0.71216  -0.70517  -0.65297  -0.65056
 Alpha  occ. eigenvalues --   -0.64794  -0.62164  -0.61134  -0.59580  -0.57823
 Alpha  occ. eigenvalues --   -0.55450  -0.55311  -0.53225  -0.52899  -0.52779
 Alpha  occ. eigenvalues --   -0.52544  -0.50107  -0.48846  -0.48843  -0.48139
 Alpha  occ. eigenvalues --   -0.46856  -0.46010  -0.45920  -0.44847  -0.43991
 Alpha  occ. eigenvalues --   -0.37378  -0.36310
 Alpha virt. eigenvalues --    0.04990   0.11135   0.16448   0.20664   0.22855
 Alpha virt. eigenvalues --    0.24163   0.25709   0.25865   0.27517   0.28323
 Alpha virt. eigenvalues --    0.29102   0.30031   0.31449   0.31554   0.32139

 Mulliken charges:
               1
     1  C   -0.298044
     2  C   -0.301887
     3  C   -0.477899
     4  H    0.149151
     5  H    0.152997
     6  H    0.141117
     7  H    0.156754
     8  H    0.158548
     9  H    0.153947
    10  H    0.158909
    11  C   -0.299696
    12  C   -0.299699
    13  C   -0.476333
    14  H    0.145834
    15  H    0.152303
    16  H    0.151388
    17  H    0.154169
    18  H    0.157786
    19  H    0.153804
    20  H    0.161033
    21  C   -0.173499
    22  C   -0.218144
    23  C   -0.171305
    24  C    0.158237
    25  C   -0.172744
    26  C   -0.211604
    27  H    0.226103
    28  H    0.223804
    29  H    0.275697
    30  H    0.276074
    31  H    0.225895
    32  N    0.488179
    33  O   -0.460814
    34  O   -0.460061
 Sum of Mulliken charges =  -0.00000

 Dipole moment (field-independent basis, Debye):
    X=             -0.1085    Y=             -4.8832    Z=              1.5933  Tot=              5.1377
 Quadrupole moment (field-independent basis, Debye-Ang):
   XX=            -92.2759   YY=           -100.8049   ZZ=            -93.5295
   XY=            -13.6052   XZ=              2.0589   YZ=             -0.1455

 Normal termination of Gaussian 16 at Thu May  6 04:02:25 2021.
