 Gaussian 16, Revision A.03,
 Gaussian 16:  EM64L-G16RevA.03 25-Dec-2016

 -------------
 #p 6-31g* mp2
 -------------

 ------------------------------------------------------
 Input file generated by CHIRIPA (05-May-2021 14:55:22)
 ------------------------------------------------------
 Symbolic Z-matrix:
 Charge =  0 Multiplicity = 1

                         Standard orientation:
 ---------------------------------------------------------------------
 Center     Atomic      Atomic             Coordinates (Angstroms)
 Number     Number       Type             X           Y           Z
 ---------------------------------------------------------------------
      1          6           0        1.103736   -1.241980    1.411705
      2          6           0        2.248431   -1.996977    1.135708
      3          6           0        3.316021   -1.435409    0.428998
      4          6           0        3.204745   -0.110068    0.011409
      5          6           0        2.077512    0.667929    0.270943
      6          6           0        1.022074    0.085722    0.979204
      7          1           0        0.279127   -1.686237    1.961297
      8          1           0        2.314618   -3.028322    1.470362
      9          1           0        4.213902   -1.997159    0.201698
     10          1           0        2.040688    1.693571   -0.075641
     11          1           0        0.134315    0.674447    1.192118
     12          7           0        4.328522    0.495364   -0.737574
     13          8           0        4.205873    1.665062   -1.094508
     14          8           0        5.310708   -0.211260   -0.953512
     15          6           0       -3.882187    1.017804   -0.320401
     16          6           0       -3.107493    1.854707    0.698142
     17          6           0       -3.151162    3.351469    0.388960
     18          1           0       -3.470813    1.198740   -1.322887
     19          1           0       -4.926813    1.357713   -0.345179
     20          1           0       -2.064961    1.512400    0.721991
     21          1           0       -3.520635    1.671611    1.698344
     22          1           0       -4.184180    3.714041    0.385004
     23          1           0       -2.720235    3.553925   -0.596897
     24          1           0       -2.591077    3.930893    1.129522
     25          6           0       -3.847816   -0.480587   -0.024818
     26          6           0       -4.622510   -1.317489   -1.043359
     27          6           0       -4.578840   -2.814251   -0.734179
     28          1           0       -2.803190   -0.820496   -0.000039
     29          1           0       -4.259191   -0.661523    0.977669
     30          1           0       -4.209369   -1.134394   -2.043563
     31          1           0       -5.665042   -0.975183   -1.067210
     32          1           0       -5.009768   -3.016707    0.251678
     33          1           0       -3.545824   -3.176824   -0.730222
     34          1           0       -5.138926   -3.393675   -1.474741
 ---------------------------------------------------------------------

 SCF Done:  E(RHF) =  -669.535642929     A.U. after   15 cycles
 E2 =    -0.2091202267D+01 EUMP2 =    -0.67162684519583D+03

 The electronic state is 1-A.
 Alpha  occ. eigenvalues --  -20.60760 -20.60755 -15.85813 -11.31181 -11.27753
 Alpha  occ. eigenvalues --  -11.27747 -11.27490 -11.26765 -11.26740 -11.22566
 Alpha  occ. eigenvalues --  -11.22217 -11.22159 -11.22102 -11.21788 -11.21651
 Alpha  occ. eigenvalues --   -1.59836  -1.39389  -1.19354  -1.09188  -1.08747
 Alpha  occ. eigenvalues --   -1.04758  -1.04256  -0.96677  -0.95581  -0.87694
 Alpha  occ. eigenvalues --   -0.86157  -0.82416  -0.80340  -0.79015  -0.77461
 Alpha  occ. eigenvalues --   -0.72031  -0.71159  -0.70458  -0.65845  -0.65005
 Alpha  occ. eigenvalues --   -0.64755  -0.62148  -0.61613  -0.60052  -0.58299
 Alpha  occ. eigenvalues --   -0.55955  -0.55253  -0.53373  -0.53110  -0.53085
 Alpha  occ. eigenvalues --   -0.52859  -0.50613  -0.48809  -0.48786  -0.48623
 Alpha  occ. eigenvalues --   -0.47367  -0.46539  -0.46457  -0.44794  -0.44509
 Alpha  occ. eigenvalues --   -0.37334  -0.36360
 Alpha virt. eigenvalues --    0.05071   0.11234   0.16545   0.19499   0.22642
 Alpha virt. eigenvalues --    0.23494   0.24964   0.26366   0.27211   0.27849
 Alpha virt. eigenvalues --    0.29332   0.29705   0.31017   0.31323   0.31980

 Mulliken charges:
               1
     1  C   -0.173712
     2  C   -0.218578
     3  C   -0.171050
     4  C    0.158802
     5  C   -0.173355
     6  C   -0.226912
     7  H    0.226842
     8  H    0.223458
     9  H    0.275593
    10  H    0.275853
    11  H    0.235766
    12  N    0.488078
    13  O   -0.460412
    14  O   -0.460519
    15  C   -0.298084
    16  C   -0.305946
    17  C   -0.476195
    18  H    0.152826
    19  H    0.153062
    20  H    0.144409
    21  H    0.153469
    22  H    0.159015
    23  H    0.157960
    24  H    0.160848
    25  C   -0.298803
    26  C   -0.300112
    27  C   -0.476142
    28  H    0.144481
    29  H    0.149193
    30  H    0.154534
    31  H    0.154006
    32  H    0.154836
    33  H    0.153761
    34  H    0.163030
 Sum of Mulliken charges =  -0.00000

 Dipole moment (field-independent basis, Debye):
    X=             -4.1478    Y=             -2.1012    Z=              2.5752  Tot=              5.3151
 Quadrupole moment (field-independent basis, Debye-Ang):
   XX=           -117.8827   YY=            -91.6523   ZZ=            -95.1417
   XY=             -9.3247   XZ=              8.4011   YZ=             -0.5489

 Normal termination of Gaussian 16 at Wed May  5 20:40:18 2021.
