 Gaussian 16, Revision A.03,
 Gaussian 16:  EM64L-G16RevA.03 25-Dec-2016

 -------------
 #p 6-31g* mp2
 -------------

 ------------------------------------------------------
 Input file generated by CHIRIPA (05-May-2021 14:51:13)
 ------------------------------------------------------
 Symbolic Z-matrix:
 Charge =  0 Multiplicity = 1

                         Standard orientation:
 ---------------------------------------------------------------------
 Center     Atomic      Atomic             Coordinates (Angstroms)
 Number     Number       Type             X           Y           Z
 ---------------------------------------------------------------------
      1          6           0        2.880037    0.736985   -0.240859
      2          6           0        2.755737    2.205482    0.166636
      3          6           0        1.336445    2.748102   -0.003560
      4          1           0        2.566554    0.625811   -1.287908
      5          1           0        2.182546    0.136753    0.359660
      6          1           0        3.454248    2.802581   -0.433507
      7          1           0        3.069735    2.313205    1.212780
      8          1           0        0.629969    2.177540    0.607956
      9          1           0        1.016667    2.669697   -1.047685
     10          1           0        1.270261    3.799405    0.293493
     11          6           0        4.293048    0.180149   -0.076356
     12          6           0        4.417348   -1.288348   -0.483850
     13          6           0        5.836640   -1.830968   -0.313654
     14          1           0        4.990539    0.780381   -0.676874
     15          1           0        4.606531    0.291323    0.970694
     16          1           0        4.103350   -1.396070   -1.529994
     17          1           0        3.718836   -1.885447    0.116293
     18          1           0        6.156418   -1.752563    0.730470
     19          1           0        6.543116   -1.260406   -0.925170
     20          1           0        5.902823   -2.882271   -0.610707
     21          6           0       -3.010235   -0.369622    0.651953
     22          6           0       -1.737105   -1.107592    0.236591
     23          6           0       -0.593145   -0.920048    1.233574
     24          1           0       -2.787456    0.700776    0.759484
     25          1           0       -3.324619   -0.724576    1.643197
     26          1           0       -1.425989   -0.752346   -0.754179
     27          1           0       -1.962985   -2.176330    0.129849
     28          1           0       -0.879363   -1.291864    2.222732
     29          1           0       -0.339315    0.140211    1.333681
     30          1           0        0.307111   -1.456007    0.917112
     31          6           0       -4.162850   -0.547513   -0.334738
     32          6           0       -5.435979    0.190458    0.080624
     33          6           0       -6.579940    0.002914   -0.916360
     34          1           0       -3.848465   -0.192558   -1.325983
     35          1           0       -4.385629   -1.617910   -0.442269
     36          1           0       -5.210100    1.259196    0.187364
     37          1           0       -5.747095   -0.164788    1.071392
     38          1           0       -6.833769   -1.057345   -1.016467
     39          1           0       -6.293722    0.374729   -1.905517
     40          1           0       -7.480196    0.538872   -0.599897
 ---------------------------------------------------------------------

 SCF Done:  E(RHF) =  -470.732634090     A.U. after   11 cycles
 E2 =    -0.1583507633D+01 EUMP2 =    -0.47231614172318D+03

 The electronic state is 1-A.
 Alpha  occ. eigenvalues --  -11.21613 -11.21597 -11.21589 -11.21575 -11.21407
 Alpha  occ. eigenvalues --  -11.21347 -11.21345 -11.21255 -11.21102 -11.21080
 Alpha  occ. eigenvalues --  -11.21066 -11.21057  -1.08441  -1.08387  -1.03561
 Alpha  occ. eigenvalues --   -1.03495  -0.96000  -0.95961  -0.87025  -0.86979
 Alpha  occ. eigenvalues --   -0.79662  -0.79532  -0.78264  -0.78181  -0.65133
 Alpha  occ. eigenvalues --   -0.64974  -0.61095  -0.60783  -0.59389  -0.59318
 Alpha  occ. eigenvalues --   -0.57702  -0.57488  -0.55365  -0.55190  -0.52758
 Alpha  occ. eigenvalues --   -0.52648  -0.52497  -0.52283  -0.50045  -0.49852
 Alpha  occ. eigenvalues --   -0.47984  -0.47819  -0.46803  -0.46468  -0.45830
 Alpha  occ. eigenvalues --   -0.45740  -0.45720  -0.45489  -0.43772  -0.43732
 Alpha virt. eigenvalues --    0.21064   0.22991   0.23593   0.24453   0.26097
 Alpha virt. eigenvalues --    0.26164   0.26828   0.27394   0.27999   0.29478
 Alpha virt. eigenvalues --    0.30291   0.31653   0.31780   0.31989   0.32438

 Mulliken charges:
               1
     1  C   -0.306466
     2  C   -0.299060
     3  C   -0.480850
     4  H    0.148501
     5  H    0.159975
     6  H    0.151755
     7  H    0.151760
     8  H    0.159136
     9  H    0.154886
    10  H    0.160349
    11  C   -0.297829
    12  C   -0.299827
    13  C   -0.475639
    14  H    0.149197
    15  H    0.149493
    16  H    0.151855
    17  H    0.151357
    18  H    0.155233
    19  H    0.155233
    20  H    0.160127
    21  C   -0.298858
    22  C   -0.299361
    23  C   -0.483925
    24  H    0.149987
    25  H    0.149450
    26  H    0.153046
    27  H    0.152004
    28  H    0.155245
    29  H    0.160627
    30  H    0.162374
    31  C   -0.298329
    32  C   -0.299708
    33  C   -0.475714
    34  H    0.149728
    35  H    0.149615
    36  H    0.152152
    37  H    0.151862
    38  H    0.155133
    39  H    0.155227
    40  H    0.160259
 Sum of Mulliken charges =  -0.00000

 Dipole moment (field-independent basis, Debye):
    X=             -0.0271    Y=             -0.0136    Z=              0.0088  Tot=              0.0315
 Quadrupole moment (field-independent basis, Debye-Ang):
   XX=            -86.5549   YY=            -84.3764   ZZ=            -84.0038
   XY=              0.7808   XZ=             -0.9679   YZ=             -0.6840

 Normal termination of Gaussian 16 at Wed May  5 21:36:44 2021.
