 Gaussian 16, Revision A.03,
 Gaussian 16:  EM64L-G16RevA.03 25-Dec-2016

 -------------
 #p 6-31g* mp2
 -------------

 ------------------------------------------------------
 Input file generated by CHIRIPA (05-May-2021 14:51:09)
 ------------------------------------------------------
 Symbolic Z-matrix:
 Charge =  0 Multiplicity = 1

                         Standard orientation:
 ---------------------------------------------------------------------
 Center     Atomic      Atomic             Coordinates (Angstroms)
 Number     Number       Type             X           Y           Z
 ---------------------------------------------------------------------
      1          6           0       -2.835691    0.925094    0.117928
      2          6           0       -1.910482    2.104240    0.420566
      3          6           0       -2.607780    3.216901    1.203863
      4          1           0       -3.704900    1.285409   -0.449165
      5          1           0       -3.224592    0.521230    1.062938
      6          1           0       -1.522354    2.504886   -0.524662
      7          1           0       -1.043280    1.741044    0.986839
      8          1           0       -2.980364    2.838732    2.161344
      9          1           0       -3.462160    3.606914    0.641255
     10          1           0       -1.928165    4.049817    1.409373
     11          6           0       -2.153014   -0.195293   -0.664639
     12          6           0       -3.078223   -1.374439   -0.967277
     13          6           0       -2.380925   -2.487101   -1.750574
     14          1           0       -1.764113    0.208570   -1.609650
     15          1           0       -1.283806   -0.555608   -0.097546
     16          1           0       -3.945425   -1.011243   -1.533550
     17          1           0       -3.466351   -1.775085   -0.022050
     18          1           0       -1.526546   -2.877113   -1.187967
     19          1           0       -2.008341   -2.108932   -2.708056
     20          1           0       -3.060541   -3.320016   -1.956085
     21          6           0        3.149150   -0.125633   -0.038772
     22          6           0        3.016302    1.203933   -0.782137
     23          6           0        4.334636    1.669455   -1.401071
     24          1           0        3.909516   -0.024334    0.747692
     25          1           0        3.519211   -0.891363   -0.734550
     26          1           0        2.645286    1.966604   -0.085505
     27          1           0        2.256027    1.099513   -1.566798
     28          1           0        4.706508    0.929521   -2.117179
     29          1           0        5.097979    1.801539   -0.627469
     30          1           0        4.216824    2.621725   -1.927534
     31          6           0        1.839556   -0.604168    0.585484
     32          6           0        1.972404   -1.933733    1.328848
     33          6           0        0.654070   -2.399256    1.947783
     34          1           0        1.469495    0.161562    1.281262
     35          1           0        1.079189   -0.705467   -0.200981
     36          1           0        2.732679   -1.829314    2.113509
     37          1           0        2.343419   -2.696404    0.632216
     38          1           0       -0.109274   -2.531339    1.174181
     39          1           0        0.282197   -1.659322    2.663890
     40          1           0        0.771882   -3.351526    2.474245
 ---------------------------------------------------------------------

 SCF Done:  E(RHF) =  -470.732777188     A.U. after   11 cycles
 E2 =    -0.1584570176D+01 EUMP2 =    -0.47231734736370D+03

 The electronic state is 1-A.
 Alpha  occ. eigenvalues --  -11.21652 -11.21589 -11.21587 -11.21550 -11.21408
 Alpha  occ. eigenvalues --  -11.21349 -11.21346 -11.21272 -11.21167 -11.21115
 Alpha  occ. eigenvalues --  -11.21065 -11.21045  -1.08476  -1.08375  -1.03570
 Alpha  occ. eigenvalues --   -1.03508  -0.96018  -0.95962  -0.87035  -0.86981
 Alpha  occ. eigenvalues --   -0.79657  -0.79550  -0.78483  -0.78004  -0.65173
 Alpha  occ. eigenvalues --   -0.64960  -0.61070  -0.60812  -0.59404  -0.59310
 Alpha  occ. eigenvalues --   -0.57649  -0.57554  -0.55378  -0.55190  -0.52715
 Alpha  occ. eigenvalues --   -0.52660  -0.52475  -0.52365  -0.50017  -0.49858
 Alpha  occ. eigenvalues --   -0.48089  -0.47846  -0.46854  -0.46515  -0.46353
 Alpha  occ. eigenvalues --   -0.45733  -0.45658  -0.44925  -0.43808  -0.43752
 Alpha virt. eigenvalues --    0.20160   0.22650   0.23323   0.24270   0.25744
 Alpha virt. eigenvalues --    0.26405   0.26692   0.27551   0.28106   0.30223
 Alpha virt. eigenvalues --    0.30342   0.31402   0.31782   0.31841   0.32212

 Mulliken charges:
               1
     1  C   -0.297449
     2  C   -0.301868
     3  C   -0.475685
     4  H    0.149266
     5  H    0.149342
     6  H    0.151914
     7  H    0.154256
     8  H    0.154955
     9  H    0.155131
    10  H    0.159925
    11  C   -0.309237
    12  C   -0.298827
    13  C   -0.479057
    14  H    0.148054
    15  H    0.162394
    16  H    0.151960
    17  H    0.152138
    18  H    0.156251
    19  H    0.155121
    20  H    0.160875
    21  C   -0.297764
    22  C   -0.299712
    23  C   -0.475751
    24  H    0.149457
    25  H    0.149577
    26  H    0.152172
    27  H    0.152374
    28  H    0.155150
    29  H    0.155102
    30  H    0.160233
    31  C   -0.305763
    32  C   -0.299384
    33  C   -0.481505
    34  H    0.150259
    35  H    0.156500
    36  H    0.152179
    37  H    0.152132
    38  H    0.159217
    39  H    0.154938
    40  H    0.161131
 Sum of Mulliken charges =  -0.00000

 Dipole moment (field-independent basis, Debye):
    X=              0.0243    Y=             -0.0115    Z=              0.0038  Tot=              0.0272
 Quadrupole moment (field-independent basis, Debye-Ang):
   XX=            -85.6468   YY=            -85.3879   ZZ=            -83.8550
   XY=             -0.0838   XZ=              1.0696   YZ=             -0.2426

 Normal termination of Gaussian 16 at Thu May  6 05:21:25 2021.
