 Gaussian 16, Revision A.03,
 Gaussian 16:  EM64L-G16RevA.03 25-Dec-2016

 -------------
 #p 6-31g* mp2
 -------------

 ------------------------------------------------------
 Input file generated by CHIRIPA (05-May-2021 14:53:16)
 ------------------------------------------------------
 Symbolic Z-matrix:
 Charge =  0 Multiplicity = 1

                         Standard orientation:
 ---------------------------------------------------------------------
 Center     Atomic      Atomic             Coordinates (Angstroms)
 Number     Number       Type             X           Y           Z
 ---------------------------------------------------------------------
      1          6           0       -5.175118    0.268497   -0.317467
      2          6           0       -6.582195    0.186703    0.275347
      3          6           0       -7.639093    0.835504   -0.618979
      4          1           0       -4.916532    1.322591   -0.487657
      5          1           0       -5.171195   -0.217358   -1.303025
      6          1           0       -6.583137    0.671350    1.260097
      7          1           0       -6.837387   -0.867309    0.444323
      8          1           0       -7.667395    0.347159   -1.598427
      9          1           0       -7.411701    1.894560   -0.778019
     10          1           0       -8.637510    0.765672   -0.176094
     11          6           0       -4.107525   -0.375812    0.565051
     12          6           0       -2.700448   -0.294018   -0.027763
     13          6           0       -1.643550   -0.942819    0.866562
     14          1           0       -4.111448    0.110043    1.550609
     15          1           0       -4.366111   -1.429906    0.735240
     16          1           0       -2.445256    0.759994   -0.196740
     17          1           0       -2.699506   -0.778665   -1.012513
     18          1           0       -1.870943   -2.001875    1.025602
     19          1           0       -1.615248   -0.454474    1.846011
     20          1           0       -0.645133   -0.872987    0.423677
     21          6           0        4.353186    2.448208    0.119966
     22          6           0        5.303471    1.422875    0.166537
     23          6           0        4.911982    0.086041    0.047536
     24          6           0        3.555734   -0.190711   -0.117660
     25          6           0        2.585099    0.808602   -0.167950
     26          6           0        2.999419    2.138346   -0.046834
     27          1           0        4.666171    3.483938    0.213230
     28          1           0        6.355513    1.660560    0.295985
     29          1           0        5.626623   -0.727372    0.080155
     30          1           0        1.543638    0.540506   -0.297957
     31          1           0        2.259209    2.932575   -0.083362
     32          7           0        3.129197   -1.602204   -0.244760
     33          8           0        1.928205   -1.819718   -0.389482
     34          8           0        4.003946   -2.464291   -0.197254
 ---------------------------------------------------------------------

 SCF Done:  E(RHF) =  -669.535875899     A.U. after   15 cycles
 E2 =    -0.2091141890D+01 EUMP2 =    -0.67162701778959D+03

 The electronic state is 1-A.
 Alpha  occ. eigenvalues --  -20.60872 -20.60866 -15.85910 -11.31242 -11.27809
 Alpha  occ. eigenvalues --  -11.27806 -11.27549 -11.26821 -11.26811 -11.21458
 Alpha  occ. eigenvalues --  -11.21284 -11.21210 -11.21107 -11.20966 -11.20443
 Alpha  occ. eigenvalues --   -1.59936  -1.39493  -1.19414  -1.08816  -1.08198
 Alpha  occ. eigenvalues --   -1.04813  -1.03258  -0.95709  -0.95634  -0.86696
 Alpha  occ. eigenvalues --   -0.86214  -0.82491  -0.79328  -0.78018  -0.77544
 Alpha  occ. eigenvalues --   -0.72139  -0.71250  -0.70526  -0.65071  -0.64837
 Alpha  occ. eigenvalues --   -0.64818  -0.62174  -0.60660  -0.59051  -0.57299
 Alpha  occ. eigenvalues --   -0.55319  -0.54974  -0.53143  -0.52928  -0.52329
 Alpha  occ. eigenvalues --   -0.52103  -0.49631  -0.48888  -0.48881  -0.47627
 Alpha  occ. eigenvalues --   -0.46378  -0.45554  -0.45487  -0.44905  -0.43477
 Alpha  occ. eigenvalues --   -0.37394  -0.36413
 Alpha virt. eigenvalues --    0.04980   0.11232   0.16477   0.20784   0.23021
 Alpha virt. eigenvalues --    0.24003   0.26521   0.26870   0.27649   0.27763
 Alpha virt. eigenvalues --    0.29099   0.30309   0.31583   0.31679   0.32078

 Mulliken charges:
               1
     1  C   -0.297828
     2  C   -0.299463
     3  C   -0.475529
     4  H    0.147213
     5  H    0.150072
     6  H    0.151155
     7  H    0.152682
     8  H    0.155416
     9  H    0.154060
    10  H    0.159904
    11  C   -0.297694
    12  C   -0.299673
    13  C   -0.487453
    14  H    0.147809
    15  H    0.151371
    16  H    0.143216
    17  H    0.154709
    18  H    0.160305
    19  H    0.148709
    20  H    0.178515
    21  C   -0.170380
    22  C   -0.218777
    23  C   -0.170465
    24  C    0.156615
    25  C   -0.171237
    26  C   -0.220399
    27  H    0.225816
    28  H    0.223637
    29  H    0.275720
    30  H    0.280854
    31  H    0.224092
    32  N    0.491458
    33  O   -0.465021
    34  O   -0.459408
 Sum of Mulliken charges =  -0.00000

 Dipole moment (field-independent basis, Debye):
    X=              1.6508    Y=              4.8718    Z=              0.4275  Tot=              5.1617
 Quadrupole moment (field-independent basis, Debye-Ang):
   XX=            -80.5347   YY=            -95.9961   ZZ=            -95.9161
   XY=             16.8032   XZ=              1.6045   YZ=             -0.1587

 Normal termination of Gaussian 16 at Wed May  5 17:12:42 2021.
