 Gaussian 16, Revision A.03,
 Gaussian 16:  EM64L-G16RevA.03 25-Dec-2016

 -------------
 #p 6-31g* mp2
 -------------

 ------------------------------------------------------
 Input file generated by CHIRIPA (05-May-2021 14:55:22)
 ------------------------------------------------------
 Symbolic Z-matrix:
 Charge =  0 Multiplicity = 1

                         Standard orientation:
 ---------------------------------------------------------------------
 Center     Atomic      Atomic             Coordinates (Angstroms)
 Number     Number       Type             X           Y           Z
 ---------------------------------------------------------------------
      1          6           0        1.764630   -0.621958    2.460831
      2          6           0        2.843523   -1.305466    1.890456
      3          6           0        3.276966   -0.995670    0.597900
      4          6           0        2.605537    0.007738   -0.098983
      5          6           0        1.527482    0.706652    0.441948
      6          6           0        1.111205    0.380153    1.736034
      7          1           0        1.434588   -0.869103    3.465514
      8          1           0        3.352869   -2.084179    2.451008
      9          1           0        4.109450   -1.509008    0.132205
     10          1           0        1.039627    1.478059   -0.141445
     11          1           0        0.273033    0.912631    2.176466
     12          7           0        3.055318    0.344547   -1.468164
     13          8           0        2.446998    1.232647   -2.061343
     14          8           0        4.007658   -0.285941   -1.922223
     15          6           0       -3.495601    0.771313   -0.044375
     16          6           0       -2.379180    1.779599    0.229396
     17          6           0       -2.905905    3.195855    0.463005
     18          1           0       -4.070508    1.099506   -0.921141
     19          1           0       -4.193824    0.768534    0.804076
     20          1           0       -1.682515    1.779473   -0.618705
     21          1           0       -1.806744    1.448868    1.105496
     22          1           0       -3.584774    3.217643    1.321645
     23          1           0       -3.459839    3.550127   -0.412353
     24          1           0       -2.091059    3.900361    0.656799
     25          6           0       -2.984804   -0.649016   -0.279913
     26          6           0       -4.101224   -1.657301   -0.553684
     27          6           0       -3.574499   -3.073558   -0.787293
     28          1           0       -2.286579   -0.646236   -1.128365
     29          1           0       -2.409895   -0.977208    0.596852
     30          1           0       -4.673659   -1.326570   -1.429784
     31          1           0       -4.797888   -1.657175    0.294416
     32          1           0       -3.020565   -3.427830    0.088065
     33          1           0       -2.895629   -3.095345   -1.645932
     34          1           0       -4.389345   -3.778064   -0.981088
 ---------------------------------------------------------------------

 SCF Done:  E(RHF) =  -669.535358627     A.U. after   15 cycles
 E2 =    -0.2092074402D+01 EUMP2 =    -0.67162743302948D+03

 The electronic state is 1-A.
 Alpha  occ. eigenvalues --  -20.60740 -20.60734 -15.85792 -11.31132 -11.27713
 Alpha  occ. eigenvalues --  -11.27681 -11.27456 -11.26726 -11.26690 -11.22347
 Alpha  occ. eigenvalues --  -11.21880 -11.21867 -11.21721 -11.21630 -11.21279
 Alpha  occ. eigenvalues --   -1.59815  -1.39370  -1.19309  -1.08886  -1.08711
 Alpha  occ. eigenvalues --   -1.04710  -1.03979  -0.96391  -0.95548  -0.87410
 Alpha  occ. eigenvalues --   -0.86113  -0.82390  -0.80090  -0.78697  -0.77409
 Alpha  occ. eigenvalues --   -0.72012  -0.71138  -0.70423  -0.65554  -0.64962
 Alpha  occ. eigenvalues --   -0.64702  -0.62096  -0.61360  -0.59768  -0.58011
 Alpha  occ. eigenvalues --   -0.55662  -0.55223  -0.53130  -0.53014  -0.52844
 Alpha  occ. eigenvalues --   -0.52793  -0.50323  -0.48774  -0.48768  -0.48366
 Alpha  occ. eigenvalues --   -0.47102  -0.46219  -0.46118  -0.44780  -0.44219
 Alpha  occ. eigenvalues --   -0.37297  -0.36290
 Alpha virt. eigenvalues --    0.05091   0.11289   0.16521   0.20009   0.22790
 Alpha virt. eigenvalues --    0.23850   0.25037   0.25713   0.27561   0.28213
 Alpha virt. eigenvalues --    0.29245   0.29423   0.31439   0.31502   0.32016

 Mulliken charges:
               1
     1  C   -0.171420
     2  C   -0.218667
     3  C   -0.170692
     4  C    0.158272
     5  C   -0.172481
     6  C   -0.221578
     7  H    0.225309
     8  H    0.223147
     9  H    0.275375
    10  H    0.278688
    11  H    0.227137
    12  N    0.488075
    13  O   -0.460936
    14  O   -0.460583
    15  C   -0.297758
    16  C   -0.307708
    17  C   -0.475609
    18  H    0.153811
    19  H    0.149449
    20  H    0.157308
    21  H    0.142422
    22  H    0.155659
    23  H    0.160492
    24  H    0.159630
    25  C   -0.299441
    26  C   -0.300097
    27  C   -0.475945
    28  H    0.154131
    29  H    0.146381
    30  H    0.153911
    31  H    0.151038
    32  H    0.153598
    33  H    0.157957
    34  H    0.161121
 Sum of Mulliken charges =  -0.00000

 Dipole moment (field-independent basis, Debye):
    X=             -1.7158    Y=             -1.1893    Z=              4.7181  Tot=              5.1594
 Quadrupole moment (field-independent basis, Debye-Ang):
   XX=           -100.5632   YY=            -93.7420   ZZ=            -95.4019
   XY=             -5.9155   XZ=             13.3587   YZ=             -0.6089

 Normal termination of Gaussian 16 at Thu May  6 15:55:11 2021.
