 Gaussian 16, Revision A.03,
 Gaussian 16:  EM64L-G16RevA.03 25-Dec-2016

 -------------
 #p 6-31g* mp2
 -------------

 ------------------------------------------------------
 Input file generated by CHIRIPA (05-May-2021 14:51:11)
 ------------------------------------------------------
 Symbolic Z-matrix:
 Charge =  0 Multiplicity = 1

                         Standard orientation:
 ---------------------------------------------------------------------
 Center     Atomic      Atomic             Coordinates (Angstroms)
 Number     Number       Type             X           Y           Z
 ---------------------------------------------------------------------
      1          6           0        3.017882   -0.335578   -0.009254
      2          6           0        3.250754    0.251219   -1.401887
      3          6           0        4.484716    1.151848   -1.465117
      4          1           0        2.912571    0.484405    0.714267
      5          1           0        3.906130   -0.907280    0.293344
      6          1           0        2.361784    0.820493   -1.702344
      7          1           0        3.355331   -0.570254   -2.122208
      8          1           0        5.384706    0.592027   -1.190856
      9          1           0        4.385513    1.990676   -0.768606
     10          1           0        4.632370    1.560585   -2.469604
     11          6           0        1.787921   -1.238162    0.069919
     12          6           0        1.555049   -1.824958    1.462551
     13          6           0        0.321087   -2.725588    1.525782
     14          1           0        0.899673   -0.666460   -0.232680
     15          1           0        1.893232   -2.058145   -0.653602
     16          1           0        1.450472   -1.003486    2.182872
     17          1           0        2.444019   -2.394233    1.763008
     18          1           0        0.420290   -3.564416    0.829271
     19          1           0       -0.578903   -2.165767    1.251520
     20          1           0        0.173433   -3.134324    2.530268
     21          6           0       -2.965067    0.269942   -0.044024
     22          6           0       -3.229770   -0.301267   -1.437450
     23          6           0       -4.357150   -1.334070   -1.448597
     24          1           0       -2.717860   -0.552227    0.641448
     25          1           0       -3.887615    0.728658    0.337920
     26          1           0       -2.306625   -0.757549   -1.817222
     27          1           0       -3.476187    0.522378   -2.119728
     28          1           0       -5.292030   -0.887713   -1.094530
     29          1           0       -4.115822   -2.174913   -0.790305
     30          1           0       -4.529555   -1.729358   -2.454521
     31          6           0       -1.840735    1.303798   -0.016641
     32          6           0       -1.576034    1.875006    1.376785
     33          6           0       -0.448654    2.907811    1.387932
     34          1           0       -0.918188    0.845081   -0.398585
     35          1           0       -2.087943    2.125967   -0.702113
     36          1           0       -1.329616    1.051362    2.059063
     37          1           0       -2.499178    2.331289    1.756557
     38          1           0       -0.689980    3.748653    0.729640
     39          1           0        0.486228    2.461453    1.033865
     40          1           0       -0.276248    3.303098    2.393857
 ---------------------------------------------------------------------

 SCF Done:  E(RHF) =  -470.733315889     A.U. after   11 cycles
 E2 =    -0.1584458077D+01 EUMP2 =    -0.47231777396596D+03

 The electronic state is 1-A.
 Alpha  occ. eigenvalues --  -11.21670 -11.21668 -11.21637 -11.21621 -11.21460
 Alpha  occ. eigenvalues --  -11.21458 -11.21401 -11.21399 -11.21151 -11.21150
 Alpha  occ. eigenvalues --  -11.21087 -11.21073  -1.08525  -1.08452  -1.03584
 Alpha  occ. eigenvalues --   -1.03571  -0.96034  -0.96025  -0.87069  -0.87021
 Alpha  occ. eigenvalues --   -0.79663  -0.79616  -0.78382  -0.78230  -0.65447
 Alpha  occ. eigenvalues --   -0.64830  -0.61011  -0.60927  -0.59397  -0.59392
 Alpha  occ. eigenvalues --   -0.57689  -0.57592  -0.55359  -0.55298  -0.52724
 Alpha  occ. eigenvalues --   -0.52714  -0.52465  -0.52453  -0.50139  -0.49824
 Alpha  occ. eigenvalues --   -0.47968  -0.47950  -0.46822  -0.46585  -0.46214
 Alpha  occ. eigenvalues --   -0.45828  -0.45758  -0.45277  -0.43838  -0.43829
 Alpha virt. eigenvalues --    0.18177   0.21610   0.24190   0.24813   0.25124
 Alpha virt. eigenvalues --    0.25997   0.26388   0.28240   0.28960   0.29884
 Alpha virt. eigenvalues --    0.30806   0.31597   0.31705   0.31954   0.32243

 Mulliken charges:
               1
     1  C   -0.299368
     2  C   -0.300303
     3  C   -0.475751
     4  H    0.150586
     5  H    0.150024
     6  H    0.152130
     7  H    0.152125
     8  H    0.155235
     9  H    0.155489
    10  H    0.160490
    11  C   -0.307221
    12  C   -0.299539
    13  C   -0.480127
    14  H    0.157091
    15  H    0.150030
    16  H    0.152327
    17  H    0.152499
    18  H    0.155631
    19  H    0.157858
    20  H    0.160782
    21  C   -0.301996
    22  C   -0.300013
    23  C   -0.475850
    24  H    0.152659
    25  H    0.150126
    26  H    0.152478
    27  H    0.152051
    28  H    0.155138
    29  H    0.155644
    30  H    0.160405
    31  C   -0.306122
    32  C   -0.300299
    33  C   -0.477416
    34  H    0.155975
    35  H    0.150336
    36  H    0.152461
    37  H    0.152586
    38  H    0.155684
    39  H    0.155492
    40  H    0.160675
 Sum of Mulliken charges =  -0.00000

 Dipole moment (field-independent basis, Debye):
    X=             -0.0020    Y=             -0.0008    Z=             -0.0055  Tot=              0.0059
 Quadrupole moment (field-independent basis, Debye-Ang):
   XX=            -85.2443   YY=            -84.5541   ZZ=            -84.7467
   XY=             -2.1985   XZ=              0.0161   YZ=              0.0815

 Normal termination of Gaussian 16 at Wed May  5 23:05:01 2021.
