 Gaussian 16, Revision A.03,
 Gaussian 16:  EM64L-G16RevA.03 25-Dec-2016

 -------------
 #p 6-31g* mp2
 -------------

 ------------------------------------------------------
 Input file generated by CHIRIPA (05-May-2021 14:55:21)
 ------------------------------------------------------
 Symbolic Z-matrix:
 Charge =  0 Multiplicity = 1

                         Standard orientation:
 ---------------------------------------------------------------------
 Center     Atomic      Atomic             Coordinates (Angstroms)
 Number     Number       Type             X           Y           Z
 ---------------------------------------------------------------------
      1          6           0        0.895362   -1.078174    1.323991
      2          6           0        0.745060   -0.515147    0.052405
      3          6           0        1.854834   -0.026528   -0.643441
      4          6           0        3.105804   -0.117348   -0.035071
      5          6           0        3.287902   -0.672781    1.230482
      6          6           0        2.164067   -1.155059    1.907941
      7          1           0        0.027802   -1.455282    1.857399
      8          1           0       -0.239024   -0.454122   -0.403556
      9          1           0        1.767017    0.414224   -1.629060
     10          1           0        4.281624   -0.719757    1.659116
     11          1           0        2.283785   -1.591802    2.895346
     12          7           0        4.288115    0.396574   -0.761999
     13          8           0        5.379467    0.304864   -0.204166
     14          8           0        4.101072    0.881366   -1.875835
     15          6           0       -3.295058    0.802203    0.211276
     16          6           0       -3.878238    2.207244    0.057167
     17          6           0       -3.004754    3.283842    0.701959
     18          1           0       -3.166320    0.580683    1.279592
     19          1           0       -2.291711    0.778119   -0.236059
     20          1           0       -4.880745    2.228303    0.503433
     21          1           0       -4.005781    2.425372   -1.010900
     22          1           0       -2.007277    3.291893    0.250764
     23          1           0       -2.887212    3.093704    1.773702
     24          1           0       -3.440337    4.280461    0.579980
     25          6           0       -4.156961   -0.284960   -0.428199
     26          6           0       -3.573782   -1.690000   -0.274090
     27          6           0       -4.447266   -2.766598   -0.918882
     28          1           0       -5.160309   -0.260875    0.019136
     29          1           0       -4.285700   -0.063439   -1.496516
     30          1           0       -3.446238   -1.908128    0.793977
     31          1           0       -2.571275   -1.711059   -0.720356
     32          1           0       -4.564808   -2.576460   -1.990625
     33          1           0       -5.444743   -2.774648   -0.467687
     34          1           0       -4.011683   -3.763217   -0.796903
 ---------------------------------------------------------------------

 SCF Done:  E(RHF) =  -669.535413987     A.U. after   15 cycles
 E2 =    -0.2091798855D+01 EUMP2 =    -0.67162721284173D+03

 The electronic state is 1-A.
 Alpha  occ. eigenvalues --  -20.60723 -20.60718 -15.85775 -11.31128 -11.27701
 Alpha  occ. eigenvalues --  -11.27693 -11.27421 -11.26707 -11.26660 -11.22711
 Alpha  occ. eigenvalues --  -11.22428 -11.22323 -11.22296 -11.21898 -11.21651
 Alpha  occ. eigenvalues --   -1.59799  -1.39352  -1.19298  -1.09371  -1.08690
 Alpha  occ. eigenvalues --   -1.04702  -1.04370  -0.96794  -0.95529  -0.87807
 Alpha  occ. eigenvalues --   -0.86101  -0.82366  -0.80457  -0.79224  -0.77412
 Alpha  occ. eigenvalues --   -0.71994  -0.71122  -0.70397  -0.66057  -0.64947
 Alpha  occ. eigenvalues --   -0.64677  -0.62058  -0.61764  -0.60171  -0.58417
 Alpha  occ. eigenvalues --   -0.56076  -0.55188  -0.53470  -0.53235  -0.53019
 Alpha  occ. eigenvalues --   -0.52800  -0.50736  -0.48768  -0.48754  -0.48749
 Alpha  occ. eigenvalues --   -0.47502  -0.46696  -0.46630  -0.44761  -0.44648
 Alpha  occ. eigenvalues --   -0.37269  -0.36302
 Alpha virt. eigenvalues --    0.05119   0.11279   0.16590   0.19142   0.22720
 Alpha virt. eigenvalues --    0.23546   0.24273   0.25571   0.27204   0.28359
 Alpha virt. eigenvalues --    0.29765   0.30299   0.31148   0.31327   0.31490

 Mulliken charges:
               1
     1  C   -0.173259
     2  C   -0.225557
     3  C   -0.173056
     4  C    0.158979
     5  C   -0.171100
     6  C   -0.218644
     7  H    0.226534
     8  H    0.234563
     9  H    0.275318
    10  H    0.275369
    11  H    0.223097
    12  N    0.488030
    13  O   -0.460635
    14  O   -0.460685
    15  C   -0.302631
    16  C   -0.299959
    17  C   -0.476408
    18  H    0.148661
    19  H    0.144101
    20  H    0.154522
    21  H    0.154265
    22  H    0.156320
    23  H    0.155392
    24  H    0.163627
    25  C   -0.298654
    26  C   -0.303382
    27  C   -0.475761
    28  H    0.153701
    29  H    0.152723
    30  H    0.149518
    31  H    0.146459
    32  H    0.158225
    33  H    0.158266
    34  H    0.162063
 Sum of Mulliken charges =  -0.00000

 Dipole moment (field-independent basis, Debye):
    X=             -4.4147    Y=             -1.7668    Z=              2.5587  Tot=              5.3998
 Quadrupole moment (field-independent basis, Debye-Ang):
   XX=           -118.4138   YY=            -95.1148   ZZ=            -91.6419
   XY=             -6.5068   XZ=             10.2357   YZ=             -1.8621

 Normal termination of Gaussian 16 at Wed May  5 17:27:44 2021.
