 Gaussian 16, Revision A.03,
 Gaussian 16:  EM64L-G16RevA.03 25-Dec-2016

 -------------
 #p 6-31g* mp2
 -------------

 ------------------------------------------------------
 Input file generated by CHIRIPA (05-May-2021 14:57:22)
 ------------------------------------------------------
 Symbolic Z-matrix:
 Charge =  0 Multiplicity = 1

                         Standard orientation:
 ---------------------------------------------------------------------
 Center     Atomic      Atomic             Coordinates (Angstroms)
 Number     Number       Type             X           Y           Z
 ---------------------------------------------------------------------
      1          6           0        2.854808   -2.298042    0.498305
      2          6           0        3.501461   -1.880009   -0.669431
      3          6           0        3.659629   -0.518527   -0.944929
      4          6           0        3.156676    0.401876   -0.026677
      5          6           0        2.507753    0.016718    1.145433
      6          6           0        2.360888   -1.350016    1.400420
      7          1           0        2.736329   -3.357714    0.704351
      8          1           0        3.886049   -2.614026   -1.371825
      9          1           0        4.156147   -0.167248   -1.841305
     10          1           0        2.134950    0.771946    1.826656
     11          1           0        1.858259   -1.671768    2.308101
     12          7           0        3.318138    1.845996   -0.307477
     13          8           0        2.866111    2.637012    0.517510
     14          8           0        3.893663    2.159537   -1.347237
     15          6           0       -1.165297   -1.745449    0.045286
     16          6           0       -2.292432   -2.060395   -0.720808
     17          6           0       -3.386848   -1.191533   -0.764174
     18          6           0       -3.320012   -0.010967   -0.025876
     19          6           0       -2.211251    0.330880    0.746833
     20          6           0       -1.128370   -0.552919    0.775374
     21          1           0       -0.319609   -2.426204    0.073215
     22          1           0       -2.323889   -2.985828   -1.288812
     23          1           0       -4.271993   -1.410595   -1.348936
     24          1           0       -2.209172    1.260786    1.302432
     25          1           0       -0.254339   -0.305733    1.371205
     26          7           0       -4.472515    0.916766   -0.063938
     27          8           0       -4.388913    1.950610    0.595468
     28          8           0       -5.437627    0.592511   -0.752456
 ---------------------------------------------------------------------

 SCF Done:  E(RHF) =  -868.335185643     A.U. after   16 cycles
 E2 =    -0.2603316193D+01 EUMP2 =    -0.87093850183586D+03

 The electronic state is 1-A.
 Alpha  occ. eigenvalues --  -20.61585 -20.61576 -20.60775 -20.60764 -15.86648
 Alpha  occ. eigenvalues --  -15.85828 -11.32315 -11.31260 -11.28967 -11.28843
 Alpha  occ. eigenvalues --  -11.28721 -11.28056 -11.27928 -11.27857 -11.27825
 Alpha  occ. eigenvalues --  -11.27611 -11.26904 -11.26822  -1.60651  -1.59846
 Alpha  occ. eigenvalues --   -1.40197  -1.39398  -1.20533  -1.19449  -1.09869
 Alpha  occ. eigenvalues --   -1.08840  -1.06000  -1.04862  -0.96649  -0.95659
 Alpha  occ. eigenvalues --   -0.87352  -0.86285  -0.83488  -0.82491  -0.78484
 Alpha  occ. eigenvalues --   -0.77521  -0.72861  -0.72048  -0.71976  -0.71631
 Alpha  occ. eigenvalues --   -0.71170  -0.70586  -0.66197  -0.65973  -0.65103
 Alpha  occ. eigenvalues --   -0.64969  -0.63301  -0.62207  -0.56454  -0.55419
 Alpha  occ. eigenvalues --   -0.54314  -0.54054  -0.53177  -0.52893  -0.49640
 Alpha  occ. eigenvalues --   -0.49598  -0.48814  -0.48796  -0.45536  -0.44788
 Alpha  occ. eigenvalues --   -0.38521  -0.37654  -0.37346  -0.36439
 Alpha virt. eigenvalues --    0.04008   0.05021   0.09903   0.11212   0.15302
 Alpha virt. eigenvalues --    0.16490   0.19348   0.22096   0.25136   0.26333
 Alpha virt. eigenvalues --    0.28496   0.28889   0.29743   0.30858   0.32237

 Mulliken charges:
               1
     1  C   -0.177499
     2  C   -0.217554
     3  C   -0.168880
     4  C    0.162487
     5  C   -0.175216
     6  C   -0.226455
     7  H    0.227713
     8  H    0.227693
     9  H    0.280273
    10  H    0.276770
    11  H    0.225911
    12  N    0.488078
    13  O   -0.458014
    14  O   -0.455911
    15  C   -0.173028
    16  C   -0.219012
    17  C   -0.170547
    18  C    0.158833
    19  C   -0.171144
    20  C   -0.217159
    21  H    0.220219
    22  H    0.221600
    23  H    0.275797
    24  H    0.277889
    25  H    0.218442
    26  N    0.488016
    27  O   -0.458696
    28  O   -0.460607
 Sum of Mulliken charges =  -0.00000

 Dipole moment (field-independent basis, Debye):
    X=              3.8064    Y=             -8.1817    Z=              0.9593  Tot=              9.0746
 Quadrupole moment (field-independent basis, Debye-Ang):
   XX=           -133.0754   YY=           -107.6498   ZZ=           -100.0209
   XY=             -4.5091   XZ=              1.6178   YZ=              4.0427

 Normal termination of Gaussian 16 at Wed May  5 19:19:47 2021.
