 Gaussian 16, Revision A.03,
 Gaussian 16:  EM64L-G16RevA.03 25-Dec-2016

 -------------
 #p 6-31g* mp2
 -------------

 ------------------------------------------------------
 Input file generated by CHIRIPA (05-May-2021 14:53:16)
 ------------------------------------------------------
 Symbolic Z-matrix:
 Charge =  0 Multiplicity = 1

                         Standard orientation:
 ---------------------------------------------------------------------
 Center     Atomic      Atomic             Coordinates (Angstroms)
 Number     Number       Type             X           Y           Z
 ---------------------------------------------------------------------
      1          6           0       -3.572819    0.764547    0.447220
      2          6           0       -2.592108    1.808932   -0.087056
      3          6           0       -2.775128    3.179794    0.564890
      4          1           0       -4.600117    1.116820    0.281362
      5          1           0       -3.445084    0.674342    1.534851
      6          1           0       -2.720699    1.896140   -1.173553
      7          1           0       -1.567027    1.454045    0.079920
      8          1           0       -2.626399    3.114425    1.647575
      9          1           0       -3.786625    3.559033    0.386980
     10          1           0       -2.063976    3.911120    0.168296
     11          6           0       -3.402266   -0.611058   -0.194924
     12          6           0       -4.382978   -1.655443    0.339352
     13          6           0       -4.199958   -3.026305   -0.312594
     14          1           0       -3.530002   -0.520853   -1.282556
     15          1           0       -2.374969   -0.963331   -0.029067
     16          1           0       -5.408058   -1.300556    0.172376
     17          1           0       -4.254387   -1.742651    1.425849
     18          1           0       -3.188460   -3.405544   -0.134685
     19          1           0       -4.348687   -2.960936   -1.395280
     20          1           0       -4.911109   -3.757631    0.084000
     21          6           0        3.539716   -2.403245    0.360334
     22          6           0        2.312040   -2.201764   -0.278992
     23          6           0        1.850495   -0.907828   -0.538327
     24          6           0        2.645845    0.166584   -0.142916
     25          6           0        3.873430   -0.001661    0.495845
     26          6           0        4.315127   -1.304488    0.745034
     27          1           0        3.890546   -3.411859    0.557850
     28          1           0        1.707739   -3.053194   -0.578876
     29          1           0        0.903972   -0.723174   -1.031697
     30          1           0        4.453619    0.866878    0.782967
     31          1           0        5.268965   -1.457957    1.241707
     32          7           0        2.167735    1.541122   -0.412093
     33          8           0        2.887189    2.470971   -0.053758
     34          8           0        1.082591    1.662609   -0.976311
 ---------------------------------------------------------------------

 SCF Done:  E(RHF) =  -669.536073213     A.U. after   15 cycles
 E2 =    -0.2091316021D+01 EUMP2 =    -0.67162738923421D+03

 The electronic state is 1-A.
 Alpha  occ. eigenvalues --  -20.60924 -20.60919 -15.85949 -11.31278 -11.27843
 Alpha  occ. eigenvalues --  -11.27837 -11.27581 -11.26853 -11.26842 -11.21515
 Alpha  occ. eigenvalues --  -11.21187 -11.21156 -11.20840 -11.20563 -11.20103
 Alpha  occ. eigenvalues --   -1.59984  -1.39540  -1.19449  -1.08852  -1.08020
 Alpha  occ. eigenvalues --   -1.04845  -1.03034  -0.95693  -0.95535  -0.86560
 Alpha  occ. eigenvalues --   -0.86245  -0.82526  -0.79156  -0.77784  -0.77536
 Alpha  occ. eigenvalues --   -0.72171  -0.71297  -0.70555  -0.65105  -0.64849
 Alpha  occ. eigenvalues --   -0.64661  -0.62191  -0.60436  -0.58943  -0.57088
 Alpha  occ. eigenvalues --   -0.55349  -0.54858  -0.53177  -0.52935  -0.52207
 Alpha  occ. eigenvalues --   -0.51955  -0.49522  -0.48943  -0.48931  -0.47452
 Alpha  occ. eigenvalues --   -0.46236  -0.45432  -0.45247  -0.44685  -0.43304
 Alpha  occ. eigenvalues --   -0.37428  -0.36447
 Alpha virt. eigenvalues --    0.04911   0.11192   0.16383   0.20885   0.23074
 Alpha virt. eigenvalues --    0.24798   0.25511   0.27368   0.27634   0.28329
 Alpha virt. eigenvalues --    0.29251   0.30918   0.31778   0.31948   0.32755

 Mulliken charges:
               1
     1  C   -0.298564
     2  C   -0.303314
     3  C   -0.476467
     4  H    0.147761
     5  H    0.146910
     6  H    0.151617
     7  H    0.166663
     8  H    0.151008
     9  H    0.149709
    10  H    0.169534
    11  C   -0.296137
    12  C   -0.299077
    13  C   -0.474701
    14  H    0.149822
    15  H    0.141958
    16  H    0.153164
    17  H    0.151424
    18  H    0.149538
    19  H    0.155272
    20  H    0.160125
    21  C   -0.170624
    22  C   -0.218737
    23  C   -0.172799
    24  C    0.158164
    25  C   -0.170845
    26  C   -0.218566
    27  H    0.225999
    28  H    0.224095
    29  H    0.277678
    30  H    0.275781
    31  H    0.223779
    32  N    0.488960
    33  O   -0.459131
    34  O   -0.460001
 Sum of Mulliken charges =  -0.00000

 Dipole moment (field-independent basis, Debye):
    X=              1.8783    Y=             -4.7292    Z=              0.9020  Tot=              5.1679
 Quadrupole moment (field-independent basis, Debye-Ang):
   XX=            -82.6093   YY=            -97.2432   ZZ=            -94.5697
   XY=            -11.1970   XZ=              5.0579   YZ=              1.0205

 Normal termination of Gaussian 16 at Thu May  6 04:20:44 2021.
