 Gaussian 16, Revision A.03,
 Gaussian 16:  EM64L-G16RevA.03 25-Dec-2016

 -------------
 #p 6-31g* mp2
 -------------

 ------------------------------------------------------
 Input file generated by CHIRIPA (05-May-2021 14:53:15)
 ------------------------------------------------------
 Symbolic Z-matrix:
 Charge =  0 Multiplicity = 1

                         Standard orientation:
 ---------------------------------------------------------------------
 Center     Atomic      Atomic             Coordinates (Angstroms)
 Number     Number       Type             X           Y           Z
 ---------------------------------------------------------------------
      1          6           0       -4.592062    0.012434    0.519353
      2          6           0       -3.287241   -0.656849    0.086354
      3          6           0       -2.098324   -0.254354    0.959433
      4          1           0       -4.465125    1.103243    0.488246
      5          1           0       -4.799911   -0.248325    1.566348
      6          1           0       -3.082632   -0.396027   -0.959936
      7          1           0       -3.417359   -1.746190    0.118312
      8          1           0       -2.276749   -0.529606    2.003944
      9          1           0       -1.940120    0.828228    0.919569
     10          1           0       -1.175932   -0.744286    0.632294
     11          6           0       -5.789760   -0.380039   -0.343904
     12          6           0       -7.094581    0.289243    0.089096
     13          6           0       -8.283498   -0.113251   -0.783984
     14          1           0       -5.581910   -0.119280   -1.390899
     15          1           0       -5.916697   -1.470848   -0.312796
     16          1           0       -6.964462    1.378584    0.057138
     17          1           0       -7.299190    0.028422    1.135386
     18          1           0       -8.441702   -1.195833   -0.744120
     19          1           0       -8.105073    0.162001   -1.828494
     20          1           0       -9.205890    0.376681   -0.456844
     21          6           0        2.349456    1.999251    0.042041
     22          6           0        1.943894    0.666899    0.171958
     23          6           0        2.880423   -0.369394    0.112280
     24          6           0        4.220323   -0.035802   -0.079225
     25          6           0        4.655554    1.281852   -0.212091
     26          6           0        3.701608    2.301941   -0.149231
     27          1           0        1.615173    2.797973    0.089637
     28          1           0        0.894469    0.428864    0.320590
     29          1           0        2.593945   -1.409505    0.209834
     30          1           0        5.708770    1.487936   -0.359343
     31          1           0        4.019454    3.335757   -0.250444
     32          7           0        5.221004   -1.124302   -0.144088
     33          8           0        6.395466   -0.804067   -0.313575
     34          8           0        4.811928   -2.277091   -0.024211
 ---------------------------------------------------------------------

 SCF Done:  E(RHF) =  -669.535514793     A.U. after   15 cycles
 E2 =    -0.2090800191D+01 EUMP2 =    -0.67162631498437D+03

 The electronic state is 1-A.
 Alpha  occ. eigenvalues --  -20.60708 -20.60703 -15.85760 -11.31111 -11.27677
 Alpha  occ. eigenvalues --  -11.27662 -11.27409 -11.26698 -11.26620 -11.22421
 Alpha  occ. eigenvalues --  -11.22238 -11.22042 -11.22026 -11.21878 -11.21419
 Alpha  occ. eigenvalues --   -1.59783  -1.39337  -1.19277  -1.09051  -1.08675
 Alpha  occ. eigenvalues --   -1.04678  -1.04196  -0.96673  -0.95515  -0.87702
 Alpha  occ. eigenvalues --   -0.86073  -0.82348  -0.80265  -0.78822  -0.77397
 Alpha  occ. eigenvalues --   -0.71979  -0.71106  -0.70391  -0.65678  -0.64928
 Alpha  occ. eigenvalues --   -0.64704  -0.62077  -0.61575  -0.60052  -0.58254
 Alpha  occ. eigenvalues --   -0.55954  -0.55184  -0.53503  -0.53100  -0.53009
 Alpha  occ. eigenvalues --   -0.52628  -0.50594  -0.48736  -0.48734  -0.48574
 Alpha  occ. eigenvalues --   -0.47272  -0.46376  -0.46272  -0.44746  -0.44437
 Alpha  occ. eigenvalues --   -0.37260  -0.36279
 Alpha virt. eigenvalues --    0.05134   0.11371   0.16632   0.20250   0.22466
 Alpha virt. eigenvalues --    0.23767   0.25886   0.26072   0.26813   0.27900
 Alpha virt. eigenvalues --    0.28844   0.30167   0.30790   0.31334   0.32376

 Mulliken charges:
               1
     1  C   -0.299244
     2  C   -0.299302
     3  C   -0.481498
     4  H    0.149116
     5  H    0.151261
     6  H    0.153125
     7  H    0.156083
     8  H    0.161886
     9  H    0.151593
    10  H    0.155524
    11  C   -0.298909
    12  C   -0.300050
    13  C   -0.476048
    14  H    0.150163
    15  H    0.151311
    16  H    0.151832
    17  H    0.152725
    18  H    0.156131
    19  H    0.155601
    20  H    0.161391
    21  C   -0.173071
    22  C   -0.226602
    23  C   -0.173634
    24  C    0.158819
    25  C   -0.171505
    26  C   -0.218341
    27  H    0.225515
    28  H    0.236241
    29  H    0.274930
    30  H    0.275259
    31  H    0.222947
    32  N    0.488108
    33  O   -0.460745
    34  O   -0.460611
 Sum of Mulliken charges =  -0.00000

 Dipole moment (field-independent basis, Debye):
    X=             -3.8014    Y=              3.8053    Z=              0.2456  Tot=              5.3843
 Quadrupole moment (field-independent basis, Debye-Ang):
   XX=           -122.2696   YY=            -92.5016   ZZ=            -95.4503
   XY=             19.3791   XZ=              0.0093   YZ=             -1.4753

 Normal termination of Gaussian 16 at Thu May  6 20:23:54 2021.
