 Gaussian 16, Revision A.03,
 Gaussian 16:  EM64L-G16RevA.03 25-Dec-2016

 -------------
 #p 6-31g* mp2
 -------------

 ------------------------------------------------------
 Input file generated by CHIRIPA (05-May-2021 14:51:11)
 ------------------------------------------------------
 Symbolic Z-matrix:
 Charge =  0 Multiplicity = 1

                         Standard orientation:
 ---------------------------------------------------------------------
 Center     Atomic      Atomic             Coordinates (Angstroms)
 Number     Number       Type             X           Y           Z
 ---------------------------------------------------------------------
      1          6           0       -1.781881    1.631500    0.426433
      2          6           0       -0.706431    2.470663   -0.264363
      3          6           0       -0.027658    3.458984    0.684469
      4          1           0       -2.536334    2.300644    0.862313
      5          1           0       -1.328108    1.084191    1.264250
      6          1           0       -1.161813    3.015158   -1.101483
      7          1           0        0.045449    1.799437   -0.698814
      8          1           0        0.452530    2.929221    1.513548
      9          1           0       -0.761592    4.151849    1.108592
     10          1           0        0.737589    4.048483    0.169933
     11          6           0       -2.469532    0.638752   -0.509149
     12          6           0       -3.544982   -0.200411    0.181646
     13          6           0       -4.223755   -1.188732   -0.767186
     14          1           0       -2.923305    1.186061   -1.346967
     15          1           0       -1.715079   -0.030392   -0.945029
     16          1           0       -4.296862    0.470815    0.616098
     17          1           0       -3.089600   -0.744906    1.018766
     18          1           0       -3.489821   -1.881597   -1.191309
     19          1           0       -4.703943   -0.658969   -1.596265
     20          1           0       -4.989002   -1.778231   -0.252649
     21          6           0        1.653336   -1.486958    0.527683
     22          6           0        0.576340   -2.319679   -0.168479
     23          6           0       -0.360913   -3.017408    0.817688
     24          1           0        2.237323   -2.137149    1.193383
     25          1           0        1.169741   -0.736870    1.168697
     26          1           0        1.061816   -3.067069   -0.809055
     27          1           0       -0.005029   -1.667468   -0.832743
     28          1           0       -0.871671   -2.283158    1.449039
     29          1           0        0.201235   -3.690711    1.472862
     30          1           0       -1.122984   -3.607080    0.298656
     31          6           0        2.598077   -0.783294   -0.444966
     32          6           0        3.675073    0.049427    0.251195
     33          6           0        4.612326    0.747155   -0.734971
     34          1           0        3.081673   -1.533381   -1.085980
     35          1           0        2.014090   -0.133103   -1.110666
     36          1           0        4.256442   -0.602784    0.915460
     37          1           0        3.189598    0.796817    0.891772
     38          1           0        4.050179    1.420460   -1.390145
     39          1           0        5.123084    0.012907   -1.366322
     40          1           0        5.374397    1.336829   -0.215939
 ---------------------------------------------------------------------

 SCF Done:  E(RHF) =  -470.733086494     A.U. after   11 cycles
 E2 =    -0.1585210679D+01 EUMP2 =    -0.47231829717316D+03

 The electronic state is 1-A.
 Alpha  occ. eigenvalues --  -11.21677 -11.21673 -11.21639 -11.21604 -11.21477
 Alpha  occ. eigenvalues --  -11.21457 -11.21416 -11.21380 -11.21153 -11.21142
 Alpha  occ. eigenvalues --  -11.21093 -11.21069  -1.08543  -1.08435  -1.03616
 Alpha  occ. eigenvalues --   -1.03543  -0.96040  -0.96018  -0.87055  -0.87034
 Alpha  occ. eigenvalues --   -0.79705  -0.79589  -0.78413  -0.78195  -0.65568
 Alpha  occ. eigenvalues --   -0.64713  -0.61227  -0.60735  -0.59419  -0.59370
 Alpha  occ. eigenvalues --   -0.57649  -0.57629  -0.55325  -0.55308  -0.52729
 Alpha  occ. eigenvalues --   -0.52708  -0.52482  -0.52434  -0.49994  -0.49963
 Alpha  occ. eigenvalues --   -0.48036  -0.47880  -0.46972  -0.46548  -0.46152
 Alpha  occ. eigenvalues --   -0.45962  -0.45644  -0.45231  -0.43843  -0.43823
 Alpha virt. eigenvalues --    0.17896   0.21200   0.23654   0.24936   0.25142
 Alpha virt. eigenvalues --    0.25897   0.26786   0.27842   0.29092   0.29917
 Alpha virt. eigenvalues --    0.30346   0.31372   0.31673   0.32059   0.32514

 Mulliken charges:
               1
     1  C   -0.299227
     2  C   -0.303851
     3  C   -0.475947
     4  H    0.150265
     5  H    0.149598
     6  H    0.152511
     7  H    0.154666
     8  H    0.154942
     9  H    0.155709
    10  H    0.160557
    11  C   -0.305366
    12  C   -0.301661
    13  C   -0.476422
    14  H    0.149848
    15  H    0.156239
    16  H    0.151872
    17  H    0.154769
    18  H    0.155901
    19  H    0.155030
    20  H    0.160407
    21  C   -0.299870
    22  C   -0.305915
    23  C   -0.478593
    24  H    0.150288
    25  H    0.150355
    26  H    0.152761
    27  H    0.156780
    28  H    0.157107
    29  H    0.155745
    30  H    0.161082
    31  C   -0.301320
    32  C   -0.300253
    33  C   -0.475716
    34  H    0.150028
    35  H    0.151915
    36  H    0.152087
    37  H    0.152662
    38  H    0.155315
    39  H    0.155197
    40  H    0.160505
 Sum of Mulliken charges =  -0.00000

 Dipole moment (field-independent basis, Debye):
    X=              0.0067    Y=             -0.0095    Z=             -0.0016  Tot=              0.0118
 Quadrupole moment (field-independent basis, Debye-Ang):
   XX=            -84.7474   YY=            -84.4335   ZZ=            -85.3901
   XY=             -1.8999   XZ=              0.2824   YZ=             -0.2877

 Normal termination of Gaussian 16 at Thu May  6 00:40:05 2021.
