 Gaussian 16, Revision A.03,
 Gaussian 16:  EM64L-G16RevA.03 25-Dec-2016

 -------------
 #p 6-31g* mp2
 -------------

 ------------------------------------------------------
 Input file generated by CHIRIPA (05-May-2021 14:57:25)
 ------------------------------------------------------
 Symbolic Z-matrix:
 Charge =  0 Multiplicity = 1

                         Standard orientation:
 ---------------------------------------------------------------------
 Center     Atomic      Atomic             Coordinates (Angstroms)
 Number     Number       Type             X           Y           Z
 ---------------------------------------------------------------------
      1          6           0        4.259353   -1.182374   -1.106913
      2          6           0        3.780305    0.088717   -1.440625
      3          6           0        2.902632    0.763424   -0.586804
      4          6           0        2.522994    0.134649    0.598020
      5          6           0        2.982984   -1.130979    0.958413
      6          6           0        3.859868   -1.787099    0.089431
      7          1           0        4.940845   -1.699283   -1.776070
      8          1           0        4.088850    0.560784   -2.369063
      9          1           0        2.516505    1.748156   -0.820527
     10          1           0        2.657499   -1.575956    1.890869
     11          1           0        4.230304   -2.774171    0.351177
     12          7           0        1.594259    0.839093    1.509946
     13          8           0        1.274920    0.263526    2.547917
     14          8           0        1.203240    1.953463    1.169476
     15          6           0       -0.867890    1.396010   -1.494368
     16          6           0       -1.894464    2.001442   -0.762169
     17          6           0       -2.901547    1.227545   -0.177861
     18          6           0       -2.850869   -0.155303   -0.346537
     19          6           0       -1.841309   -0.788004   -1.070255
     20          6           0       -0.844629    0.005669   -1.645808
     21          1           0       -0.089604    2.004873   -1.944871
     22          1           0       -1.915072    3.080979   -0.642913
     23          1           0       -3.707970    1.670227    0.394094
     24          1           0       -1.847569   -1.866461   -1.171793
     25          1           0       -0.048602   -0.467246   -2.213907
     26          7           0       -3.911515   -0.985062    0.267409
     27          8           0       -3.844238   -2.201393    0.104163
     28          8           0       -4.790043   -0.403383    0.900240
 ---------------------------------------------------------------------

 SCF Done:  E(RHF) =  -868.337568026     A.U. after   16 cycles
 E2 =    -0.2602508910D+01 EUMP2 =    -0.87094007693605D+03

 The electronic state is 1-A.
 Alpha  occ. eigenvalues --  -20.61344 -20.61338 -20.60248 -20.60229 -15.86376
 Alpha  occ. eigenvalues --  -15.85294 -11.31873 -11.30590 -11.28529 -11.28376
 Alpha  occ. eigenvalues --  -11.28171 -11.27530 -11.27417 -11.27230 -11.27098
 Alpha  occ. eigenvalues --  -11.26961 -11.26255 -11.26085  -1.60391  -1.59315
 Alpha  occ. eigenvalues --   -1.39952  -1.38872  -1.20049  -1.18768  -1.09404
 Alpha  occ. eigenvalues --   -1.08185  -1.05475  -1.04166  -0.96231  -0.95033
 Alpha  occ. eigenvalues --   -0.86856  -0.85574  -0.83068  -0.81870  -0.78109
 Alpha  occ. eigenvalues --   -0.76913  -0.72621  -0.71713  -0.71521  -0.71148
 Alpha  occ. eigenvalues --   -0.70629  -0.69929  -0.65696  -0.65460  -0.64436
 Alpha  occ. eigenvalues --   -0.64187  -0.62820  -0.61527  -0.55940  -0.54738
 Alpha  occ. eigenvalues --   -0.53803  -0.53542  -0.52483  -0.52267  -0.49392
 Alpha  occ. eigenvalues --   -0.49346  -0.48276  -0.48269  -0.45344  -0.44295
 Alpha  occ. eigenvalues --   -0.38052  -0.37157  -0.36593  -0.35703
 Alpha virt. eigenvalues --    0.04373   0.05670   0.10455   0.11982   0.15905
 Alpha virt. eigenvalues --    0.17119   0.20143   0.21975   0.25803   0.27202
 Alpha virt. eigenvalues --    0.27805   0.29073   0.30443   0.31119   0.32948

 Mulliken charges:
               1
     1  C   -0.171611
     2  C   -0.221324
     3  C   -0.176434
     4  C    0.162926
     5  C   -0.170740
     6  C   -0.218510
     7  H    0.227798
     8  H    0.223163
     9  H    0.269457
    10  H    0.279398
    11  H    0.226870
    12  N    0.490010
    13  O   -0.455280
    14  O   -0.463638
    15  C   -0.161913
    16  C   -0.206870
    17  C   -0.169015
    18  C    0.159595
    19  C   -0.171897
    20  C   -0.225838
    21  H    0.217136
    22  H    0.225510
    23  H    0.275794
    24  H    0.272189
    25  H    0.218180
    26  N    0.488576
    27  O   -0.463594
    28  O   -0.459938
 Sum of Mulliken charges =  -0.00000

 Dipole moment (field-independent basis, Debye):
    X=              7.0729    Y=              0.5002    Z=             -5.1026  Tot=              8.7357
 Quadrupole moment (field-independent basis, Debye-Ang):
   XX=           -109.7735   YY=           -100.2590   ZZ=           -105.7752
   XY=            -17.9452   XZ=             -2.1225   YZ=             -3.7524

 Normal termination of Gaussian 16 at Wed May  5 16:27:52 2021.
