 Gaussian 16, Revision A.03,
 Gaussian 16:  EM64L-G16RevA.03 25-Dec-2016

 -------------
 #p 6-31g* mp2
 -------------

 ------------------------------------------------------
 Input file generated by CHIRIPA (05-May-2021 14:55:24)
 ------------------------------------------------------
 Symbolic Z-matrix:
 Charge =  0 Multiplicity = 1

                         Standard orientation:
 ---------------------------------------------------------------------
 Center     Atomic      Atomic             Coordinates (Angstroms)
 Number     Number       Type             X           Y           Z
 ---------------------------------------------------------------------
      1          6           0       -5.242635   -0.811694    0.516892
      2          6           0       -4.145114   -1.511104    1.029526
      3          6           0       -2.842831   -1.149815    0.671646
      4          6           0       -2.673864   -0.079259   -0.205082
      5          6           0       -3.747043    0.637123   -0.732695
      6          6           0       -5.040453    0.258301   -0.361035
      7          1           0       -6.250833   -1.099162    0.800254
      8          1           0       -4.299127   -2.342491    1.711523
      9          1           0       -1.975246   -1.674030    1.053631
     10          1           0       -3.561868    1.461512   -1.410567
     11          1           0       -5.890924    0.803279   -0.760713
     12          7           0       -1.299892    0.312502   -0.591248
     13          8           0       -1.177750    1.259360   -1.365314
     14          8           0       -0.371132   -0.334711   -0.112547
     15          6           0        3.292755    0.634787    0.632935
     16          6           0        3.131887    2.055649    0.091401
     17          6           0        2.289893    2.945260    1.006514
     18          1           0        2.299080    0.186539    0.769421
     19          1           0        3.754923    0.679564    1.628822
     20          1           0        2.671427    2.008124   -0.903754
     21          1           0        4.126068    2.500498   -0.043993
     22          1           0        2.748858    3.022402    1.997473
     23          1           0        1.285952    2.527231    1.132827
     24          1           0        2.187721    3.956407    0.600309
     25          6           0        4.132042   -0.266593   -0.270857
     26          6           0        4.292910   -1.687453    0.270678
     27          6           0        5.134904   -2.577065   -0.644434
     28          1           0        3.669874   -0.311370   -1.266743
     29          1           0        5.125718    0.181655   -0.407342
     30          1           0        3.298730   -2.132303    0.406072
     31          1           0        4.753370   -1.639930    1.265833
     32          1           0        6.138845   -2.159035   -0.770748
     33          1           0        4.675939   -2.654207   -1.635394
     34          1           0        5.237076   -3.588213   -0.238230
 ---------------------------------------------------------------------

 SCF Done:  E(RHF) =  -669.536634664     A.U. after   15 cycles
 E2 =    -0.2091427710D+01 EUMP2 =    -0.67162806237465D+03

 The electronic state is 1-A.
 Alpha  occ. eigenvalues --  -20.61100 -20.61095 -15.86123 -11.31383 -11.27939
 Alpha  occ. eigenvalues --  -11.27934 -11.27666 -11.26932 -11.26922 -11.20507
 Alpha  occ. eigenvalues --  -11.20201 -11.20048 -11.20041 -11.19694 -11.19682
 Alpha  occ. eigenvalues --   -1.60153  -1.39710  -1.19545  -1.08961  -1.07025
 Alpha  occ. eigenvalues --   -1.04932  -1.02240  -0.95812  -0.94706  -0.86335
 Alpha  occ. eigenvalues --   -0.85735  -0.82648  -0.78332  -0.77709  -0.76812
 Alpha  occ. eigenvalues --   -0.72343  -0.71462  -0.70653  -0.65203  -0.64936
 Alpha  occ. eigenvalues --   -0.63621  -0.62279  -0.59620  -0.58104  -0.56324
 Alpha  occ. eigenvalues --   -0.55438  -0.53977  -0.53266  -0.53022  -0.51467
 Alpha  occ. eigenvalues --   -0.51152  -0.49144  -0.49092  -0.48611  -0.46658
 Alpha  occ. eigenvalues --   -0.45350  -0.45154  -0.44370  -0.44134  -0.42460
 Alpha  occ. eigenvalues --   -0.37520  -0.36530
 Alpha virt. eigenvalues --    0.04801   0.11127   0.16303   0.21253   0.24251
 Alpha virt. eigenvalues --    0.25557   0.27191   0.27841   0.28309   0.28915
 Alpha virt. eigenvalues --    0.29192   0.30861   0.32382   0.32572   0.32894

 Mulliken charges:
               1
     1  C   -0.170351
     2  C   -0.218555
     3  C   -0.170615
     4  C    0.157516
     5  C   -0.170313
     6  C   -0.218615
     7  H    0.226365
     8  H    0.224191
     9  H    0.275807
    10  H    0.276113
    11  H    0.224165
    12  N    0.491272
    13  O   -0.458468
    14  O   -0.463439
    15  C   -0.308088
    16  C   -0.297691
    17  C   -0.474848
    18  H    0.175654
    19  H    0.139519
    20  H    0.161691
    21  H    0.143517
    22  H    0.147545
    23  H    0.160419
    24  H    0.155422
    25  C   -0.296855
    26  C   -0.299463
    27  C   -0.474941
    28  H    0.153372
    29  H    0.143476
    30  H    0.155070
    31  H    0.147548
    32  H    0.152781
    33  H    0.155053
    34  H    0.155744
 Sum of Mulliken charges =  -0.00000

 Dipole moment (field-independent basis, Debye):
    X=             -5.3076    Y=             -1.4295    Z=              1.2496  Tot=              5.6370
 Quadrupole moment (field-independent basis, Debye-Ang):
   XX=            -69.8751   YY=            -93.4601   ZZ=            -94.4913
   XY=              3.2275   XZ=             -1.1260   YZ=             -2.9337

 Normal termination of Gaussian 16 at Thu May  6 20:52:32 2021.
