 Gaussian 16, Revision A.03,
 Gaussian 16:  EM64L-G16RevA.03 25-Dec-2016

 -------------
 #p 6-31g* mp2
 -------------

 ------------------------------------------------------
 Input file generated by CHIRIPA (05-May-2021 14:51:10)
 ------------------------------------------------------
 Symbolic Z-matrix:
 Charge =  0 Multiplicity = 1

                         Standard orientation:
 ---------------------------------------------------------------------
 Center     Atomic      Atomic             Coordinates (Angstroms)
 Number     Number       Type             X           Y           Z
 ---------------------------------------------------------------------
      1          6           0       -2.951104   -1.083085    0.127341
      2          6           0       -1.458613   -1.324483   -0.101096
      3          6           0       -1.051334   -2.778463    0.139448
      4          1           0       -3.209784   -1.372597    1.155063
      5          1           0       -3.527804   -1.741140   -0.537321
      6          1           0       -0.884891   -0.665178    0.562812
      7          1           0       -1.203418   -1.034183   -1.128334
      8          1           0       -1.598051   -3.447888   -0.532542
      9          1           0       -1.277714   -3.076786    1.168213
     10          1           0        0.019541   -2.928620   -0.029487
     11          6           0       -3.373618    0.365793   -0.109221
     12          6           0       -4.866109    0.607191    0.119216
     13          6           0       -5.273388    2.061171   -0.121329
     14          1           0       -2.796918    1.023848    0.555440
     15          1           0       -3.114938    0.655305   -1.136943
     16          1           0       -5.121304    0.316891    1.146454
     17          1           0       -5.439831   -0.052114   -0.544693
     18          1           0       -5.047008    2.359494   -1.150093
     19          1           0       -4.726671    2.730596    0.550662
     20          1           0       -6.344263    2.211328    0.047606
     21          6           0        2.812856    1.037815   -0.011643
     22          6           0        3.781397    2.218475    0.065539
     23          6           0        3.067165    3.570374    0.059437
     24          1           0        2.205357    1.129058   -0.922447
     25          1           0        2.115246    1.088823    0.835785
     26          1           0        4.477848    2.164484   -0.781016
     27          1           0        4.386792    2.124309    0.976168
     28          1           0        2.385354    3.649709    0.912338
     29          1           0        2.476927    3.690113   -0.854830
     30          1           0        3.778350    4.400410    0.115268
     31          6           0        3.511867   -0.320524   -0.006477
     32          6           0        2.543326   -1.501183   -0.083659
     33          6           0        3.257557   -2.853082   -0.077557
     34          1           0        4.209476   -0.371531   -0.853905
     35          1           0        4.119366   -0.411766    0.904327
     36          1           0        1.937930   -1.407017   -0.994288
     37          1           0        1.846874   -1.447192    0.762896
     38          1           0        3.847794   -2.972821    0.836709
     39          1           0        3.939368   -2.932418   -0.930458
     40          1           0        2.546373   -3.683118   -0.133387
 ---------------------------------------------------------------------

 SCF Done:  E(RHF) =  -470.732637874     A.U. after   11 cycles
 E2 =    -0.1583728465D+01 EUMP2 =    -0.47231636633937D+03

 The electronic state is 1-A.
 Alpha  occ. eigenvalues --  -11.21606 -11.21596 -11.21578 -11.21533 -11.21409
 Alpha  occ. eigenvalues --  -11.21367 -11.21350 -11.21306 -11.21106 -11.21074
 Alpha  occ. eigenvalues --  -11.21053 -11.20934  -1.08456  -1.08375  -1.03597
 Alpha  occ. eigenvalues --   -1.03438  -0.96036  -0.95895  -0.87010  -0.86950
 Alpha  occ. eigenvalues --   -0.79624  -0.79543  -0.78315  -0.78145  -0.65103
 Alpha  occ. eigenvalues --   -0.64990  -0.61002  -0.60824  -0.59780  -0.59044
 Alpha  occ. eigenvalues --   -0.57849  -0.57224  -0.55290  -0.55207  -0.52778
 Alpha  occ. eigenvalues --   -0.52579  -0.52391  -0.52297  -0.49932  -0.49872
 Alpha  occ. eigenvalues --   -0.47917  -0.47841  -0.46687  -0.46549  -0.45874
 Alpha  occ. eigenvalues --   -0.45774  -0.45664  -0.45557  -0.43801  -0.43726
 Alpha virt. eigenvalues --    0.21454   0.23196   0.23332   0.24762   0.25505
 Alpha virt. eigenvalues --    0.26294   0.26784   0.27161   0.28265   0.29214
 Alpha virt. eigenvalues --    0.30504   0.30731   0.31502   0.31575   0.32509

 Mulliken charges:
               1
     1  C   -0.298521
     2  C   -0.299034
     3  C   -0.485502
     4  H    0.149366
     5  H    0.149369
     6  H    0.152807
     7  H    0.151122
     8  H    0.154250
     9  H    0.153934
    10  H    0.172158
    11  C   -0.298080
    12  C   -0.299598
    13  C   -0.475660
    14  H    0.149456
    15  H    0.149468
    16  H    0.151833
    17  H    0.151860
    18  H    0.155123
    19  H    0.155167
    20  H    0.160153
    21  C   -0.298389
    22  C   -0.299711
    23  C   -0.475639
    24  H    0.150178
    25  H    0.149211
    26  H    0.151975
    27  H    0.151870
    28  H    0.155047
    29  H    0.155339
    30  H    0.160247
    31  C   -0.297713
    32  C   -0.304872
    33  C   -0.479247
    34  H    0.149411
    35  H    0.149499
    36  H    0.153889
    37  H    0.155879
    38  H    0.155699
    39  H    0.155678
    40  H    0.161980
 Sum of Mulliken charges =  -0.00000

 Dipole moment (field-independent basis, Debye):
    X=              0.0438    Y=              0.0061    Z=             -0.0046  Tot=              0.0445
 Quadrupole moment (field-independent basis, Debye-Ang):
   XX=            -85.2140   YY=            -86.9481   ZZ=            -82.7510
   XY=              0.7904   XZ=              0.0748   YZ=              0.3241

 Normal termination of Gaussian 16 at Thu May  6 03:46:17 2021.
