 Gaussian 16, Revision A.03,
 Gaussian 16:  EM64L-G16RevA.03 25-Dec-2016

 -------------
 #p 6-31g* mp2
 -------------

 ------------------------------------------------------
 Input file generated by CHIRIPA (05-May-2021 14:51:09)
 ------------------------------------------------------
 Symbolic Z-matrix:
 Charge =  0 Multiplicity = 1

                         Standard orientation:
 ---------------------------------------------------------------------
 Center     Atomic      Atomic             Coordinates (Angstroms)
 Number     Number       Type             X           Y           Z
 ---------------------------------------------------------------------
      1          6           0        3.198324    0.046635    0.280906
      2          6           0        4.333797    0.377484   -0.688230
      3          6           0        5.076254    1.660373   -0.313068
      4          1           0        2.491043    0.886865    0.307580
      5          1           0        3.608172   -0.049276    1.295904
      6          1           0        3.922141    0.471378   -1.701314
      7          1           0        5.038357   -0.463711   -0.712745
      8          1           0        5.513734    1.573925    0.686802
      9          1           0        4.391176    2.514328   -0.307385
     10          1           0        5.883782    1.877959   -1.019052
     11          6           0        2.446634   -1.233132   -0.080877
     12          6           0        1.311161   -1.563981    0.888259
     13          6           0        0.568704   -2.846870    0.513097
     14          1           0        2.036786   -1.137221   -1.095875
     15          1           0        3.153915   -2.073362   -0.107551
     16          1           0        0.606601   -0.722786    0.912774
     17          1           0        1.722817   -1.657875    1.901344
     18          1           0        1.253782   -3.700824    0.507414
     19          1           0        0.131224   -2.760422   -0.486772
     20          1           0       -0.238824   -3.064455    1.219081
     21          6           0       -2.325538    1.162760    0.010160
     22          6           0       -2.990479    2.535467    0.117466
     23          6           0       -1.983331    3.664589    0.337760
     24          1           0       -1.749535    0.968868    0.925350
     25          1           0       -1.602483    1.176985   -0.817116
     26          1           0       -3.713066    2.518239    0.943412
     27          1           0       -3.565122    2.726032   -0.798006
     28          1           0       -1.268856    3.710554   -0.490500
     29          1           0       -1.417642    3.501581    1.260812
     30          1           0       -2.480168    4.636990    0.411582
     31          6           0       -3.319420    0.023737   -0.210190
     32          6           0       -2.654479   -1.348970   -0.317495
     33          6           0       -3.661627   -2.478092   -0.537790
     34          1           0       -4.042474    0.009513    0.617087
     35          1           0       -3.895423    0.217630   -1.125378
     36          1           0       -2.079837   -1.539535    0.597976
     37          1           0       -1.931892   -1.331742   -1.143442
     38          1           0       -4.227316   -2.315084   -1.460842
     39          1           0       -4.376101   -2.524057    0.290470
     40          1           0       -3.164790   -3.450493   -0.611611
 ---------------------------------------------------------------------

 SCF Done:  E(RHF) =  -470.732314160     A.U. after   11 cycles
 E2 =    -0.1584167514D+01 EUMP2 =    -0.47231648167446D+03

 The electronic state is 1-A.
 Alpha  occ. eigenvalues --  -11.21639 -11.21581 -11.21536 -11.21533 -11.21439
 Alpha  occ. eigenvalues --  -11.21371 -11.21356 -11.21312 -11.21109 -11.21052
 Alpha  occ. eigenvalues --  -11.21050 -11.20966  -1.08469  -1.08375  -1.03591
 Alpha  occ. eigenvalues --   -1.03441  -0.96023  -0.95914  -0.87033  -0.86937
 Alpha  occ. eigenvalues --   -0.79681  -0.79484  -0.78293  -0.78194  -0.65108
 Alpha  occ. eigenvalues --   -0.65007  -0.60990  -0.60904  -0.59460  -0.59199
 Alpha  occ. eigenvalues --   -0.57637  -0.57538  -0.55284  -0.55212  -0.52702
 Alpha  occ. eigenvalues --   -0.52614  -0.52433  -0.52354  -0.49934  -0.49902
 Alpha  occ. eigenvalues --   -0.47892  -0.47873  -0.46640  -0.46557  -0.45946
 Alpha  occ. eigenvalues --   -0.45785  -0.45634  -0.45494  -0.43800  -0.43728
 Alpha virt. eigenvalues --    0.20986   0.23252   0.23382   0.24378   0.25450
 Alpha virt. eigenvalues --    0.26001   0.26877   0.27695   0.28592   0.29371
 Alpha virt. eigenvalues --    0.29745   0.31361   0.31637   0.31957   0.32274

 Mulliken charges:
               1
     1  C   -0.298537
     2  C   -0.299585
     3  C   -0.475720
     4  H    0.150123
     5  H    0.149357
     6  H    0.151693
     7  H    0.151866
     8  H    0.155139
     9  H    0.155299
    10  H    0.160131
    11  C   -0.297810
    12  C   -0.305329
    13  C   -0.477137
    14  H    0.149006
    15  H    0.149574
    16  H    0.156855
    17  H    0.151274
    18  H    0.154359
    19  H    0.159012
    20  H    0.159274
    21  C   -0.300526
    22  C   -0.299546
    23  C   -0.475813
    24  H    0.151255
    25  H    0.148843
    26  H    0.152180
    27  H    0.152204
    28  H    0.154835
    29  H    0.155264
    30  H    0.160535
    31  C   -0.297865
    32  C   -0.303019
    33  C   -0.476984
    34  H    0.149267
    35  H    0.149310
    36  H    0.159203
    37  H    0.150859
    38  H    0.154939
    39  H    0.154886
    40  H    0.161329
 Sum of Mulliken charges =  -0.00000

 Dipole moment (field-independent basis, Debye):
    X=             -0.0274    Y=             -0.0006    Z=              0.0051  Tot=              0.0279
 Quadrupole moment (field-independent basis, Debye-Ang):
   XX=            -85.2372   YY=            -86.1922   ZZ=            -83.4800
   XY=             -1.4166   XZ=              0.0570   YZ=             -0.6879

 Normal termination of Gaussian 16 at Thu May  6 05:19:50 2021.
