 Gaussian 16, Revision A.03,
 Gaussian 16:  EM64L-G16RevA.03 25-Dec-2016

 -------------
 #p 6-31g* mp2
 -------------

 ------------------------------------------------------
 Input file generated by CHIRIPA (05-May-2021 14:53:14)
 ------------------------------------------------------
 Symbolic Z-matrix:
 Charge =  0 Multiplicity = 1

                         Standard orientation:
 ---------------------------------------------------------------------
 Center     Atomic      Atomic             Coordinates (Angstroms)
 Number     Number       Type             X           Y           Z
 ---------------------------------------------------------------------
      1          6           0        2.962938   -0.932073   -0.526431
      2          6           0        1.529716   -0.614731   -0.098466
      3          6           0        0.494461   -1.492372   -0.802587
      4          1           0        3.050848   -0.804450   -1.614057
      5          1           0        3.174823   -1.989869   -0.317703
      6          1           0        1.321055    0.442497   -0.306665
      7          1           0        1.445256   -0.742939    0.988293
      8          1           0        0.674558   -2.550198   -0.585401
      9          1           0        0.549651   -1.358027   -1.887717
     10          1           0       -0.523193   -1.248666   -0.481888
     11          6           0        4.009313   -0.062927    0.168847
     12          6           0        5.442535   -0.380269   -0.259118
     13          6           0        6.477790    0.497372    0.445003
     14          1           0        3.797428    0.994869   -0.039882
     15          1           0        3.921403   -0.190550    1.256472
     16          1           0        5.526994   -0.252061   -1.345877
     17          1           0        5.651195   -1.437497   -0.050919
     18          1           0        6.422600    0.363027    1.530133
     19          1           0        6.297693    1.555198    0.227817
     20          1           0        7.495444    0.253666    0.124304
     21          6           0       -4.215504   -1.643719    0.236316
     22          6           0       -4.284057   -0.776471   -0.858993
     23          6           0       -3.462161    0.352653   -0.923125
     24          6           0       -2.579298    0.585156    0.130339
     25          6           0       -2.487633   -0.260128    1.235049
     26          6           0       -3.319091   -1.383240    1.278004
     27          1           0       -4.857687   -2.518515    0.277910
     28          1           0       -4.979274   -0.976264   -1.669425
     29          1           0       -3.494615    1.040617   -1.759229
     30          1           0       -1.784610   -0.034632    2.027720
     31          1           0       -3.263691   -2.055019    2.129877
     32          7           0       -1.704131    1.777327    0.073655
     33          8           0       -0.934766    1.959930    1.014596
     34          8           0       -1.804112    2.506573   -0.910642
 ---------------------------------------------------------------------

 SCF Done:  E(RHF) =  -669.534496197     A.U. after   15 cycles
 E2 =    -0.2094019300D+01 EUMP2 =    -0.67162851549744D+03

 The electronic state is 1-A.
 Alpha  occ. eigenvalues --  -20.60893 -20.60867 -15.85905 -11.31228 -11.27829
 Alpha  occ. eigenvalues --  -11.27801 -11.27581 -11.26848 -11.26838 -11.21175
 Alpha  occ. eigenvalues --  -11.20990 -11.20898 -11.20822 -11.20668 -11.20661
 Alpha  occ. eigenvalues --   -1.59943  -1.39496  -1.19454  -1.08839  -1.07935
 Alpha  occ. eigenvalues --   -1.04845  -1.03082  -0.95688  -0.95549  -0.86581
 Alpha  occ. eigenvalues --   -0.86232  -0.82504  -0.79127  -0.77742  -0.77538
 Alpha  occ. eigenvalues --   -0.72132  -0.71281  -0.70544  -0.65091  -0.64838
 Alpha  occ. eigenvalues --   -0.64564  -0.62184  -0.60476  -0.59001  -0.57232
 Alpha  occ. eigenvalues --   -0.55338  -0.54846  -0.53508  -0.52925  -0.52076
 Alpha  occ. eigenvalues --   -0.51783  -0.49493  -0.48898  -0.48893  -0.47446
 Alpha  occ. eigenvalues --   -0.46163  -0.45357  -0.45226  -0.44728  -0.43327
 Alpha  occ. eigenvalues --   -0.37367  -0.36415
 Alpha virt. eigenvalues --    0.04945   0.11167   0.16436   0.21296   0.23314
 Alpha virt. eigenvalues --    0.24612   0.26874   0.27366   0.27741   0.28361
 Alpha virt. eigenvalues --    0.28522   0.30839   0.31684   0.32051   0.32350

 Mulliken charges:
               1
     1  C   -0.298085
     2  C   -0.302835
     3  C   -0.485117
     4  H    0.148990
     5  H    0.145451
     6  H    0.167000
     7  H    0.148229
     8  H    0.150523
     9  H    0.154476
    10  H    0.164078
    11  C   -0.298491
    12  C   -0.299362
    13  C   -0.475510
    14  H    0.155150
    15  H    0.148817
    16  H    0.151409
    17  H    0.149600
    18  H    0.154534
    19  H    0.156783
    20  H    0.158514
    21  C   -0.170979
    22  C   -0.217221
    23  C   -0.171218
    24  C    0.159889
    25  C   -0.177269
    26  C   -0.214271
    27  H    0.226185
    28  H    0.223971
    29  H    0.275915
    30  H    0.276392
    31  H    0.224103
    32  N    0.489341
    33  O   -0.458796
    34  O   -0.460196
 Sum of Mulliken charges =  -0.00000

 Dipole moment (field-independent basis, Debye):
    X=             -3.2339    Y=             -4.0495    Z=              0.2267  Tot=              5.1873
 Quadrupole moment (field-independent basis, Debye-Ang):
   XX=            -79.5516   YY=           -100.0667   ZZ=            -90.6198
   XY=              8.5775   XZ=              0.8579   YZ=             -2.6091

 Normal termination of Gaussian 16 at Thu May  6 01:02:15 2021.
