 Gaussian 16, Revision A.03,
 Gaussian 16:  EM64L-G16RevA.03 25-Dec-2016

 -------------
 #p 6-31g* mp2
 -------------

 ------------------------------------------------------
 Input file generated by CHIRIPA (05-May-2021 14:51:09)
 ------------------------------------------------------
 Symbolic Z-matrix:
 Charge =  0 Multiplicity = 1

                         Standard orientation:
 ---------------------------------------------------------------------
 Center     Atomic      Atomic             Coordinates (Angstroms)
 Number     Number       Type             X           Y           Z
 ---------------------------------------------------------------------
      1          6           0       -2.649550   -0.508291   -0.583849
      2          6           0       -3.859274    0.359820   -0.236093
      3          6           0       -4.403109    1.126327   -1.442122
      4          1           0       -1.858067    0.127917   -1.003061
      5          1           0       -2.931337   -1.218069   -1.373916
      6          1           0       -3.575675    1.066823    0.554055
      7          1           0       -4.647898   -0.278501    0.182517
      8          1           0       -4.713079    0.433475   -2.231094
      9          1           0       -3.634763    1.786442   -1.857444
     10          1           0       -5.267549    1.740410   -1.171004
     11          6           0       -2.094531   -1.280772    0.611540
     12          6           0       -0.884807   -2.148884    0.263784
     13          6           0       -0.340972   -2.915390    1.469813
     14          1           0       -1.812745   -0.570994    1.401607
     15          1           0       -2.886014   -1.916981    1.030751
     16          1           0       -0.096183   -1.510563   -0.154826
     17          1           0       -1.168407   -2.855886   -0.526365
     18          1           0       -1.109318   -3.575506    1.885135
     19          1           0       -0.031002   -2.222538    2.258785
     20          1           0        0.523467   -3.529474    1.198694
     21          6           0        2.863107    0.652083   -0.546297
     22          6           0        3.342005   -0.782490   -0.321257
     23          6           0        4.323887   -1.253175   -1.394641
     24          1           0        2.389405    0.722910   -1.535000
     25          1           0        3.733345    1.322616   -0.567890
     26          1           0        2.471015   -1.449936   -0.298713
     27          1           0        3.814450   -0.849955    0.667105
     28          1           0        5.210444   -0.611112   -1.413959
     29          1           0        3.859375   -1.214501   -2.385265
     30          1           0        4.653368   -2.281178   -1.214331
     31          6           0        1.880974    1.136981    0.518606
     32          6           0        1.402077    2.571553    0.293566
     33          6           0        0.420194    3.042238    1.366951
     34          1           0        1.010737    0.466447    0.540200
     35          1           0        2.354676    1.066153    1.507310
     36          1           0        0.929631    2.639018   -0.694796
     37          1           0        2.273067    3.238999    0.271022
     38          1           0        0.884706    3.003565    2.357574
     39          1           0       -0.466363    2.400175    1.386269
     40          1           0        0.090714    4.070242    1.186641
 ---------------------------------------------------------------------

 SCF Done:  E(RHF) =  -470.733063746     A.U. after   11 cycles
 E2 =    -0.1584480236D+01 EUMP2 =    -0.47231754398285D+03

 The electronic state is 1-A.
 Alpha  occ. eigenvalues --  -11.21663 -11.21645 -11.21634 -11.21607 -11.21465
 Alpha  occ. eigenvalues --  -11.21443 -11.21406 -11.21383 -11.21147 -11.21100
 Alpha  occ. eigenvalues --  -11.21090 -11.21079  -1.08525  -1.08439  -1.03582
 Alpha  occ. eigenvalues --   -1.03560  -0.96026  -0.96013  -0.87047  -0.87022
 Alpha  occ. eigenvalues --   -0.79649  -0.79628  -0.78373  -0.78223  -0.65450
 Alpha  occ. eigenvalues --   -0.64821  -0.61033  -0.60918  -0.59431  -0.59341
 Alpha  occ. eigenvalues --   -0.57649  -0.57610  -0.55353  -0.55264  -0.52721
 Alpha  occ. eigenvalues --   -0.52697  -0.52472  -0.52414  -0.50009  -0.49923
 Alpha  occ. eigenvalues --   -0.47981  -0.47950  -0.46825  -0.46668  -0.46115
 Alpha  occ. eigenvalues --   -0.45806  -0.45765  -0.45251  -0.43828  -0.43821
 Alpha virt. eigenvalues --    0.18854   0.21924   0.23728   0.24727   0.25899
 Alpha virt. eigenvalues --    0.26048   0.26938   0.27734   0.28482   0.29862
 Alpha virt. eigenvalues --    0.30599   0.31562   0.31695   0.31804   0.32377

 Mulliken charges:
               1
     1  C   -0.298845
     2  C   -0.300223
     3  C   -0.475695
     4  H    0.149110
     5  H    0.149922
     6  H    0.152386
     7  H    0.152263
     8  H    0.155205
     9  H    0.155221
    10  H    0.160548
    11  C   -0.299971
    12  C   -0.307898
    13  C   -0.476293
    14  H    0.150555
    15  H    0.150389
    16  H    0.157954
    17  H    0.152513
    18  H    0.155371
    19  H    0.156368
    20  H    0.160719
    21  C   -0.297812
    22  C   -0.305684
    23  C   -0.475483
    24  H    0.149281
    25  H    0.149901
    26  H    0.157758
    27  H    0.152162
    28  H    0.155195
    29  H    0.155245
    30  H    0.160292
    31  C   -0.306668
    32  C   -0.299141
    33  C   -0.477144
    34  H    0.157038
    35  H    0.149912
    36  H    0.151552
    37  H    0.152436
    38  H    0.155563
    39  H    0.155257
    40  H    0.160740
 Sum of Mulliken charges =  -0.00000

 Dipole moment (field-independent basis, Debye):
    X=             -0.0013    Y=             -0.0115    Z=              0.0108  Tot=              0.0158
 Quadrupole moment (field-independent basis, Debye-Ang):
   XX=            -84.4779   YY=            -84.6294   ZZ=            -85.4975
   XY=              1.4439   XZ=              0.7071   YZ=              0.4938

 Normal termination of Gaussian 16 at Wed May  5 15:07:49 2021.
