 Gaussian 16, Revision A.03,
 Gaussian 16:  EM64L-G16RevA.03 25-Dec-2016

 -------------
 #p 6-31g* mp2
 -------------

 ------------------------------------------------------
 Input file generated by CHIRIPA (05-May-2021 14:51:08)
 ------------------------------------------------------
 Symbolic Z-matrix:
 Charge =  0 Multiplicity = 1

                         Standard orientation:
 ---------------------------------------------------------------------
 Center     Atomic      Atomic             Coordinates (Angstroms)
 Number     Number       Type             X           Y           Z
 ---------------------------------------------------------------------
      1          6           0       -2.450749   -0.545056   -0.494201
      2          6           0       -3.427128   -1.711161   -0.651895
      3          6           0       -2.719874   -3.059253   -0.794139
      4          1           0       -1.778347   -0.518145   -1.362588
      5          1           0       -1.817502   -0.722629    0.386061
      6          1           0       -4.059274   -1.530770   -1.530797
      7          1           0       -4.097408   -1.735182    0.216877
      8          1           0       -2.102899   -3.265411    0.086453
      9          1           0       -2.064548   -3.059838   -1.671150
     10          1           0       -3.436602   -3.878843   -0.905639
     11          6           0       -3.142729    0.809327   -0.350888
     12          6           0       -2.166350    1.975432   -0.193194
     13          6           0       -2.873604    3.323524   -0.050950
     14          1           0       -3.775976    0.986900   -1.231150
     15          1           0       -3.815131    0.782416    0.517500
     16          1           0       -1.496071    1.999453   -1.061965
     17          1           0       -1.534204    1.795042    0.685708
     18          1           0       -3.528930    3.324109    0.826062
     19          1           0       -3.490579    3.529682   -0.931542
     20          1           0       -2.156876    4.143114    0.060550
     21          6           0        3.012189   -0.223928   -0.304495
     22          6           0        4.364175    0.416001   -0.621689
     23          6           0        4.781540    0.223884   -2.080007
     24          1           0        3.058251   -1.296906   -0.535887
     25          1           0        2.246859    0.205811   -0.965546
     26          1           0        5.126476   -0.013819    0.040707
     27          1           0        4.314950    1.487544   -0.389335
     28          1           0        4.042375    0.668732   -2.754060
     29          1           0        4.858512   -0.841161   -2.321575
     30          1           0        5.750798    0.689128   -2.284819
     31          6           0        2.581288   -0.040343    1.149585
     32          6           0        1.229303   -0.680272    1.466778
     33          6           0        0.811938   -0.488155    2.925096
     34          1           0        3.346619   -0.470082    1.810635
     35          1           0        2.535228    1.032635    1.380976
     36          1           0        1.278528   -1.751815    1.234424
     37          1           0        0.467002   -0.250452    0.804381
     38          1           0        0.734966    0.576890    3.166663
     39          1           0        1.551103   -0.933003    3.599149
     40          1           0       -0.157319   -0.953399    3.129908
 ---------------------------------------------------------------------

 SCF Done:  E(RHF) =  -470.733095770     A.U. after   11 cycles
 E2 =    -0.1583542147D+01 EUMP2 =    -0.47231663791697D+03

 The electronic state is 1-A.
 Alpha  occ. eigenvalues --  -11.21661 -11.21603 -11.21584 -11.21525 -11.21416
 Alpha  occ. eigenvalues --  -11.21375 -11.21342 -11.21316 -11.21115 -11.21105
 Alpha  occ. eigenvalues --  -11.21064 -11.21061  -1.08469  -1.08392  -1.03553
 Alpha  occ. eigenvalues --   -1.03518  -0.96006  -0.95967  -0.87017  -0.86986
 Alpha  occ. eigenvalues --   -0.79639  -0.79579  -0.78394  -0.78090  -0.65169
 Alpha  occ. eigenvalues --   -0.64965  -0.60964  -0.60907  -0.59380  -0.59335
 Alpha  occ. eigenvalues --   -0.57669  -0.57533  -0.55308  -0.55236  -0.52703
 Alpha  occ. eigenvalues --   -0.52667  -0.52427  -0.52396  -0.49969  -0.49889
 Alpha  occ. eigenvalues --   -0.47992  -0.47892  -0.46760  -0.46652  -0.46067
 Alpha  occ. eigenvalues --   -0.45756  -0.45723  -0.45167  -0.43805  -0.43762
 Alpha virt. eigenvalues --    0.20794   0.23082   0.23894   0.24063   0.25584
 Alpha virt. eigenvalues --    0.26348   0.26990   0.27861   0.28303   0.29757
 Alpha virt. eigenvalues --    0.29901   0.31566   0.31639   0.31837   0.32387

 Mulliken charges:
               1
     1  C   -0.304886
     2  C   -0.299218
     3  C   -0.475704
     4  H    0.149187
     5  H    0.157565
     6  H    0.151833
     7  H    0.151718
     8  H    0.155295
     9  H    0.155350
    10  H    0.160143
    11  C   -0.297810
    12  C   -0.302230
    13  C   -0.475640
    14  H    0.149583
    15  H    0.149625
    16  H    0.151340
    17  H    0.153847
    18  H    0.155506
    19  H    0.155472
    20  H    0.160160
    21  C   -0.298334
    22  C   -0.299640
    23  C   -0.475668
    24  H    0.149656
    25  H    0.149707
    26  H    0.151889
    27  H    0.151900
    28  H    0.155010
    29  H    0.155165
    30  H    0.160193
    31  C   -0.297562
    32  C   -0.308021
    33  C   -0.476847
    34  H    0.149137
    35  H    0.149415
    36  H    0.151542
    37  H    0.161286
    38  H    0.155012
    39  H    0.155730
    40  H    0.159294
 Sum of Mulliken charges =  -0.00000

 Dipole moment (field-independent basis, Debye):
    X=             -0.0204    Y=              0.0010    Z=             -0.0089  Tot=              0.0223
 Quadrupole moment (field-independent basis, Debye-Ang):
   XX=            -84.9454   YY=            -85.1081   ZZ=            -84.8041
   XY=             -0.0329   XZ=              0.5601   YZ=             -0.5057

 Normal termination of Gaussian 16 at Thu May  6 03:41:57 2021.
