 Gaussian 16, Revision A.03,
 Gaussian 16:  EM64L-G16RevA.03 25-Dec-2016

 -------------
 #p 6-31g* mp2
 -------------

 ------------------------------------------------------
 Input file generated by CHIRIPA (05-May-2021 14:57:25)
 ------------------------------------------------------
 Symbolic Z-matrix:
 Charge =  0 Multiplicity = 1

                         Standard orientation:
 ---------------------------------------------------------------------
 Center     Atomic      Atomic             Coordinates (Angstroms)
 Number     Number       Type             X           Y           Z
 ---------------------------------------------------------------------
      1          6           0       -3.253561   -2.547486    0.261364
      2          6           0       -4.159668   -1.889898   -0.577129
      3          6           0       -4.106477   -0.501247   -0.729985
      4          6           0       -3.129897    0.201755   -0.026160
      5          6           0       -2.213116   -0.424656    0.816700
      6          6           0       -2.284885   -1.814059    0.954380
      7          1           0       -3.302098   -3.626516    0.374212
      8          1           0       -4.913015   -2.456923   -1.116570
      9          1           0       -4.795597    0.033213   -1.372546
     10          1           0       -1.473314    0.167607    1.341424
     11          1           0       -1.579895   -2.322090    1.606253
     12          7           0       -3.063752    1.672256   -0.179949
     13          8           0       -2.193952    2.268786    0.451112
     14          8           0       -3.882960    2.200461   -0.928638
     15          6           0        2.601940    2.479116    0.360256
     16          6           0        3.778651    2.112350   -0.301074
     17          6           0        4.087403    0.764275   -0.505800
     18          6           0        3.192893   -0.195145   -0.033936
     19          6           0        2.012625    0.138590    0.628542
     20          6           0        1.724231    1.492805    0.822139
     21          1           0        2.370001    3.528718    0.514970
     22          1           0        4.462143    2.876182   -0.660858
     23          1           0        4.991417    0.452381   -1.014622
     24          1           0        1.350802   -0.645509    0.975811
     25          1           0        0.809653    1.774709    1.336067
     26          7           0        3.508979   -1.625542   -0.244779
     27          8           0        2.704440   -2.451650    0.180543
     28          8           0        4.555284   -1.893495   -0.831369
 ---------------------------------------------------------------------

 SCF Done:  E(RHF) =  -868.339191366     A.U. after   16 cycles
 E2 =    -0.2599823569D+01 EUMP2 =    -0.87093901493435D+03

 The electronic state is 1-A.
 Alpha  occ. eigenvalues --  -20.61418 -20.61373 -20.60861 -20.60836 -15.86438
 Alpha  occ. eigenvalues --  -15.85898 -11.31617 -11.31105 -11.28244 -11.28103
 Alpha  occ. eigenvalues --  -11.27768 -11.27687 -11.27612 -11.27230 -11.27101
 Alpha  occ. eigenvalues --  -11.27068 -11.26582 -11.26509  -1.60457  -1.59925
 Alpha  occ. eigenvalues --   -1.40024  -1.39487  -1.19746  -1.19228  -1.09154
 Alpha  occ. eigenvalues --   -1.08626  -1.05135  -1.04615  -0.96039  -0.95508
 Alpha  occ. eigenvalues --   -0.86528  -0.85996  -0.82890  -0.82360  -0.78002
 Alpha  occ. eigenvalues --   -0.77432  -0.72672  -0.72124  -0.71761  -0.71242
 Alpha  occ. eigenvalues --   -0.70854  -0.70306  -0.65408  -0.65134  -0.64868
 Alpha  occ. eigenvalues --   -0.64567  -0.62577  -0.61901  -0.55586  -0.55043
 Alpha  occ. eigenvalues --   -0.53445  -0.53227  -0.52928  -0.52680  -0.49436
 Alpha  occ. eigenvalues --   -0.49383  -0.48892  -0.48852  -0.45467  -0.44930
 Alpha  occ. eigenvalues --   -0.37666  -0.37148  -0.36731  -0.36193
 Alpha virt. eigenvalues --    0.04525   0.05097   0.10935   0.11460   0.16071
 Alpha virt. eigenvalues --    0.16635   0.18957   0.22368   0.24986   0.26732
 Alpha virt. eigenvalues --    0.28324   0.29197   0.30557   0.31459   0.32817

 Mulliken charges:
               1
     1  C   -0.169024
     2  C   -0.217889
     3  C   -0.170179
     4  C    0.158909
     5  C   -0.172043
     6  C   -0.218014
     7  H    0.230229
     8  H    0.225819
     9  H    0.276429
    10  H    0.266694
    11  H    0.228828
    12  N    0.490547
    13  O   -0.471967
    14  O   -0.456139
    15  C   -0.170552
    16  C   -0.218325
    17  C   -0.171665
    18  C    0.158794
    19  C   -0.173141
    20  C   -0.221223
    21  H    0.231240
    22  H    0.223882
    23  H    0.274756
    24  H    0.263756
    25  H    0.237298
    26  N    0.488680
    27  O   -0.466145
    28  O   -0.459555
 Sum of Mulliken charges =  -0.00000

 Dipole moment (field-independent basis, Debye):
    X=             -1.5609    Y=             -0.1121    Z=              1.1761  Tot=              1.9576
 Quadrupole moment (field-independent basis, Debye-Ang):
   XX=           -103.6241   YY=           -108.9640   ZZ=           -103.0460
   XY=             35.1404   XZ=              1.4726   YZ=             -0.6652

 Normal termination of Gaussian 16 at Wed May  5 19:33:13 2021.
