 Gaussian 16, Revision A.03,
 Gaussian 16:  EM64L-G16RevA.03 25-Dec-2016

 -------------
 #p 6-31g* mp2
 -------------

 ------------------------------------------------------
 Input file generated by CHIRIPA (05-May-2021 14:51:11)
 ------------------------------------------------------
 Symbolic Z-matrix:
 Charge =  0 Multiplicity = 1

                         Standard orientation:
 ---------------------------------------------------------------------
 Center     Atomic      Atomic             Coordinates (Angstroms)
 Number     Number       Type             X           Y           Z
 ---------------------------------------------------------------------
      1          6           0       -3.325693    0.854590   -0.679696
      2          6           0       -2.027444    1.593771   -0.353896
      3          6           0       -1.980333    2.998830   -0.955048
      4          1           0       -3.440891    0.792320   -1.770474
      5          1           0       -4.176941    1.441953   -0.308514
      6          1           0       -1.178825    1.004518   -0.724359
      7          1           0       -1.915228    1.654120    0.736233
      8          1           0       -2.807775    3.607702   -0.576609
      9          1           0       -2.067188    2.954408   -2.045499
     10          1           0       -1.043728    3.509218   -0.709826
     11          6           0       -3.387730   -0.551456   -0.085631
     12          6           0       -4.685980   -1.290637   -0.411431
     13          6           0       -4.733090   -2.695696    0.189721
     14          1           0       -2.536482   -1.138820   -0.456814
     15          1           0       -3.272533   -0.489186    1.005147
     16          1           0       -4.798196   -1.350987   -1.501560
     17          1           0       -5.534599   -0.701384   -0.040969
     18          1           0       -4.646235   -2.651275    1.280172
     19          1           0       -3.905648   -3.304568   -0.188718
     20          1           0       -5.669696   -3.206085   -0.055502
     21          6           0        3.890821   -0.650223    0.160176
     22          6           0        4.662250   -0.199173   -1.080564
     23          6           0        5.727252   -1.207255   -1.513387
     24          1           0        4.598383   -0.814847    0.984313
     25          1           0        3.417229   -1.620550   -0.043714
     26          1           0        5.133106    0.770670   -0.874863
     27          1           0        3.952749   -0.035420   -1.901788
     28          1           0        5.270274   -2.174668   -1.745518
     29          1           0        6.457337   -1.363998   -0.712757
     30          1           0        6.266571   -0.864841   -2.402065
     31          6           0        2.822602    0.347089    0.605151
     32          6           0        2.051173   -0.103960    1.845892
     33          6           0        0.986172    0.904122    2.278715
     34          1           0        3.296195    1.317416    0.809042
     35          1           0        2.115040    0.511713   -0.218986
     36          1           0        2.760674   -0.267714    2.667116
     37          1           0        1.580318   -1.073805    1.640190
     38          1           0        0.256086    1.060864    1.478085
     39          1           0        1.443150    1.871535    2.510844
     40          1           0        0.446853    0.561707    3.167392
 ---------------------------------------------------------------------

 SCF Done:  E(RHF) =  -470.732914487     A.U. after   11 cycles
 E2 =    -0.1583024083D+01 EUMP2 =    -0.47231593857012D+03

 The electronic state is 1-A.
 Alpha  occ. eigenvalues --  -11.21648 -11.21627 -11.21593 -11.21538 -11.21440
 Alpha  occ. eigenvalues --  -11.21383 -11.21381 -11.21323 -11.21101 -11.21092
 Alpha  occ. eigenvalues --  -11.21066 -11.20906  -1.08474  -1.08395  -1.03582
 Alpha  occ. eigenvalues --   -1.03474  -0.96016  -0.95929  -0.87040  -0.86943
 Alpha  occ. eigenvalues --   -0.79724  -0.79487  -0.78322  -0.78179  -0.65100
 Alpha  occ. eigenvalues --   -0.65032  -0.60976  -0.60894  -0.59407  -0.59289
 Alpha  occ. eigenvalues --   -0.57695  -0.57483  -0.55304  -0.55216  -0.52712
 Alpha  occ. eigenvalues --   -0.52625  -0.52453  -0.52344  -0.49992  -0.49887
 Alpha  occ. eigenvalues --   -0.48118  -0.47717  -0.46693  -0.46576  -0.45911
 Alpha  occ. eigenvalues --   -0.45749  -0.45706  -0.45483  -0.43814  -0.43746
 Alpha virt. eigenvalues --    0.21559   0.23119   0.23629   0.24764   0.25946
 Alpha virt. eigenvalues --    0.26251   0.27181   0.27823   0.27952   0.29004
 Alpha virt. eigenvalues --    0.30787   0.30918   0.31748   0.31904   0.31991

 Mulliken charges:
               1
     1  C   -0.297198
     2  C   -0.305632
     3  C   -0.476031
     4  H    0.149600
     5  H    0.149804
     6  H    0.151743
     7  H    0.157036
     8  H    0.155507
     9  H    0.155212
    10  H    0.161232
    11  C   -0.298590
    12  C   -0.299636
    13  C   -0.475712
    14  H    0.149015
    15  H    0.150152
    16  H    0.151954
    17  H    0.152073
    18  H    0.155316
    19  H    0.155084
    20  H    0.160357
    21  C   -0.298240
    22  C   -0.299598
    23  C   -0.475679
    24  H    0.149746
    25  H    0.149348
    26  H    0.151943
    27  H    0.151706
    28  H    0.155098
    29  H    0.155213
    30  H    0.160194
    31  C   -0.298866
    32  C   -0.298857
    33  C   -0.485658
    34  H    0.149455
    35  H    0.149450
    36  H    0.151449
    37  H    0.151565
    38  H    0.167675
    39  H    0.153960
    40  H    0.158812
 Sum of Mulliken charges =  -0.00000

 Dipole moment (field-independent basis, Debye):
    X=             -0.0544    Y=              0.0197    Z=             -0.0152  Tot=              0.0598
 Quadrupole moment (field-independent basis, Debye-Ang):
   XX=            -84.8100   YY=            -85.8612   ZZ=            -84.1385
   XY=              0.4344   XZ=              0.3958   YZ=              0.7094

 Normal termination of Gaussian 16 at Thu May  6 05:28:46 2021.
