 Gaussian 16, Revision A.03,
 Gaussian 16:  EM64L-G16RevA.03 25-Dec-2016

 -------------
 #p 6-31g* mp2
 -------------

 ------------------------------------------------------
 Input file generated by CHIRIPA (05-May-2021 14:53:13)
 ------------------------------------------------------
 Symbolic Z-matrix:
 Charge =  0 Multiplicity = 1

                         Standard orientation:
 ---------------------------------------------------------------------
 Center     Atomic      Atomic             Coordinates (Angstroms)
 Number     Number       Type             X           Y           Z
 ---------------------------------------------------------------------
      1          6           0        3.544198   -0.179306    0.282329
      2          6           0        2.843245   -1.479991    0.675860
      3          6           0        3.820889   -2.564587    1.129355
      4          1           0        4.263122   -0.386542   -0.522126
      5          1           0        4.128981    0.187135    1.137399
      6          1           0        2.258852   -1.843139   -0.179257
      7          1           0        2.125769   -1.269600    1.479340
      8          1           0        4.395634   -2.226528    1.997679
      9          1           0        4.529473   -2.803326    0.329659
     10          1           0        3.298540   -3.485725    1.405971
     11          6           0        2.580080    0.914590   -0.173297
     12          6           0        3.281033    2.215276   -0.566828
     13          6           0        2.303389    3.299871   -1.020324
     14          1           0        1.995297    0.548150   -1.028368
     15          1           0        1.861156    1.121827    0.631157
     16          1           0        3.998509    2.004884   -1.370308
     17          1           0        3.865426    2.578424    0.288288
     18          1           0        1.594805    3.538611   -0.220628
     19          1           0        1.728644    2.961813   -1.888648
     20          1           0        2.825738    4.221009   -1.296939
     21          6           0       -3.542420    1.167808    1.667974
     22          6           0       -2.283483    0.624386    1.944182
     23          6           0       -1.636903   -0.183208    1.003824
     24          6           0       -2.281106   -0.427888   -0.207961
     25          6           0       -3.535226    0.099041   -0.512627
     26          6           0       -4.163179    0.903866    0.442611
     27          1           0       -4.037464    1.794091    2.404247
     28          1           0       -1.799013    0.827675    2.894977
     29          1           0       -0.662107   -0.616696    1.191651
     30          1           0       -3.993097   -0.121434   -1.469268
     31          1           0       -5.140869    1.324554    0.225378
     32          7           0       -1.606461   -1.281386   -1.211353
     33          8           0       -2.195171   -1.481898   -2.271472
     34          8           0       -0.501738   -1.733683   -0.918693
 ---------------------------------------------------------------------

 SCF Done:  E(RHF) =  -669.536131618     A.U. after   15 cycles
 E2 =    -0.2092180962D+01 EUMP2 =    -0.67162831257927D+03

 The electronic state is 1-A.
 Alpha  occ. eigenvalues --  -20.60877 -20.60871 -15.85913 -11.31216 -11.27791
 Alpha  occ. eigenvalues --  -11.27765 -11.27530 -11.26796 -11.26785 -11.21342
 Alpha  occ. eigenvalues --  -11.21015 -11.20934 -11.20905 -11.20876 -11.20535
 Alpha  occ. eigenvalues --   -1.59941  -1.39496  -1.19389  -1.08799  -1.08008
 Alpha  occ. eigenvalues --   -1.04785  -1.03113  -0.95643  -0.95591  -0.86610
 Alpha  occ. eigenvalues --   -0.86186  -0.82482  -0.79177  -0.77890  -0.77439
 Alpha  occ. eigenvalues --   -0.72140  -0.71252  -0.70502  -0.65054  -0.64803
 Alpha  occ. eigenvalues --   -0.64621  -0.62132  -0.60508  -0.58956  -0.57186
 Alpha  occ. eigenvalues --   -0.55296  -0.54890  -0.53117  -0.52883  -0.52284
 Alpha  occ. eigenvalues --   -0.52014  -0.49544  -0.48909  -0.48895  -0.47483
 Alpha  occ. eigenvalues --   -0.46198  -0.45414  -0.45307  -0.44749  -0.43371
 Alpha  occ. eigenvalues --   -0.37371  -0.36382
 Alpha virt. eigenvalues --    0.04977   0.11246   0.16460   0.20544   0.23185
 Alpha virt. eigenvalues --    0.24292   0.25308   0.27401   0.27729   0.28290
 Alpha virt. eigenvalues --    0.29538   0.30759   0.31522   0.32008   0.32392

 Mulliken charges:
               1
     1  C   -0.298101
     2  C   -0.306714
     3  C   -0.475504
     4  H    0.150760
     5  H    0.144744
     6  H    0.181413
     7  H    0.138224
     8  H    0.150183
     9  H    0.155709
    10  H    0.160829
    11  C   -0.299361
    12  C   -0.299282
    13  C   -0.475396
    14  H    0.161111
    15  H    0.138722
    16  H    0.153395
    17  H    0.149440
    18  H    0.151333
    19  H    0.157249
    20  H    0.159195
    21  C   -0.170250
    22  C   -0.220356
    23  C   -0.173232
    24  C    0.156503
    25  C   -0.170280
    26  C   -0.218846
    27  H    0.225719
    28  H    0.223568
    29  H    0.282524
    30  H    0.275527
    31  H    0.223530
    32  N    0.492982
    33  O   -0.459702
    34  O   -0.465641
 Sum of Mulliken charges =  -0.00000

 Dipole moment (field-independent basis, Debye):
    X=             -2.4782    Y=              2.8779    Z=              3.3369  Tot=              5.0556
 Quadrupole moment (field-independent basis, Debye-Ang):
   XX=            -81.8038   YY=            -98.8848   ZZ=            -94.0656
   XY=             -6.2994   XZ=             -5.7726   YZ=             -1.6793

 Normal termination of Gaussian 16 at Thu May  6 12:05:18 2021.
