 Gaussian 16, Revision A.03,
 Gaussian 16:  EM64L-G16RevA.03 25-Dec-2016

 -------------
 #p 6-31g* mp2
 -------------

 ------------------------------------------------------
 Input file generated by CHIRIPA (05-May-2021 14:57:23)
 ------------------------------------------------------
 Symbolic Z-matrix:
 Charge =  0 Multiplicity = 1

                         Standard orientation:
 ---------------------------------------------------------------------
 Center     Atomic      Atomic             Coordinates (Angstroms)
 Number     Number       Type             X           Y           Z
 ---------------------------------------------------------------------
      1          6           0       -6.184166    0.726706    0.527315
      2          6           0       -5.094909    1.482940    0.972454
      3          6           0       -3.787688    1.094847    0.664060
      4          6           0       -3.605411   -0.060165   -0.094894
      5          6           0       -4.670106   -0.834681   -0.552975
      6          6           0       -5.968668   -0.427656   -0.232639
      7          1           0       -7.196283    1.035539    0.771521
      8          1           0       -5.259268    2.379885    1.562810
      9          1           0       -2.926281    1.661715    0.995809
     10          1           0       -4.474661   -1.724032   -1.139724
     11          1           0       -6.812698   -1.016906   -0.579688
     12          7           0       -2.226098   -0.481043   -0.427698
     13          8           0       -2.092193   -1.502636   -1.097812
     14          8           0       -1.305015    0.218636   -0.012133
     15          6           0        4.501760    2.376349   -0.436915
     16          6           0        5.438752    1.477084    0.082596
     17          6           0        5.079181    0.152935    0.350708
     18          6           0        3.768059   -0.239827    0.086154
     19          6           0        2.811723    0.632480   -0.431333
     20          6           0        3.193542    1.951924   -0.691772
     21          1           0        4.789725    3.403152   -0.642209
     22          1           0        6.455444    1.803914    0.281505
     23          1           0        5.784461   -0.564116    0.752997
     24          1           0        1.805750    0.277343   -0.619252
     25          1           0        2.463755    2.648117   -1.095221
     26          7           0        3.375621   -1.639154    0.365931
     27          8           0        2.214176   -1.960409    0.124109
     28          8           0        4.236904   -2.388195    0.821743
 ---------------------------------------------------------------------

 SCF Done:  E(RHF) =  -868.338250222     A.U. after   16 cycles
 E2 =    -0.2599216298D+01 EUMP2 =    -0.87093746651982D+03

 The electronic state is 1-A.
 Alpha  occ. eigenvalues --  -20.60840 -20.60809 -20.59587 -20.59509 -15.85861
 Alpha  occ. eigenvalues --  -15.84602 -11.31225 -11.30055 -11.27811 -11.27769
 Alpha  occ. eigenvalues --  -11.27535 -11.26818 -11.26789 -11.26756 -11.26535
 Alpha  occ. eigenvalues --  -11.26475 -11.25802 -11.25678  -1.59869  -1.58637
 Alpha  occ. eigenvalues --   -1.39430  -1.38177  -1.19393  -1.18277  -1.08788
 Alpha  occ. eigenvalues --   -1.07680  -1.04798  -1.03682  -0.95624  -0.94477
 Alpha  occ. eigenvalues --   -0.86196  -0.85083  -0.82461  -0.81295  -0.77506
 Alpha  occ. eigenvalues --   -0.76298  -0.72083  -0.71185  -0.70814  -0.70504
 Alpha  occ. eigenvalues --   -0.69972  -0.69389  -0.65051  -0.64801  -0.63928
 Alpha  occ. eigenvalues --   -0.63700  -0.62146  -0.60987  -0.55299  -0.54241
 Alpha  occ. eigenvalues --   -0.53125  -0.52892  -0.52041  -0.51770  -0.48837
 Alpha  occ. eigenvalues --   -0.48798  -0.47617  -0.47546  -0.44836  -0.43564
 Alpha  occ. eigenvalues --   -0.37373  -0.36400  -0.36322  -0.35297
 Alpha virt. eigenvalues --    0.05034   0.06208   0.11254   0.12346   0.16525
 Alpha virt. eigenvalues --    0.17645   0.21374   0.22444   0.27289   0.28183
 Alpha virt. eigenvalues --    0.28404   0.29435   0.30939   0.31940   0.32494

 Mulliken charges:
               1
     1  C   -0.170733
     2  C   -0.218470
     3  C   -0.171009
     4  C    0.158541
     5  C   -0.170334
     6  C   -0.218527
     7  H    0.225698
     8  H    0.222895
     9  H    0.273530
    10  H    0.277235
    11  H    0.224089
    12  N    0.490268
    13  O   -0.451732
    14  O   -0.467924
    15  C   -0.171518
    16  C   -0.220000
    17  C   -0.171728
    18  C    0.155312
    19  C   -0.176470
    20  C   -0.221713
    21  H    0.220858
    22  H    0.218934
    23  H    0.272423
    24  H    0.299329
    25  H    0.222015
    26  N    0.486206
    27  O   -0.449079
    28  O   -0.468095
 Sum of Mulliken charges =  -0.00000

 Dipole moment (field-independent basis, Debye):
    X=             -3.9685    Y=              6.2223    Z=              0.1007  Tot=              7.3808
 Quadrupole moment (field-independent basis, Debye-Ang):
   XX=            -56.8444   YY=           -105.3023   ZZ=           -104.9433
   XY=             13.8676   XZ=             -4.7950   YZ=              2.5841

 Normal termination of Gaussian 16 at Thu May  6 03:25:00 2021.
