 Gaussian 16, Revision A.03,
 Gaussian 16:  EM64L-G16RevA.03 25-Dec-2016

 -------------
 #p 6-31g* mp2
 -------------

 ------------------------------------------------------
 Input file generated by CHIRIPA (05-May-2021 14:57:22)
 ------------------------------------------------------
 Symbolic Z-matrix:
 Charge =  0 Multiplicity = 1

                         Standard orientation:
 ---------------------------------------------------------------------
 Center     Atomic      Atomic             Coordinates (Angstroms)
 Number     Number       Type             X           Y           Z
 ---------------------------------------------------------------------
      1          6           0        1.371733    1.715114   -1.397978
      2          6           0        2.751716    1.869567   -1.566240
      3          6           0        3.646719    1.022861   -0.905479
      4          6           0        3.124807    0.027865   -0.080325
      5          6           0        1.755185   -0.151251    0.107670
      6          6           0        0.878741    0.706975   -0.563032
      7          1           0        0.683681    2.377330   -1.915135
      8          1           0        3.137422    2.651629   -2.214049
      9          1           0        4.719723    1.120171   -1.017785
     10          1           0        1.400644   -0.940047    0.759990
     11          1           0       -0.192483    0.584691   -0.430475
     12          7           0        4.062483   -0.874602    0.624456
     13          8           0        3.577391   -1.743430    1.345886
     14          8           0        5.264770   -0.696041    0.442087
     15          6           0       -2.802110    1.757334    1.808168
     16          6           0       -3.589918    1.871124    0.657979
     17          6           0       -3.690435    0.806002   -0.241999
     18          6           0       -2.986523   -0.363569    0.040669
     19          6           0       -2.193437   -0.507565    1.178021
     20          6           0       -2.107608    0.570446    2.064066
     21          1           0       -2.729730    2.589753    2.501880
     22          1           0       -4.130383    2.791679    0.456682
     23          1           0       -4.293117    0.867074   -1.140031
     24          1           0       -1.666334   -1.437845    1.351679
     25          1           0       -1.495031    0.479242    2.956521
     26          7           0       -3.085161   -1.497988   -0.904722
     27          8           0       -2.455172   -2.517722   -0.632893
     28          8           0       -3.790597   -1.345930   -1.899648
 ---------------------------------------------------------------------

 SCF Done:  E(RHF) =  -868.336855634     A.U. after   16 cycles
 E2 =    -0.2602280477D+01 EUMP2 =    -0.87093913611107D+03

 The electronic state is 1-A.
 Alpha  occ. eigenvalues --  -20.61592 -20.61582 -20.60777 -20.60771 -15.86650
 Alpha  occ. eigenvalues --  -15.85827 -11.32226 -11.31181 -11.28766 -11.28748
 Alpha  occ. eigenvalues --  -11.28458 -11.27789 -11.27761 -11.27736 -11.27723
 Alpha  occ. eigenvalues --  -11.27441 -11.26752 -11.26607  -1.60669  -1.59851
 Alpha  occ. eigenvalues --   -1.40212  -1.39406  -1.20419  -1.19330  -1.09728
 Alpha  occ. eigenvalues --   -1.08728  -1.05812  -1.04724  -0.96534  -0.95573
 Alpha  occ. eigenvalues --   -0.87165  -0.86130  -0.83338  -0.82407  -0.78380
 Alpha  occ. eigenvalues --   -0.77468  -0.72843  -0.72050  -0.72020  -0.71417
 Alpha  occ. eigenvalues --   -0.71173  -0.70454  -0.66002  -0.65731  -0.64980
 Alpha  occ. eigenvalues --   -0.64767  -0.63112  -0.62127  -0.56212  -0.55292
 Alpha  occ. eigenvalues --   -0.54273  -0.53829  -0.53059  -0.52590  -0.49626
 Alpha  occ. eigenvalues --   -0.49600  -0.48806  -0.48796  -0.45564  -0.44815
 Alpha  occ. eigenvalues --   -0.38388  -0.37465  -0.37289  -0.36286
 Alpha virt. eigenvalues --    0.04097   0.05070   0.10144   0.11334   0.15554
 Alpha virt. eigenvalues --    0.16605   0.20146   0.21631   0.25346   0.27087
 Alpha virt. eigenvalues --    0.27706   0.28822   0.30359   0.30876   0.31548

 Mulliken charges:
               1
     1  C   -0.173635
     2  C   -0.218066
     3  C   -0.171723
     4  C    0.159264
     5  C   -0.174842
     6  C   -0.221406
     7  H    0.224805
     8  H    0.222880
     9  H    0.275345
    10  H    0.270511
    11  H    0.234487
    12  N    0.488189
    13  O   -0.461228
    14  O   -0.460262
    15  C   -0.172090
    16  C   -0.218429
    17  C   -0.174956
    18  C    0.157994
    19  C   -0.192684
    20  C   -0.213945
    21  H    0.230378
    22  H    0.226978
    23  H    0.278505
    24  H    0.279621
    25  H    0.230667
    26  N    0.488161
    27  O   -0.456538
    28  O   -0.457980
 Sum of Mulliken charges =  -0.00000

 Dipole moment (field-independent basis, Debye):
    X=             -3.2180    Y=              7.2088    Z=              0.9150  Tot=              7.9473
 Quadrupole moment (field-independent basis, Debye-Ang):
   XX=           -122.8855   YY=           -105.7118   ZZ=           -102.3419
   XY=             -2.2272   XZ=            -17.5852   YZ=             -4.1127

 Normal termination of Gaussian 16 at Thu May  6 14:32:56 2021.
