 Gaussian 16, Revision A.03,
 Gaussian 16:  EM64L-G16RevA.03 25-Dec-2016

 -------------
 #p 6-31g* mp2
 -------------

 ------------------------------------------------------
 Input file generated by CHIRIPA (05-May-2021 14:53:14)
 ------------------------------------------------------
 Symbolic Z-matrix:
 Charge =  0 Multiplicity = 1

                         Standard orientation:
 ---------------------------------------------------------------------
 Center     Atomic      Atomic             Coordinates (Angstroms)
 Number     Number       Type             X           Y           Z
 ---------------------------------------------------------------------
      1          6           0       -4.063591   -0.159565    0.053349
      2          6           0       -4.724466   -0.722069   -1.205547
      3          6           0       -5.541268   -1.984986   -0.930464
      4          1           0       -3.414800   -0.928806    0.494125
      5          1           0       -4.839676    0.059890    0.799624
      6          1           0       -3.947490   -0.939104   -1.949738
      7          1           0       -5.371612    0.048664   -1.643484
      8          1           0       -6.336737   -1.779306   -0.206914
      9          1           0       -4.904525   -2.772687   -0.514909
     10          1           0       -6.004883   -2.370167   -1.844005
     11          6           0       -3.243512    1.103047   -0.205511
     12          6           0       -2.582637    1.665551    1.053385
     13          6           0       -1.765836    2.928468    0.778302
     14          1           0       -2.467428    0.883591   -0.951787
     15          1           0       -3.892304    1.872288   -0.646287
     16          1           0       -1.935492    0.894817    1.491321
     17          1           0       -3.359613    1.882586    1.797576
     18          1           0       -2.402579    3.716169    0.362746
     19          1           0       -0.970366    2.722788    0.054752
     20          1           0       -1.302220    3.313648    1.691843
     21          6           0        1.389002   -1.966444    1.349959
     22          6           0        2.539888   -2.435143    0.707850
     23          6           0        3.359184   -1.558810   -0.010023
     24          6           0        2.996000   -0.214069   -0.065324
     25          6           0        1.855743    0.283301    0.563744
     26          6           0        1.051198   -0.611108    1.275987
     27          1           0        0.758283   -2.654222    1.905433
     28          1           0        2.804693   -3.487196    0.763596
     29          1           0        4.255806   -1.894844   -0.516547
     30          1           0        1.617717    1.337511    0.490242
     31          1           0        0.157997   -0.244298    1.773669
     32          7           0        3.855544    0.723234   -0.822324
     33          8           0        3.513676    1.903333   -0.855906
     34          8           0        4.854848    0.260044   -1.367745
 ---------------------------------------------------------------------

 SCF Done:  E(RHF) =  -669.535491635     A.U. after   15 cycles
 E2 =    -0.2091582138D+01 EUMP2 =    -0.67162707377243D+03

 The electronic state is 1-A.
 Alpha  occ. eigenvalues --  -20.60763 -20.60758 -15.85816 -11.31185 -11.27760
 Alpha  occ. eigenvalues --  -11.27745 -11.27502 -11.26777 -11.26747 -11.22435
 Alpha  occ. eigenvalues --  -11.22057 -11.21993 -11.21934 -11.21744 -11.21496
 Alpha  occ. eigenvalues --   -1.59838  -1.39392  -1.19360  -1.09040  -1.08755
 Alpha  occ. eigenvalues --   -1.04765  -1.04131  -0.96556  -0.95588  -0.87570
 Alpha  occ. eigenvalues --   -0.86164  -0.82422  -0.80204  -0.78843  -0.77467
 Alpha  occ. eigenvalues --   -0.72034  -0.71162  -0.70470  -0.65718  -0.65010
 Alpha  occ. eigenvalues --   -0.64760  -0.62211  -0.61435  -0.59928  -0.58166
 Alpha  occ. eigenvalues --   -0.55844  -0.55257  -0.53251  -0.53094  -0.52968
 Alpha  occ. eigenvalues --   -0.52888  -0.50487  -0.48802  -0.48789  -0.48498
 Alpha  occ. eigenvalues --   -0.47236  -0.46384  -0.46289  -0.44796  -0.44374
 Alpha  occ. eigenvalues --   -0.37344  -0.36365
 Alpha virt. eigenvalues --    0.05057   0.11255   0.16493   0.19041   0.22811
 Alpha virt. eigenvalues --    0.23635   0.25034   0.25855   0.26981   0.28581
 Alpha virt. eigenvalues --    0.29018   0.29722   0.31238   0.31409   0.32214

 Mulliken charges:
               1
     1  C   -0.297492
     2  C   -0.300359
     3  C   -0.475780
     4  H    0.144536
     5  H    0.150528
     6  H    0.153592
     7  H    0.153966
     8  H    0.155708
     9  H    0.153502
    10  H    0.162210
    11  C   -0.298994
    12  C   -0.303369
    13  C   -0.480168
    14  H    0.152392
    15  H    0.153448
    16  H    0.141510
    17  H    0.155659
    18  H    0.161620
    19  H    0.157075
    20  H    0.160916
    21  C   -0.172205
    22  C   -0.218564
    23  C   -0.170818
    24  C    0.159009
    25  C   -0.176067
    26  C   -0.224815
    27  H    0.225905
    28  H    0.223400
    29  H    0.275600
    30  H    0.278534
    31  H    0.232339
    32  N    0.487987
    33  O   -0.460285
    34  O   -0.460518
 Sum of Mulliken charges =  -0.00000

 Dipole moment (field-independent basis, Debye):
    X=             -3.1767    Y=             -3.2234    Z=              2.5831  Tot=              5.2109
 Quadrupole moment (field-independent basis, Debye-Ang):
   XX=           -110.6392   YY=            -90.9033   ZZ=            -95.6226
   XY=            -13.3444   XZ=              7.4903   YZ=              0.7324

 Normal termination of Gaussian 16 at Thu May  6 01:03:48 2021.
