 Gaussian 16, Revision A.03,
 Gaussian 16:  EM64L-G16RevA.03 25-Dec-2016

 -------------
 #p 6-31g* mp2
 -------------

 ------------------------------------------------------
 Input file generated by CHIRIPA (05-May-2021 14:51:14)
 ------------------------------------------------------
 Symbolic Z-matrix:
 Charge =  0 Multiplicity = 1

                         Standard orientation:
 ---------------------------------------------------------------------
 Center     Atomic      Atomic             Coordinates (Angstroms)
 Number     Number       Type             X           Y           Z
 ---------------------------------------------------------------------
      1          6           0       -2.980729   -0.536502   -0.061083
      2          6           0       -2.505548   -1.503687    1.023693
      3          6           0       -1.231884   -2.252933    0.631004
      4          1           0       -3.154171   -1.095094   -0.991050
      5          1           0       -2.180557    0.185608   -0.274809
      6          1           0       -3.306888   -2.222905    1.236292
      7          1           0       -2.333400   -0.942759    1.951238
      8          1           0       -0.415138   -1.549759    0.438461
      9          1           0       -1.394156   -2.837178   -0.280548
     10          1           0       -0.909933   -2.938839    1.420776
     11          6           0       -4.253008    0.219972    0.316779
     12          6           0       -4.728189    1.187158   -0.767997
     13          6           0       -6.001853    1.936403   -0.375308
     14          1           0       -5.053180   -0.502138    0.530505
     15          1           0       -4.079566    0.778564    1.246746
     16          1           0       -4.900337    0.626229   -1.695543
     17          1           0       -3.926849    1.906375   -0.980596
     18          1           0       -5.839581    2.520649    0.536244
     19          1           0       -6.818599    1.233229   -0.182765
     20          1           0       -6.323804    2.622309   -1.165080
     21          6           0        3.437391    0.890364   -0.004353
     22          6           0        4.659219    1.794394    0.162531
     23          6           0        4.283930    3.255985    0.408911
     24          1           0        2.827361    1.259666   -0.840071
     25          1           0        2.811023    0.962372    0.895576
     26          1           0        5.283802    1.719641   -0.736872
     27          1           0        5.266512    1.422784    0.997826
     28          1           0        3.679820    3.350788    1.317021
     29          1           0        3.697208    3.649332   -0.427533
     30          1           0        5.172369    3.884461    0.525317
     31          6           0        3.796346   -0.573834   -0.251343
     32          6           0        2.574517   -1.477864   -0.418226
     33          6           0        2.949807   -2.939455   -0.664606
     34          1           0        4.422714   -0.645842   -1.151272
     35          1           0        4.406376   -0.943137    0.584376
     36          1           0        1.967226   -1.106255   -1.253522
     37          1           0        1.949935   -1.403111    0.481175
     38          1           0        3.536528   -3.332802    0.171838
     39          1           0        3.553918   -3.034259   -1.572717
     40          1           0        2.061367   -3.567932   -0.781013
 ---------------------------------------------------------------------

 SCF Done:  E(RHF) =  -470.733073725     A.U. after   11 cycles
 E2 =    -0.1582661362D+01 EUMP2 =    -0.47231573508713D+03

 The electronic state is 1-A.
 Alpha  occ. eigenvalues --  -11.21610 -11.21592 -11.21571 -11.21551 -11.21404
 Alpha  occ. eigenvalues --  -11.21388 -11.21337 -11.21328 -11.21084 -11.21063
 Alpha  occ. eigenvalues --  -11.21018 -11.20986  -1.08430  -1.08404  -1.03543
 Alpha  occ. eigenvalues --   -1.03480  -0.95993  -0.95927  -0.86994  -0.86962
 Alpha  occ. eigenvalues --   -0.79678  -0.79490  -0.78280  -0.78183  -0.65083
 Alpha  occ. eigenvalues --   -0.65017  -0.60999  -0.60835  -0.59344  -0.59323
 Alpha  occ. eigenvalues --   -0.57673  -0.57476  -0.55300  -0.55199  -0.52694
 Alpha  occ. eigenvalues --   -0.52620  -0.52386  -0.52370  -0.50004  -0.49846
 Alpha  occ. eigenvalues --   -0.48050  -0.47742  -0.46737  -0.46492  -0.45860
 Alpha  occ. eigenvalues --   -0.45730  -0.45723  -0.45511  -0.43770  -0.43759
 Alpha virt. eigenvalues --    0.22224   0.23045   0.23558   0.24720   0.26152
 Alpha virt. eigenvalues --    0.26656   0.26816   0.27567   0.27859   0.28982
 Alpha virt. eigenvalues --    0.30817   0.31148   0.31438   0.31902   0.32265

 Mulliken charges:
               1
     1  C   -0.298423
     2  C   -0.299499
     3  C   -0.482079
     4  H    0.149511
     5  H    0.149766
     6  H    0.151616
     7  H    0.151481
     8  H    0.163586
     9  H    0.154464
    10  H    0.159338
    11  C   -0.298244
    12  C   -0.299649
    13  C   -0.475691
    14  H    0.149494
    15  H    0.149586
    16  H    0.151875
    17  H    0.151931
    18  H    0.155174
    19  H    0.155160
    20  H    0.160207
    21  C   -0.298400
    22  C   -0.299567
    23  C   -0.475713
    24  H    0.149415
    25  H    0.148876
    26  H    0.152061
    27  H    0.152018
    28  H    0.155037
    29  H    0.155110
    30  H    0.160330
    31  C   -0.297557
    32  C   -0.303418
    33  C   -0.476540
    34  H    0.149407
    35  H    0.149524
    36  H    0.151813
    37  H    0.156120
    38  H    0.154790
    39  H    0.154798
    40  H    0.162290
 Sum of Mulliken charges =  -0.00000

 Dipole moment (field-independent basis, Debye):
    X=              0.0169    Y=             -0.0051    Z=             -0.0050  Tot=              0.0183
 Quadrupole moment (field-independent basis, Debye-Ang):
   XX=            -85.4366   YY=            -85.8089   ZZ=            -83.6521
   XY=              1.0641   XZ=              0.4086   YZ=             -0.1304

 Normal termination of Gaussian 16 at Wed May  5 15:22:50 2021.
