 Gaussian 16, Revision A.03,
 Gaussian 16:  EM64L-G16RevA.03 25-Dec-2016

 -------------
 #p 6-31g* mp2
 -------------

 ------------------------------------------------------
 Input file generated by CHIRIPA (05-May-2021 14:55:19)
 ------------------------------------------------------
 Symbolic Z-matrix:
 Charge =  0 Multiplicity = 1

                         Standard orientation:
 ---------------------------------------------------------------------
 Center     Atomic      Atomic             Coordinates (Angstroms)
 Number     Number       Type             X           Y           Z
 ---------------------------------------------------------------------
      1          6           0       -1.379218   -2.223908    0.696113
      2          6           0       -2.762318   -2.418551    0.771416
      3          6           0       -3.644050   -1.413967    0.361650
      4          6           0       -3.105833   -0.221829   -0.120447
      5          6           0       -1.732700    0.002192   -0.207691
      6          6           0       -0.869722   -1.016287    0.207661
      7          1           0       -0.701552   -3.009690    1.016599
      8          1           0       -3.160829   -3.355384    1.150333
      9          1           0       -4.719109   -1.538100    0.409167
     10          1           0       -1.365260    0.946837   -0.589858
     11          1           0        0.203960   -0.862342    0.148049
     12          7           0       -4.029356    0.849034   -0.557204
     13          8           0       -3.530013    1.890223   -0.978180
     14          8           0       -5.235069    0.626912   -0.470288
     15          6           0        3.534207    1.228976   -0.012531
     16          6           0        2.463183    1.611965    1.009336
     17          6           0        1.980211    3.053596    0.847372
     18          1           0        4.386299    1.915681    0.084008
     19          1           0        3.132037    1.370325   -1.025287
     20          1           0        2.866786    1.468617    2.019866
     21          1           0        1.613622    0.924149    0.910482
     22          1           0        1.552392    3.206948   -0.148647
     23          1           0        2.812676    3.754511    0.967040
     24          1           0        1.214908    3.306193    1.587890
     25          6           0        4.027073   -0.209277    0.136598
     26          6           0        5.098097   -0.592266   -0.885269
     27          6           0        5.581069   -2.033898   -0.723306
     28          1           0        4.429242   -0.350627    1.149354
     29          1           0        3.174981   -0.895983    0.040058
     30          1           0        5.947656    0.095550   -0.786415
     31          1           0        4.694493   -0.448919   -1.895800
     32          1           0        4.748603   -2.734812   -0.842973
     33          1           0        6.008887   -2.187250    0.272714
     34          1           0        6.346371   -2.286493   -1.463824
 ---------------------------------------------------------------------

 SCF Done:  E(RHF) =  -669.535418734     A.U. after   15 cycles
 E2 =    -0.2091589385D+01 EUMP2 =    -0.67162700811883D+03

 The electronic state is 1-A.
 Alpha  occ. eigenvalues --  -20.60755 -20.60750 -15.85809 -11.31179 -11.27755
 Alpha  occ. eigenvalues --  -11.27749 -11.27493 -11.26767 -11.26743 -11.22387
 Alpha  occ. eigenvalues --  -11.22257 -11.22197 -11.22086 -11.21669 -11.21580
 Alpha  occ. eigenvalues --   -1.59831  -1.39384  -1.19355  -1.09168  -1.08747
 Alpha  occ. eigenvalues --   -1.04762  -1.04192  -0.96621  -0.95581  -0.87632
 Alpha  occ. eigenvalues --   -0.86158  -0.82419  -0.80262  -0.78997  -0.77459
 Alpha  occ. eigenvalues --   -0.72027  -0.71154  -0.70461  -0.65862  -0.65006
 Alpha  occ. eigenvalues --   -0.64745  -0.62171  -0.61535  -0.59982  -0.58234
 Alpha  occ. eigenvalues --   -0.55913  -0.55259  -0.53292  -0.53087  -0.53036
 Alpha  occ. eigenvalues --   -0.52865  -0.50563  -0.48793  -0.48781  -0.48558
 Alpha  occ. eigenvalues --   -0.47307  -0.46518  -0.46440  -0.44788  -0.44458
 Alpha  occ. eigenvalues --   -0.37333  -0.36356
 Alpha virt. eigenvalues --    0.05064   0.11270   0.16478   0.18694   0.22824
 Alpha virt. eigenvalues --    0.23474   0.24503   0.26257   0.26977   0.28493
 Alpha virt. eigenvalues --    0.29121   0.30736   0.31171   0.31494   0.32393

 Mulliken charges:
               1
     1  C   -0.171749
     2  C   -0.218556
     3  C   -0.170864
     4  C    0.158567
     5  C   -0.172791
     6  C   -0.224513
     7  H    0.226038
     8  H    0.223427
     9  H    0.275634
    10  H    0.276048
    11  H    0.231397
    12  N    0.488103
    13  O   -0.460320
    14  O   -0.460547
    15  C   -0.299200
    16  C   -0.304243
    17  C   -0.476945
    18  H    0.154107
    19  H    0.150063
    20  H    0.155287
    21  H    0.143423
    22  H    0.156497
    23  H    0.158567
    24  H    0.164663
    25  C   -0.298773
    26  C   -0.300179
    27  C   -0.475845
    28  H    0.151935
    29  H    0.140537
    30  H    0.154973
    31  H    0.153367
    32  H    0.152890
    33  H    0.156019
    34  H    0.162983
 Sum of Mulliken charges =  -0.00000

 Dipole moment (field-independent basis, Debye):
    X=              3.4196    Y=             -3.6729    Z=              1.5556  Tot=              5.2540
 Quadrupole moment (field-independent basis, Debye-Ang):
   XX=           -110.9445   YY=            -92.3680   ZZ=            -95.2016
   XY=             14.6779   XZ=             -5.8050   YZ=             -0.4281

 Normal termination of Gaussian 16 at Wed May  5 17:19:49 2021.
