 Gaussian 16, Revision A.03,
 Gaussian 16:  EM64L-G16RevA.03 25-Dec-2016

 -------------
 #p 6-31g* mp2
 -------------

 ------------------------------------------------------
 Input file generated by CHIRIPA (05-May-2021 14:53:12)
 ------------------------------------------------------
 Symbolic Z-matrix:
 Charge =  0 Multiplicity = 1

                         Standard orientation:
 ---------------------------------------------------------------------
 Center     Atomic      Atomic             Coordinates (Angstroms)
 Number     Number       Type             X           Y           Z
 ---------------------------------------------------------------------
      1          6           0       -4.886719    0.370366   -0.440124
      2          6           0       -6.181480    0.892780    0.183302
      3          6           0       -6.953419    1.824885   -0.751087
      4          1           0       -4.251075    1.222342   -0.717684
      5          1           0       -5.124745   -0.159050   -1.373107
      6          1           0       -5.941219    1.419859    1.115546
      7          1           0       -6.814032    0.039456    0.459585
      8          1           0       -7.221747    1.306245   -1.677162
      9          1           0       -6.343974    2.694492   -1.017474
     10          1           0       -7.875471    2.186612   -0.285434
     11          6           0       -4.103844   -0.562769    0.481882
     12          6           0       -2.809082   -1.085184   -0.141544
     13          6           0       -2.037143   -2.017289    0.792845
     14          1           0       -3.865818   -0.033354    1.414865
     15          1           0       -4.739487   -1.414746    0.759442
     16          1           0       -2.176530   -0.231860   -0.417827
     17          1           0       -3.049343   -1.612263   -1.073788
     18          1           0       -2.646588   -2.886896    1.059232
     19          1           0       -1.768816   -1.498649    1.718920
     20          1           0       -1.115091   -2.379016    0.327192
     21          6           0        4.871370    2.194749    0.142439
     22          6           0        5.269017    1.171370   -0.724218
     23          6           0        4.523454   -0.007378   -0.820330
     24          6           0        3.380514   -0.129756   -0.031659
     25          6           0        2.958487    0.871894    0.841197
     26          6           0        3.719405    2.042015    0.921008
     27          1           0        5.456505    3.107078    0.210768
     28          1           0        6.163204    1.287229   -1.330064
     29          1           0        4.808496   -0.815499   -1.482984
     30          1           0        2.062446    0.727362    1.432501
     31          1           0        3.408197    2.835123    1.594932
     32          7           0        2.583091   -1.373077   -0.124779
     33          8           0        1.580102   -1.456378    0.580707
     34          8           0        2.976161   -2.240749   -0.901490
 ---------------------------------------------------------------------

 SCF Done:  E(RHF) =  -669.535977042     A.U. after   15 cycles
 E2 =    -0.2090792277D+01 EUMP2 =    -0.67162676931845D+03

 The electronic state is 1-A.
 Alpha  occ. eigenvalues --  -20.60931 -20.60916 -15.85956 -11.31286 -11.27850
 Alpha  occ. eigenvalues --  -11.27847 -11.27589 -11.26859 -11.26850 -11.21217
 Alpha  occ. eigenvalues --  -11.20871 -11.20777 -11.20682 -11.20598 -11.19568
 Alpha  occ. eigenvalues --   -1.59990  -1.39544  -1.19455  -1.08859  -1.07785
 Alpha  occ. eigenvalues --   -1.04853  -1.02779  -0.95703  -0.95197  -0.86258
 Alpha  occ. eigenvalues --   -0.86210  -0.82531  -0.78881  -0.77591  -0.77562
 Alpha  occ. eigenvalues --   -0.72182  -0.71304  -0.70564  -0.65111  -0.64856
 Alpha  occ. eigenvalues --   -0.64431  -0.62200  -0.60193  -0.58614  -0.56784
 Alpha  occ. eigenvalues --   -0.55357  -0.54513  -0.53185  -0.52946  -0.51832
 Alpha  occ. eigenvalues --   -0.51634  -0.49191  -0.48935  -0.48911  -0.47163
 Alpha  occ. eigenvalues --   -0.45954  -0.45107  -0.45036  -0.44947  -0.42988
 Alpha  occ. eigenvalues --   -0.37435  -0.36454
 Alpha virt. eigenvalues --    0.04936   0.11200   0.16425   0.21319   0.23434
 Alpha virt. eigenvalues --    0.25095   0.27167   0.27296   0.28077   0.28139
 Alpha virt. eigenvalues --    0.28940   0.30919   0.32023   0.32361   0.32564

 Mulliken charges:
               1
     1  C   -0.297295
     2  C   -0.298951
     3  C   -0.475213
     4  H    0.147169
     5  H    0.149125
     6  H    0.150367
     7  H    0.151780
     8  H    0.155033
     9  H    0.153754
    10  H    0.158816
    11  C   -0.297110
    12  C   -0.299192
    13  C   -0.479960
    14  H    0.146465
    15  H    0.148604
    16  H    0.148726
    17  H    0.149770
    18  H    0.147366
    19  H    0.150220
    20  H    0.187003
    21  C   -0.170611
    22  C   -0.218582
    23  C   -0.170612
    24  C    0.157933
    25  C   -0.170906
    26  C   -0.218547
    27  H    0.225960
    28  H    0.223789
    29  H    0.275856
    30  H    0.275828
    31  H    0.223760
    32  N    0.490096
    33  O   -0.460943
    34  O   -0.459496
 Sum of Mulliken charges =  -0.00000

 Dipole moment (field-independent basis, Debye):
    X=              3.1260    Y=              4.3061    Z=              0.3075  Tot=              5.3300
 Quadrupole moment (field-independent basis, Debye-Ang):
   XX=            -75.3487   YY=            -95.5697   ZZ=            -93.2544
   XY=             14.3913   XZ=             -1.6508   YZ=              2.0719

 Normal termination of Gaussian 16 at Thu May  6 05:44:27 2021.
