 Gaussian 16, Revision A.03,
 Gaussian 16:  EM64L-G16RevA.03 25-Dec-2016

 -------------
 #p 6-31g* mp2
 -------------

 ------------------------------------------------------
 Input file generated by CHIRIPA (05-May-2021 14:55:22)
 ------------------------------------------------------
 Symbolic Z-matrix:
 Charge =  0 Multiplicity = 1

                         Standard orientation:
 ---------------------------------------------------------------------
 Center     Atomic      Atomic             Coordinates (Angstroms)
 Number     Number       Type             X           Y           Z
 ---------------------------------------------------------------------
      1          6           0        0.580773   -0.347856    0.337031
      2          6           0        1.440129   -1.091882    1.152172
      3          6           0        2.825471   -1.014344    0.980817
      4          6           0        3.319455   -0.178957   -0.019883
      5          6           0        2.489132    0.574757   -0.847995
      6          6           0        1.107090    0.481626   -0.658696
      7          1           0       -0.494112   -0.414146    0.477113
      8          1           0        1.034196   -1.736897    1.926264
      9          1           0        3.513586   -1.579382    1.597783
     10          1           0        2.923411    1.209015   -1.611236
     11          1           0        0.442096    1.060595   -1.293222
     12          7           0        4.784308   -0.088618   -0.210788
     13          8           0        5.194496    0.654725   -1.099509
     14          8           0        5.494534   -0.762862    0.531917
     15          6           0       -4.529480   -0.230627   -0.096051
     16          6           0       -4.105197   -1.676957   -0.353150
     17          6           0       -5.295855   -2.622699   -0.513475
     18          1           0       -5.153441   -0.193329    0.807401
     19          1           0       -5.161713    0.111899   -0.926925
     20          1           0       -3.472817   -2.016199    0.477287
     21          1           0       -3.482016   -1.710790   -1.255988
     22          1           0       -5.924616   -2.311445   -1.353940
     23          1           0       -5.915365   -2.618589    0.389183
     24          1           0       -4.969735   -3.651304   -0.696449
     25          6           0       -3.350275    0.726875    0.066406
     26          6           0       -3.774556    2.173204    0.323506
     27          6           0       -2.583900    3.118946    0.483830
     28          1           0       -2.718042    0.384349    0.897281
     29          1           0       -2.726314    0.689576   -0.837046
     30          1           0       -4.397739    2.207037    1.226343
     31          1           0       -4.406938    2.512446   -0.506931
     32          1           0       -1.964389    3.114836   -0.418828
     33          1           0       -1.955139    2.807693    1.324295
     34          1           0       -2.910018    4.147551    0.666804
 ---------------------------------------------------------------------

 SCF Done:  E(RHF) =  -669.535593208     A.U. after   15 cycles
 E2 =    -0.2091836847D+01 EUMP2 =    -0.67162743005527D+03

 The electronic state is 1-A.
 Alpha  occ. eigenvalues --  -20.60680 -20.60675 -15.85734 -11.31071 -11.27647
 Alpha  occ. eigenvalues --  -11.27643 -11.27292 -11.26640 -11.26628 -11.22761
 Alpha  occ. eigenvalues --  -11.22630 -11.22624 -11.22422 -11.22058 -11.21864
 Alpha  occ. eigenvalues --   -1.59757  -1.39311  -1.19239  -1.09554  -1.08628
 Alpha  occ. eigenvalues --   -1.04645  -1.04529  -0.96985  -0.95471  -0.87993
 Alpha  occ. eigenvalues --   -0.86038  -0.82316  -0.80606  -0.79429  -0.77368
 Alpha  occ. eigenvalues --   -0.71951  -0.71080  -0.70329  -0.66173  -0.64887
 Alpha  occ. eigenvalues --   -0.64652  -0.62008  -0.61905  -0.60349  -0.58618
 Alpha  occ. eigenvalues --   -0.56279  -0.55155  -0.53617  -0.53379  -0.52969
 Alpha  occ. eigenvalues --   -0.52734  -0.50918  -0.48909  -0.48711  -0.48708
 Alpha  occ. eigenvalues --   -0.47639  -0.46887  -0.46850  -0.44823  -0.44723
 Alpha  occ. eigenvalues --   -0.37200  -0.36256
 Alpha virt. eigenvalues --    0.05164   0.11385   0.16633   0.19309   0.22514
 Alpha virt. eigenvalues --    0.22838   0.24299   0.25353   0.26753   0.28127
 Alpha virt. eigenvalues --    0.29545   0.30485   0.30804   0.31383   0.31990

 Mulliken charges:
               1
     1  C   -0.176977
     2  C   -0.220988
     3  C   -0.170701
     4  C    0.158073
     5  C   -0.170896
     6  C   -0.222672
     7  H    0.237732
     8  H    0.222818
     9  H    0.275037
    10  H    0.275099
    11  H    0.223691
    12  N    0.488053
    13  O   -0.460812
    14  O   -0.460833
    15  C   -0.297773
    16  C   -0.301481
    17  C   -0.476148
    18  H    0.153204
    19  H    0.153756
    20  H    0.147466
    21  H    0.152361
    22  H    0.157783
    23  H    0.157064
    24  H    0.162826
    25  C   -0.305113
    26  C   -0.299547
    27  C   -0.477329
    28  H    0.145201
    29  H    0.145673
    30  H    0.155936
    31  H    0.155886
    32  H    0.151088
    33  H    0.156507
    34  H    0.166020
 Sum of Mulliken charges =  -0.00000

 Dipole moment (field-independent basis, Debye):
    X=             -5.5096    Y=             -0.2626    Z=              0.6756  Tot=              5.5570
 Quadrupole moment (field-independent basis, Debye-Ang):
   XX=           -128.9394   YY=            -93.1644   ZZ=            -91.3569
   XY=             -1.3608   XZ=              2.8666   YZ=             -3.1104

 Normal termination of Gaussian 16 at Wed May  5 15:59:39 2021.
