 Gaussian 16, Revision A.03,
 Gaussian 16:  EM64L-G16RevA.03 25-Dec-2016

 -------------
 #p 6-31g* mp2
 -------------

 ------------------------------------------------------
 Input file generated by CHIRIPA (05-May-2021 14:53:13)
 ------------------------------------------------------
 Symbolic Z-matrix:
 Charge =  0 Multiplicity = 1

                         Standard orientation:
 ---------------------------------------------------------------------
 Center     Atomic      Atomic             Coordinates (Angstroms)
 Number     Number       Type             X           Y           Z
 ---------------------------------------------------------------------
      1          6           0       -4.079810   -0.053510    0.356020
      2          6           0       -4.800802    1.092931   -0.353787
      3          6           0       -5.951511    1.668949    0.471965
      4          1           0       -4.803387   -0.848228    0.583627
      5          1           0       -3.696034    0.305532    1.321007
      6          1           0       -5.181906    0.732204   -1.317764
      7          1           0       -4.075387    1.884929   -0.579902
      8          1           0       -5.583879    2.055254    1.428112
      9          1           0       -6.696685    0.895979    0.686057
     10          1           0       -6.452990    2.487161   -0.054255
     11          6           0       -2.926940   -0.639797   -0.456930
     12          6           0       -2.205947   -1.786238    0.252877
     13          6           0       -1.055238   -2.362256   -0.572875
     14          1           0       -3.310716   -0.998839   -1.421917
     15          1           0       -2.203362    0.154921   -0.684537
     16          1           0       -2.931363   -2.578236    0.478992
     17          1           0       -1.824844   -1.425511    1.216855
     18          1           0       -0.310065   -1.589286   -0.786966
     19          1           0       -1.422871   -2.748561   -1.529021
     20          1           0       -0.553759   -3.180468   -0.046655
     21          6           0        2.560991   -2.230950    0.315232
     22          6           0        2.485172   -1.660192   -0.959527
     23          6           0        2.581467   -0.275220   -1.124225
     24          6           0        2.754029    0.512686    0.012753
     25          6           0        2.833246   -0.026112    1.295996
     26          6           0        2.734480   -1.413529    1.436947
     27          1           0        2.485227   -3.307779    0.433949
     28          1           0        2.350465   -2.292561   -1.832458
     29          1           0        2.526016    0.192991   -2.099479
     30          1           0        2.967811    0.630102    2.147286
     31          1           0        2.793702   -1.854025    2.428159
     32          7           0        2.857280    1.980188   -0.149035
     33          8           0        3.009067    2.652519    0.868594
     34          8           0        2.784464    2.430298   -1.290410
 ---------------------------------------------------------------------

 SCF Done:  E(RHF) =  -669.534239258     A.U. after   15 cycles
 E2 =    -0.2092853209D+01 EUMP2 =    -0.67162709246695D+03

 The electronic state is 1-A.
 Alpha  occ. eigenvalues --  -20.60814 -20.60808 -15.85868 -11.31245 -11.27800
 Alpha  occ. eigenvalues --  -11.27782 -11.27507 -11.26817 -11.26773 -11.21840
 Alpha  occ. eigenvalues --  -11.21584 -11.21516 -11.21425 -11.21357 -11.21035
 Alpha  occ. eigenvalues --   -1.59890  -1.39443  -1.19415  -1.08806  -1.08534
 Alpha  occ. eigenvalues --   -1.04820  -1.03653  -0.96122  -0.95630  -0.87154
 Alpha  occ. eigenvalues --   -0.86198  -0.82466  -0.79734  -0.78340  -0.77514
 Alpha  occ. eigenvalues --   -0.72083  -0.71215  -0.70506  -0.65168  -0.65056
 Alpha  occ. eigenvalues --   -0.64806  -0.62155  -0.61068  -0.59509  -0.57731
 Alpha  occ. eigenvalues --   -0.55513  -0.55300  -0.53326  -0.52898  -0.52732
 Alpha  occ. eigenvalues --   -0.52447  -0.49989  -0.48844  -0.48839  -0.48042
 Alpha  occ. eigenvalues --   -0.46741  -0.45886  -0.45796  -0.44846  -0.43925
 Alpha  occ. eigenvalues --   -0.37316  -0.36354
 Alpha virt. eigenvalues --    0.04986   0.11209   0.16428   0.21098   0.22787
 Alpha virt. eigenvalues --    0.24205   0.26570   0.26956   0.27192   0.27686
 Alpha virt. eigenvalues --    0.28526   0.30444   0.31351   0.31916   0.32334

 Mulliken charges:
               1
     1  C   -0.298387
     2  C   -0.300274
     3  C   -0.475853
     4  H    0.148837
     5  H    0.150119
     6  H    0.151490
     7  H    0.154688
     8  H    0.155832
     9  H    0.154302
    10  H    0.161142
    11  C   -0.299150
    12  C   -0.298688
    13  C   -0.479538
    14  H    0.149034
    15  H    0.152281
    16  H    0.150876
    17  H    0.151732
    18  H    0.164605
    19  H    0.152040
    20  H    0.149967
    21  C   -0.165367
    22  C   -0.218264
    23  C   -0.173385
    24  C    0.158924
    25  C   -0.171360
    26  C   -0.219202
    27  H    0.225820
    28  H    0.225203
    29  H    0.275921
    30  H    0.275657
    31  H    0.223651
    32  N    0.488022
    33  O   -0.460364
    34  O   -0.460308
 Sum of Mulliken charges =  -0.00000

 Dipole moment (field-independent basis, Debye):
    X=             -0.3176    Y=             -5.1140    Z=              0.5697  Tot=              5.1555
 Quadrupole moment (field-independent basis, Debye-Ang):
   XX=            -97.8408   YY=           -100.7509   ZZ=            -89.9037
   XY=            -13.9974   XZ=              2.8334   YZ=              0.8231

 Normal termination of Gaussian 16 at Thu May  6 15:23:26 2021.
