 Gaussian 16, Revision A.03,
 Gaussian 16:  EM64L-G16RevA.03 25-Dec-2016

 -------------
 #p 6-31g* mp2
 -------------

 ------------------------------------------------------
 Input file generated by CHIRIPA (05-May-2021 14:53:18)
 ------------------------------------------------------
 Symbolic Z-matrix:
 Charge =  0 Multiplicity = 1

                         Standard orientation:
 ---------------------------------------------------------------------
 Center     Atomic      Atomic             Coordinates (Angstroms)
 Number     Number       Type             X           Y           Z
 ---------------------------------------------------------------------
      1          6           0       -3.656440    0.428452   -0.434734
      2          6           0       -3.999988   -0.966181    0.089630
      3          6           0       -5.249994   -1.553151   -0.566681
      4          1           0       -4.510592    1.098012   -0.264265
      5          1           0       -3.511121    0.377976   -1.522728
      6          1           0       -4.143257   -0.913349    1.176506
      7          1           0       -3.144847   -1.632451   -0.081934
      8          1           0       -5.114109   -1.634783   -1.649950
      9          1           0       -6.118192   -0.911596   -0.384360
     10          1           0       -5.477294   -2.550386   -0.177171
     11          6           0       -2.409228    1.028534    0.211867
     12          6           0       -2.065681    2.423167   -0.312498
     13          6           0       -0.815674    3.010137    0.343813
     14          1           0       -2.554548    1.079010    1.299860
     15          1           0       -1.555077    0.358974    0.041398
     16          1           0       -2.920822    3.089437   -0.140933
     17          1           0       -1.922412    2.370336   -1.399373
     18          1           0        0.052524    2.368582    0.161492
     19          1           0       -0.951559    3.091770    1.427083
     20          1           0       -0.588374    4.007372   -0.045696
     21          6           0        3.841890    1.413977   -0.427691
     22          6           0        2.797389    1.538258    0.494314
     23          6           0        1.975203    0.446128    0.787250
     24          6           0        2.227047   -0.760855    0.136821
     25          6           0        3.259759   -0.916184   -0.786580
     26          6           0        4.069340    0.189312   -1.064073
     27          1           0        4.475688    2.267562   -0.649252
     28          1           0        2.618415    2.488129    0.990052
     29          1           0        1.159569    0.514542    1.496812
     30          1           0        3.413581   -1.875910   -1.264788
     31          1           0        4.879778    0.089881   -1.780557
     32          7           0        1.363307   -1.924120    0.438765
     33          8           0        1.605941   -2.976628   -0.147743
     34          8           0        0.460030   -1.761352    1.256221
 ---------------------------------------------------------------------

 SCF Done:  E(RHF) =  -669.535012455     A.U. after   15 cycles
 E2 =    -0.2093612171D+01 EUMP2 =    -0.67162862462590D+03

 The electronic state is 1-A.
 Alpha  occ. eigenvalues --  -20.60920 -20.60909 -15.85943 -11.31271 -11.27838
 Alpha  occ. eigenvalues --  -11.27798 -11.27563 -11.26845 -11.26807 -11.21569
 Alpha  occ. eigenvalues --  -11.21324 -11.21020 -11.20940 -11.20865 -11.20489
 Alpha  occ. eigenvalues --   -1.59976  -1.39530  -1.19451  -1.08845  -1.08083
 Alpha  occ. eigenvalues --   -1.04855  -1.03244  -0.95754  -0.95671  -0.86779
 Alpha  occ. eigenvalues --   -0.86234  -0.82520  -0.79339  -0.77864  -0.77519
 Alpha  occ. eigenvalues --   -0.72160  -0.71292  -0.70548  -0.65105  -0.64837
 Alpha  occ. eigenvalues --   -0.64714  -0.62219  -0.60637  -0.59130  -0.57318
 Alpha  occ. eigenvalues --   -0.55341  -0.55080  -0.53213  -0.52928  -0.52435
 Alpha  occ. eigenvalues --   -0.52129  -0.49699  -0.48922  -0.48916  -0.47630
 Alpha  occ. eigenvalues --   -0.46341  -0.45472  -0.45322  -0.44754  -0.43470
 Alpha  occ. eigenvalues --   -0.37428  -0.36353
 Alpha virt. eigenvalues --    0.04906   0.11131   0.16282   0.21073   0.23207
 Alpha virt. eigenvalues --    0.24467   0.26550   0.27033   0.27560   0.28266
 Alpha virt. eigenvalues --    0.29521   0.30381   0.31657   0.31958   0.32224

 Mulliken charges:
               1
     1  C   -0.298505
     2  C   -0.301392
     3  C   -0.475795
     4  H    0.146943
     5  H    0.147759
     6  H    0.152363
     7  H    0.163850
     8  H    0.153631
     9  H    0.152043
    10  H    0.161502
    11  C   -0.302574
    12  C   -0.297593
    13  C   -0.486747
    14  H    0.149497
    15  H    0.157418
    16  H    0.151846
    17  H    0.151717
    18  H    0.156961
    19  H    0.152398
    20  H    0.157982
    21  C   -0.171379
    22  C   -0.218093
    23  C   -0.172893
    24  C    0.156721
    25  C   -0.171331
    26  C   -0.218546
    27  H    0.226216
    28  H    0.227340
    29  H    0.280202
    30  H    0.275714
    31  H    0.223795
    32  N    0.487804
    33  O   -0.459432
    34  O   -0.459422
 Sum of Mulliken charges =  -0.00000

 Dipole moment (field-independent basis, Debye):
    X=              3.1509    Y=              3.9169    Z=             -1.0429  Tot=              5.1340
 Quadrupole moment (field-independent basis, Debye-Ang):
   XX=            -80.8666   YY=           -100.3997   ZZ=            -93.1355
   XY=              4.8953   XZ=             -4.8721   YZ=              3.4655

 Normal termination of Gaussian 16 at Thu May  6 13:59:52 2021.
