 Gaussian 16, Revision A.03,
 Gaussian 16:  EM64L-G16RevA.03 25-Dec-2016

 -------------
 #p 6-31g* mp2
 -------------

 ------------------------------------------------------
 Input file generated by CHIRIPA (05-May-2021 14:53:15)
 ------------------------------------------------------
 Symbolic Z-matrix:
 Charge =  0 Multiplicity = 1

                         Standard orientation:
 ---------------------------------------------------------------------
 Center     Atomic      Atomic             Coordinates (Angstroms)
 Number     Number       Type             X           Y           Z
 ---------------------------------------------------------------------
      1          6           0        2.859971   -0.044223   -0.424534
      2          6           0        2.741803   -1.223794    0.541195
      3          6           0        3.885316   -2.227597    0.391018
      4          1           0        2.883861   -0.423462   -1.455336
      5          1           0        3.819596    0.463852   -0.256088
      6          1           0        1.782078   -1.728659    0.371919
      7          1           0        2.717998   -0.841691    1.569809
      8          1           0        4.849350   -1.744509    0.580398
      9          1           0        3.908112   -2.636517   -0.624298
     10          1           0        3.781007   -3.062627    1.090807
     11          6           0        1.724073    0.967904   -0.286470
     12          6           0        1.842241    2.147475   -1.252200
     13          6           0        0.698728    3.151278   -1.102022
     14          1           0        0.764447    0.459829   -0.454917
     15          1           0        1.700182    1.347143    0.744332
     16          1           0        1.866045    1.765372   -2.280813
     17          1           0        2.801966    2.652340   -1.082924
     18          1           0        0.675932    3.560198   -0.086706
     19          1           0       -0.265306    2.668190   -1.291402
     20          1           0        0.803037    3.986308   -1.801811
     21          6           0       -1.353666    1.464022    1.964434
     22          6           0       -0.831768    0.182445    2.168653
     23          6           0       -1.067518   -0.836351    1.240739
     24          6           0       -1.832888   -0.537232    0.114672
     25          6           0       -2.366526    0.729607   -0.116931
     26          6           0       -2.118031    1.733038    0.824304
     27          1           0       -1.165580    2.249480    2.690434
     28          1           0       -0.237800   -0.029352    3.053180
     29          1           0       -0.675535   -1.837354    1.374013
     30          1           0       -2.954907    0.910436   -1.008293
     31          1           0       -2.524607    2.727400    0.663103
     32          7           0       -2.089211   -1.607652   -0.874720
     33          8           0       -2.766640   -1.318545   -1.858663
     34          8           0       -1.607835   -2.715487   -0.647528
 ---------------------------------------------------------------------

 SCF Done:  E(RHF) =  -669.531939680     A.U. after   15 cycles
 E2 =    -0.2098446042D+01 EUMP2 =    -0.67163038572204D+03

 The electronic state is 1-A.
 Alpha  occ. eigenvalues --  -20.60879 -20.60874 -15.85926 -11.31253 -11.27835
 Alpha  occ. eigenvalues --  -11.27770 -11.27538 -11.26860 -11.26806 -11.21778
 Alpha  occ. eigenvalues --  -11.21681 -11.21424 -11.21282 -11.21275 -11.21119
 Alpha  occ. eigenvalues --   -1.59954  -1.39507  -1.19470  -1.08852  -1.08503
 Alpha  occ. eigenvalues --   -1.04860  -1.03648  -0.96090  -0.95685  -0.87126
 Alpha  occ. eigenvalues --   -0.86239  -0.82512  -0.79749  -0.78378  -0.77559
 Alpha  occ. eigenvalues --   -0.72142  -0.71288  -0.70550  -0.65188  -0.65090
 Alpha  occ. eigenvalues --   -0.64825  -0.62210  -0.61053  -0.59474  -0.57742
 Alpha  occ. eigenvalues --   -0.55411  -0.55322  -0.53506  -0.52950  -0.52734
 Alpha  occ. eigenvalues --   -0.52518  -0.50051  -0.48902  -0.48900  -0.48019
 Alpha  occ. eigenvalues --   -0.46775  -0.45888  -0.45532  -0.44894  -0.43871
 Alpha  occ. eigenvalues --   -0.37345  -0.36303
 Alpha virt. eigenvalues --    0.04888   0.11050   0.16291   0.20733   0.23027
 Alpha virt. eigenvalues --    0.23798   0.25927   0.26419   0.27720   0.28364
 Alpha virt. eigenvalues --    0.28513   0.29674   0.31267   0.31850   0.32103

 Mulliken charges:
               1
     1  C   -0.297857
     2  C   -0.303237
     3  C   -0.475079
     4  H    0.153205
     5  H    0.147978
     6  H    0.155534
     7  H    0.143248
     8  H    0.154314
     9  H    0.159728
    10  H    0.159529
    11  C   -0.300725
    12  C   -0.299246
    13  C   -0.475046
    14  H    0.158058
    15  H    0.142970
    16  H    0.154300
    17  H    0.150366
    18  H    0.146766
    19  H    0.155586
    20  H    0.159029
    21  C   -0.170958
    22  C   -0.211011
    23  C   -0.173638
    24  C    0.159315
    25  C   -0.176323
    26  C   -0.210727
    27  H    0.225680
    28  H    0.224046
    29  H    0.276222
    30  H    0.275988
    31  H    0.225202
    32  N    0.488080
    33  O   -0.460188
    34  O   -0.461108
 Sum of Mulliken charges =  -0.00000

 Dipole moment (field-independent basis, Debye):
    X=              0.7921    Y=              3.6902    Z=              3.4878  Tot=              5.1390
 Quadrupole moment (field-independent basis, Debye-Ang):
   XX=            -97.6859   YY=            -97.9221   ZZ=            -92.3831
   XY=             -8.8674   XZ=             -4.5246   YZ=             -2.8548

 Normal termination of Gaussian 16 at Wed May  5 21:56:27 2021.
