 Gaussian 16, Revision A.03,
 Gaussian 16:  EM64L-G16RevA.03 25-Dec-2016

 -------------
 #p 6-31g* mp2
 -------------

 ------------------------------------------------------
 Input file generated by CHIRIPA (05-May-2021 14:55:24)
 ------------------------------------------------------
 Symbolic Z-matrix:
 Charge =  0 Multiplicity = 1

                         Standard orientation:
 ---------------------------------------------------------------------
 Center     Atomic      Atomic             Coordinates (Angstroms)
 Number     Number       Type             X           Y           Z
 ---------------------------------------------------------------------
      1          6           0        0.670248    0.583416    1.044971
      2          6           0        1.766066    1.439143    1.198054
      3          6           0        3.024976    1.074651    0.711394
      4          6           0        3.152780   -0.158472    0.073927
      5          6           0        2.080139   -1.032850   -0.093986
      6          6           0        0.830499   -0.647679    0.400576
      7          1           0       -0.304103    0.874594    1.426090
      8          1           0        1.644559    2.395834    1.698078
      9          1           0        3.890220    1.717894    0.816323
     10          1           0        2.232312   -1.980141   -0.596878
     11          1           0       -0.018756   -1.314264    0.280266
     12          7           0        4.480625   -0.555289   -0.445461
     13          8           0        4.567006   -1.647063   -1.003319
     14          8           0        5.409866    0.232973   -0.284864
     15          6           0       -3.206466    0.639571   -0.310055
     16          6           0       -3.744619    2.057317   -0.505944
     17          6           0       -2.634334    3.087229   -0.716518
     18          1           0       -2.525747    0.628478    0.552177
     19          1           0       -2.605761    0.358573   -1.186176
     20          1           0       -4.345274    2.335038    0.369671
     21          1           0       -4.424284    2.064996   -1.367694
     22          1           0       -2.039840    2.837364   -1.601248
     23          1           0       -1.960380    3.108940    0.145988
     24          1           0       -3.041337    4.093797   -0.854462
     25          6           0       -4.304407   -0.401309   -0.098337
     26          6           0       -3.766254   -1.819054    0.097552
     27          6           0       -4.876540   -2.848966    0.308126
     28          1           0       -4.905112   -0.120310    0.777784
     29          1           0       -4.985125   -0.390215   -0.960570
     30          1           0       -3.086588   -1.826733    0.959302
     31          1           0       -3.165600   -2.096775   -0.778063
     32          1           0       -5.550492   -2.870678   -0.554380
     33          1           0       -5.471032   -2.599102    1.192856
     34          1           0       -4.469536   -3.855535    0.446070
 ---------------------------------------------------------------------

 SCF Done:  E(RHF) =  -669.535467335     A.U. after   15 cycles
 E2 =    -0.2092021150D+01 EUMP2 =    -0.67162748848502D+03

 The electronic state is 1-A.
 Alpha  occ. eigenvalues --  -20.60703 -20.60697 -15.85755 -11.31102 -11.27672
 Alpha  occ. eigenvalues --  -11.27663 -11.27379 -11.26681 -11.26646 -11.22633
 Alpha  occ. eigenvalues --  -11.22566 -11.22505 -11.22336 -11.21971 -11.21853
 Alpha  occ. eigenvalues --   -1.59779  -1.39333  -1.19271  -1.09447  -1.08665
 Alpha  occ. eigenvalues --   -1.04670  -1.04467  -0.96903  -0.95508  -0.87915
 Alpha  occ. eigenvalues --   -0.86066  -0.82344  -0.80539  -0.79302  -0.77388
 Alpha  occ. eigenvalues --   -0.71974  -0.71102  -0.70402  -0.66073  -0.64920
 Alpha  occ. eigenvalues --   -0.64665  -0.62020  -0.61859  -0.60274  -0.58522
 Alpha  occ. eigenvalues --   -0.56202  -0.55192  -0.53567  -0.53320  -0.53001
 Alpha  occ. eigenvalues --   -0.52758  -0.50842  -0.48851  -0.48730  -0.48722
 Alpha  occ. eigenvalues --   -0.47572  -0.46808  -0.46719  -0.44743  -0.44740
 Alpha  occ. eigenvalues --   -0.37233  -0.36276
 Alpha virt. eigenvalues --    0.05129   0.11348   0.16569   0.18970   0.22506
 Alpha virt. eigenvalues --    0.22796   0.25008   0.25225   0.26743   0.27990
 Alpha virt. eigenvalues --    0.29490   0.30222   0.31089   0.31290   0.31651

 Mulliken charges:
               1
     1  C   -0.172378
     2  C   -0.219313
     3  C   -0.171036
     4  C    0.158401
     5  C   -0.171508
     6  C   -0.222723
     7  H    0.229687
     8  H    0.223108
     9  H    0.275232
    10  H    0.275295
    11  H    0.227019
    12  N    0.488055
    13  O   -0.460734
    14  O   -0.460684
    15  C   -0.302268
    16  C   -0.300648
    17  C   -0.475410
    18  H    0.139477
    19  H    0.153276
    20  H    0.153369
    21  H    0.156484
    22  H    0.159706
    23  H    0.147155
    24  H    0.164336
    25  C   -0.298007
    26  C   -0.302424
    27  C   -0.475997
    28  H    0.151799
    29  H    0.154251
    30  H    0.146671
    31  H    0.151872
    32  H    0.158278
    33  H    0.157235
    34  H    0.162425
 Sum of Mulliken charges =  -0.00000

 Dipole moment (field-independent basis, Debye):
    X=             -4.9565    Y=              1.4117    Z=              1.7172  Tot=              5.4322
 Quadrupole moment (field-independent basis, Debye-Ang):
   XX=           -123.5403   YY=            -92.0631   ZZ=            -93.6451
   XY=              6.5825   XZ=              6.6603   YZ=              1.6370

 Normal termination of Gaussian 16 at Wed May  5 16:06:52 2021.
