 Gaussian 16, Revision A.03,
 Gaussian 16:  EM64L-G16RevA.03 25-Dec-2016

 -------------
 #p 6-31g* mp2
 -------------

 ------------------------------------------------------
 Input file generated by CHIRIPA (05-May-2021 14:53:14)
 ------------------------------------------------------
 Symbolic Z-matrix:
 Charge =  0 Multiplicity = 1

                         Standard orientation:
 ---------------------------------------------------------------------
 Center     Atomic      Atomic             Coordinates (Angstroms)
 Number     Number       Type             X           Y           Z
 ---------------------------------------------------------------------
      1          6           0       -4.518936    0.212884   -0.288564
      2          6           0       -5.812527   -0.450851   -0.761918
      3          6           0       -6.578342    0.401697   -1.774085
      4          1           0       -4.756671    1.188516    0.157046
      5          1           0       -3.878718    0.414296   -1.158592
      6          1           0       -6.449522   -0.652209    0.108891
      7          1           0       -5.571704   -1.425101   -1.206280
      8          1           0       -5.964399    0.591841   -2.660381
      9          1           0       -6.847204    1.369124   -1.337738
     10          1           0       -7.499650   -0.091701   -2.099060
     11          6           0       -3.742166   -0.627256    0.723623
     12          6           0       -2.448575    0.036479    1.196978
     13          6           0       -1.682760   -0.816070    2.209145
     14          1           0       -4.382384   -0.828668    1.593652
     15          1           0       -3.504431   -1.602888    0.278013
     16          1           0       -2.689398    1.010729    1.641340
     17          1           0       -1.811580    0.237837    0.326169
     18          1           0       -1.413898   -1.783496    1.772797
     19          1           0       -2.296703   -1.006213    3.095441
     20          1           0       -0.761452   -0.322671    2.534119
     21          6           0        2.075715    2.342086    0.365885
     22          6           0        3.366329    2.346059   -0.173393
     23          6           0        4.013859    1.144064   -0.474159
     24          6           0        3.338294   -0.048911   -0.221747
     25          6           0        2.052201   -0.085706    0.314818
     26          6           0        1.423919    1.128356    0.607842
     27          1           0        1.580174    3.280512    0.596521
     28          1           0        3.874942    3.287151   -0.362350
     29          1           0        5.012813    1.118166   -0.892295
     30          1           0        1.570690   -1.039711    0.492124
     31          1           0        0.421591    1.122234    1.026585
     32          7           0        4.013617   -1.327797   -0.536057
     33          8           0        3.396916   -2.365404   -0.304348
     34          8           0        5.146848   -1.268366   -1.008171
 ---------------------------------------------------------------------

 SCF Done:  E(RHF) =  -669.535263687     A.U. after   15 cycles
 E2 =    -0.2091848572D+01 EUMP2 =    -0.67162711225893D+03

 The electronic state is 1-A.
 Alpha  occ. eigenvalues --  -20.60722 -20.60717 -15.85775 -11.31127 -11.27705
 Alpha  occ. eigenvalues --  -11.27677 -11.27430 -11.26715 -11.26632 -11.22586
 Alpha  occ. eigenvalues --  -11.22065 -11.22061 -11.22008 -11.21905 -11.21410
 Alpha  occ. eigenvalues --   -1.59798  -1.39352  -1.19298  -1.09090  -1.08694
 Alpha  occ. eigenvalues --   -1.04708  -1.04211  -0.96650  -0.95532  -0.87659
 Alpha  occ. eigenvalues --   -0.86097  -0.82367  -0.80304  -0.78866  -0.77417
 Alpha  occ. eigenvalues --   -0.71993  -0.71121  -0.70408  -0.65727  -0.64948
 Alpha  occ. eigenvalues --   -0.64742  -0.62212  -0.61534  -0.59981  -0.58242
 Alpha  occ. eigenvalues --   -0.55901  -0.55186  -0.53391  -0.53149  -0.53017
 Alpha  occ. eigenvalues --   -0.52646  -0.50562  -0.48752  -0.48749  -0.48610
 Alpha  occ. eigenvalues --   -0.47316  -0.46404  -0.46296  -0.44760  -0.44453
 Alpha  occ. eigenvalues --   -0.37280  -0.36294
 Alpha virt. eigenvalues --    0.05103   0.11319   0.16524   0.19796   0.22558
 Alpha virt. eigenvalues --    0.23797   0.25920   0.26168   0.26688   0.28147
 Alpha virt. eigenvalues --    0.29468   0.29993   0.30987   0.31286   0.32190

 Mulliken charges:
               1
     1  C   -0.299154
     2  C   -0.300382
     3  C   -0.476117
     4  H    0.149144
     5  H    0.150309
     6  H    0.152798
     7  H    0.153919
     8  H    0.155841
     9  H    0.154980
    10  H    0.162006
    11  C   -0.298291
    12  C   -0.306852
    13  C   -0.483170
    14  H    0.152215
    15  H    0.153610
    16  H    0.151664
    17  H    0.149113
    18  H    0.161354
    19  H    0.162819
    20  H    0.154340
    21  C   -0.172355
    22  C   -0.218525
    23  C   -0.171028
    24  C    0.158773
    25  C   -0.174840
    26  C   -0.227494
    27  H    0.225886
    28  H    0.223097
    29  H    0.275373
    30  H    0.276632
    31  H    0.237492
    32  N    0.488140
    33  O   -0.460559
    34  O   -0.460737
 Sum of Mulliken charges =  -0.00000

 Dipole moment (field-independent basis, Debye):
    X=             -2.6088    Y=              4.4353    Z=              1.1109  Tot=              5.2642
 Quadrupole moment (field-independent basis, Debye-Ang):
   XX=           -107.1218   YY=            -94.3602   ZZ=            -95.3674
   XY=             17.9608   XZ=              1.8008   YZ=             -1.3789

 Normal termination of Gaussian 16 at Thu May  6 04:13:48 2021.
