 Gaussian 16, Revision A.03,
 Gaussian 16:  EM64L-G16RevA.03 25-Dec-2016

 -------------
 #p 6-31g* mp2
 -------------

 ------------------------------------------------------
 Input file generated by CHIRIPA (05-May-2021 14:55:20)
 ------------------------------------------------------
 Symbolic Z-matrix:
 Charge =  0 Multiplicity = 1

                         Standard orientation:
 ---------------------------------------------------------------------
 Center     Atomic      Atomic             Coordinates (Angstroms)
 Number     Number       Type             X           Y           Z
 ---------------------------------------------------------------------
      1          6           0        3.376477    1.624283    0.616034
      2          6           0        2.648154    1.538588   -0.575068
      3          6           0        2.053323    0.332857   -0.958392
      4          6           0        2.207639   -0.772378   -0.122968
      5          6           0        2.927154   -0.718692    1.069805
      6          6           0        3.513411    0.497356    1.433228
      7          1           0        3.835226    2.564932    0.906079
      8          1           0        2.540155    2.412151   -1.211676
      9          1           0        1.484070    0.238547   -1.875166
     10          1           0        3.017382   -1.606607    1.683714
     11          1           0        4.078469    0.560977    2.358812
     12          7           0        1.582457   -2.054293   -0.518242
     13          8           0        1.733126   -3.013566    0.235238
     14          8           0        0.953609   -2.075512   -1.574052
     15          6           0       -3.493602    0.242101   -0.189661
     16          6           0       -4.172507   -0.575372    0.909798
     17          6           0       -5.242268   -1.523198    0.366632
     18          1           0       -4.255160    0.818789   -0.732254
     19          1           0       -3.041171   -0.443005   -0.919958
     20          1           0       -4.622334    0.111076    1.638538
     21          1           0       -3.409220   -1.150033    1.449960
     22          1           0       -4.804594   -2.230894   -0.344851
     23          1           0       -6.024600   -0.962620   -0.155201
     24          1           0       -5.714701   -2.097708    1.169505
     25          6           0       -2.421731    1.194322    0.337686
     26          6           0       -1.742827    2.011796   -0.761774
     27          6           0       -0.673065    2.959621   -0.218608
     28          1           0       -2.874162    1.879428    1.067982
     29          1           0       -1.660174    0.617635    0.880278
     30          1           0       -2.506113    2.586457   -1.301935
     31          1           0       -1.292999    1.325348   -1.490514
     32          1           0        0.109267    2.399044    0.303227
     33          1           0       -1.110739    3.667318    0.492876
     34          1           0       -0.200631    3.534132   -1.021481
 ---------------------------------------------------------------------

 SCF Done:  E(RHF) =  -669.534735645     A.U. after   15 cycles
 E2 =    -0.2093229136D+01 EUMP2 =    -0.67162796478093D+03

 The electronic state is 1-A.
 Alpha  occ. eigenvalues --  -20.60865 -20.60858 -15.85915 -11.31283 -11.27815
 Alpha  occ. eigenvalues --  -11.27808 -11.27545 -11.26853 -11.26813 -11.21720
 Alpha  occ. eigenvalues --  -11.21324 -11.21294 -11.21292 -11.21098 -11.20702
 Alpha  occ. eigenvalues --   -1.59939  -1.39492  -1.19448  -1.08840  -1.08306
 Alpha  occ. eigenvalues --   -1.04851  -1.03440  -0.95903  -0.95671  -0.86937
 Alpha  occ. eigenvalues --   -0.86226  -0.82501  -0.79527  -0.78086  -0.77553
 Alpha  occ. eigenvalues --   -0.72131  -0.71263  -0.70534  -0.65094  -0.64936
 Alpha  occ. eigenvalues --   -0.64836  -0.62204  -0.60846  -0.59304  -0.57508
 Alpha  occ. eigenvalues --   -0.55347  -0.55261  -0.53181  -0.52963  -0.52576
 Alpha  occ. eigenvalues --   -0.52278  -0.49797  -0.48890  -0.48887  -0.47832
 Alpha  occ. eigenvalues --   -0.46542  -0.45639  -0.45524  -0.44894  -0.43693
 Alpha  occ. eigenvalues --   -0.37412  -0.36351
 Alpha virt. eigenvalues --    0.04954   0.11151   0.16441   0.20605   0.23029
 Alpha virt. eigenvalues --    0.24286   0.26229   0.26645   0.27251   0.28458
 Alpha virt. eigenvalues --    0.28896   0.29831   0.31557   0.31641   0.32383

 Mulliken charges:
               1
     1  C   -0.171890
     2  C   -0.216720
     3  C   -0.171601
     4  C    0.158644
     5  C   -0.171797
     6  C   -0.217979
     7  H    0.226462
     8  H    0.226397
     9  H    0.276350
    10  H    0.275735
    11  H    0.223944
    12  N    0.487976
    13  O   -0.459950
    14  O   -0.460871
    15  C   -0.300507
    16  C   -0.299782
    17  C   -0.476332
    18  H    0.148021
    19  H    0.157430
    20  H    0.149398
    21  H    0.154449
    22  H    0.159543
    23  H    0.153445
    24  H    0.159749
    25  C   -0.297750
    26  C   -0.300374
    27  C   -0.482960
    28  H    0.148272
    29  H    0.150063
    30  H    0.152665
    31  H    0.151465
    32  H    0.163476
    33  H    0.155184
    34  H    0.149846
 Sum of Mulliken charges =  -0.00000

 Dipole moment (field-independent basis, Debye):
    X=              2.2530    Y=              4.4020    Z=              1.4049  Tot=              5.1408
 Quadrupole moment (field-independent basis, Debye-Ang):
   XX=            -85.0500   YY=           -101.7429   ZZ=            -92.0119
   XY=              6.7980   XZ=              4.4332   YZ=             -3.6795

 Normal termination of Gaussian 16 at Thu May  6 04:33:25 2021.
