 Gaussian 16, Revision A.03,
 Gaussian 16:  EM64L-G16RevA.03 25-Dec-2016

 -------------
 #p 6-31g* mp2
 -------------

 ------------------------------------------------------
 Input file generated by CHIRIPA (05-May-2021 14:53:15)
 ------------------------------------------------------
 Symbolic Z-matrix:
 Charge =  0 Multiplicity = 1

                         Standard orientation:
 ---------------------------------------------------------------------
 Center     Atomic      Atomic             Coordinates (Angstroms)
 Number     Number       Type             X           Y           Z
 ---------------------------------------------------------------------
      1          6           0        3.267490    0.821599   -0.002978
      2          6           0        2.647617    2.133487   -0.485357
      3          6           0        3.274858    3.361652    0.174925
      4          1           0        3.156466    0.750195    1.087674
      5          1           0        4.347103    0.837476   -0.206887
      6          1           0        1.569264    2.114569   -0.281853
      7          1           0        2.759959    2.201687   -1.575010
      8          1           0        4.347616    3.408207   -0.038674
      9          1           0        3.150156    3.320595    1.261831
     10          1           0        2.816870    4.288496   -0.184336
     11          6           0        2.650917   -0.415216   -0.654019
     12          6           0        3.270790   -1.727104   -0.171640
     13          6           0        2.643549   -2.955270   -0.831922
     14          1           0        1.571304   -0.431093   -0.450110
     15          1           0        2.761941   -0.343812   -1.744671
     16          1           0        3.158448   -1.795304    0.918013
     17          1           0        4.349143   -1.708186   -0.375144
     18          1           0        2.768251   -2.914212   -1.918828
     19          1           0        1.570791   -3.001824   -0.618323
     20          1           0        3.101537   -3.882113   -0.472662
     21          6           0       -0.663502   -1.300504    1.788032
     22          6           0       -1.194828   -0.054214    2.135843
     23          6           0       -2.108902    0.587630    1.294978
     24          6           0       -2.471237   -0.048362    0.108590
     25          6           0       -1.959430   -1.289835   -0.265694
     26          6           0       -1.046823   -1.913257    0.590485
     27          1           0        0.046003   -1.791949    2.447184
     28          1           0       -0.898946    0.424016    3.065250
     29          1           0       -2.535737    1.552676    1.539757
     30          1           0       -2.273459   -1.741715   -1.198758
     31          1           0       -0.635813   -2.881120    0.317803
     32          7           0       -3.438149    0.621378   -0.789702
     33          8           0       -3.741258    0.040094   -1.829351
     34          8           0       -3.874597    1.714922   -0.437124
 ---------------------------------------------------------------------

 SCF Done:  E(RHF) =  -669.535281658     A.U. after   15 cycles
 E2 =    -0.2093200977D+01 EUMP2 =    -0.67162848263470D+03

 The electronic state is 1-A.
 Alpha  occ. eigenvalues --  -20.60842 -20.60837 -15.85898 -11.31309 -11.27888
 Alpha  occ. eigenvalues --  -11.27881 -11.27643 -11.26909 -11.26896 -11.22218
 Alpha  occ. eigenvalues --  -11.21829 -11.21825 -11.21734 -11.21668 -11.21291
 Alpha  occ. eigenvalues --   -1.59917  -1.39469  -1.19496  -1.08903  -1.08801
 Alpha  occ. eigenvalues --   -1.04905  -1.03967  -0.96418  -0.95702  -0.87444
 Alpha  occ. eigenvalues --   -0.86297  -0.82532  -0.80032  -0.78608  -0.77572
 Alpha  occ. eigenvalues --   -0.72115  -0.71240  -0.70589  -0.65514  -0.65141
 Alpha  occ. eigenvalues --   -0.64896  -0.62287  -0.61348  -0.59787  -0.58013
 Alpha  occ. eigenvalues --   -0.55749  -0.55381  -0.53260  -0.53121  -0.53070
 Alpha  occ. eigenvalues --   -0.52752  -0.50366  -0.48878  -0.48867  -0.48339
 Alpha  occ. eigenvalues --   -0.47062  -0.46160  -0.46041  -0.44865  -0.44189
 Alpha  occ. eigenvalues --   -0.37441  -0.36473
 Alpha virt. eigenvalues --    0.04955   0.11026   0.16376   0.20061   0.22795
 Alpha virt. eigenvalues --    0.23987   0.25615   0.26114   0.27136   0.28360
 Alpha virt. eigenvalues --    0.28444   0.30049   0.31180   0.31632   0.32027

 Mulliken charges:
               1
     1  C   -0.297002
     2  C   -0.300536
     3  C   -0.475758
     4  H    0.144917
     5  H    0.149955
     6  H    0.153399
     7  H    0.154199
     8  H    0.155580
     9  H    0.152501
    10  H    0.162657
    11  C   -0.305212
    12  C   -0.298319
    13  C   -0.478251
    14  H    0.157162
    15  H    0.151296
    16  H    0.144924
    17  H    0.154930
    18  H    0.160125
    19  H    0.146180
    20  H    0.160716
    21  C   -0.171615
    22  C   -0.218779
    23  C   -0.170947
    24  C    0.158775
    25  C   -0.171454
    26  C   -0.219036
    27  H    0.227007
    28  H    0.224138
    29  H    0.276275
    30  H    0.276667
    31  H    0.227318
    32  N    0.488119
    33  O   -0.459821
    34  O   -0.460110
 Sum of Mulliken charges =  -0.00000

 Dipole moment (field-independent basis, Debye):
    X=              3.3471    Y=             -2.2977    Z=              3.1121  Tot=              5.1154
 Quadrupole moment (field-independent basis, Debye-Ang):
   XX=           -112.0248   YY=            -92.9137   ZZ=            -91.9237
   XY=              5.2302   XZ=             -8.6224   YZ=              1.9572

 Normal termination of Gaussian 16 at Thu May  6 12:09:43 2021.
