 Gaussian 16, Revision A.03,
 Gaussian 16:  EM64L-G16RevA.03 25-Dec-2016

 -------------
 #p 6-31g* mp2
 -------------

 ------------------------------------------------------
 Input file generated by CHIRIPA (05-May-2021 14:51:11)
 ------------------------------------------------------
 Symbolic Z-matrix:
 Charge =  0 Multiplicity = 1

                         Standard orientation:
 ---------------------------------------------------------------------
 Center     Atomic      Atomic             Coordinates (Angstroms)
 Number     Number       Type             X           Y           Z
 ---------------------------------------------------------------------
      1          6           0       -4.914545   -0.248496   -0.318055
      2          6           0       -5.953700   -1.180848    0.305534
      3          6           0       -7.029327   -1.617128   -0.689694
      4          1           0       -5.422357    0.637504   -0.723118
      5          1           0       -4.442310   -0.755352   -1.170983
      6          1           0       -6.422855   -0.672903    1.157884
      7          1           0       -5.443332   -2.064641    0.709329
      8          1           0       -6.579422   -2.147059   -1.535483
      9          1           0       -7.564510   -0.747414   -1.084380
     10          1           0       -7.761779   -2.283079   -0.222913
     11          6           0       -3.832626    0.196311    0.664456
     12          6           0       -2.793471    1.128663    0.040867
     13          6           0       -1.717843    1.564944    1.036095
     14          1           0       -4.304861    0.703167    1.517384
     15          1           0       -3.324813   -0.689688    1.069519
     16          1           0       -3.303838    2.012456   -0.362928
     17          1           0       -2.324315    0.620718   -0.811483
     18          1           0       -1.182660    0.695229    1.430781
     19          1           0       -2.167749    2.094874    1.881884
     20          1           0       -0.985392    2.230895    0.569314
     21          6           0        4.884609   -0.483577   -0.423250
     22          6           0        5.818152   -0.994866    0.674503
     23          6           0        6.834821   -2.013778    0.158753
     24          1           0        4.356328   -1.335548   -0.872706
     25          1           0        5.485261   -0.030493   -1.224079
     26          1           0        5.215838   -1.445613    1.473665
     27          1           0        6.344130   -0.141560    1.121527
     28          1           0        7.460300   -1.571776   -0.623557
     29          1           0        6.325598   -2.883239   -0.269418
     30          1           0        7.491997   -2.366032    0.959940
     31          6           0        3.862562    0.535762    0.076850
     32          6           0        2.929018    1.047052   -1.020904
     33          6           0        1.912349    2.065963   -0.505155
     34          1           0        3.261909    0.082678    0.877678
     35          1           0        4.390843    1.387732    0.526305
     36          1           0        2.403041    0.193744   -1.467928
     37          1           0        3.531333    1.497797   -1.820067
     38          1           0        2.421573    2.935423   -0.076983
     39          1           0        1.286870    1.623960    0.277157
     40          1           0        1.255174    2.418216   -1.306340
 ---------------------------------------------------------------------

 SCF Done:  E(RHF) =  -470.732845710     A.U. after   11 cycles
 E2 =    -0.1582441907D+01 EUMP2 =    -0.47231528761672D+03

 The electronic state is 1-A.
 Alpha  occ. eigenvalues --  -11.21597 -11.21597 -11.21578 -11.21577 -11.21395
 Alpha  occ. eigenvalues --  -11.21393 -11.21336 -11.21333 -11.21069 -11.21068
 Alpha  occ. eigenvalues --  -11.20995 -11.20989  -1.08424  -1.08410  -1.03542
 Alpha  occ. eigenvalues --   -1.03485  -0.96030  -0.95901  -0.87085  -0.86886
 Alpha  occ. eigenvalues --   -0.79651  -0.79510  -0.78239  -0.78221  -0.65072
 Alpha  occ. eigenvalues --   -0.65028  -0.61007  -0.60847  -0.59412  -0.59269
 Alpha  occ. eigenvalues --   -0.57608  -0.57550  -0.55388  -0.55128  -0.52887
 Alpha  occ. eigenvalues --   -0.52579  -0.52388  -0.52238  -0.50017  -0.49755
 Alpha  occ. eigenvalues --   -0.47932  -0.47847  -0.46674  -0.46533  -0.45776
 Alpha  occ. eigenvalues --   -0.45769  -0.45710  -0.45679  -0.43834  -0.43656
 Alpha virt. eigenvalues --    0.22288   0.23040   0.23635   0.24925   0.26464
 Alpha virt. eigenvalues --    0.26761   0.27055   0.27302   0.27682   0.29109
 Alpha virt. eigenvalues --    0.30186   0.31074   0.31622   0.31764   0.32238

 Mulliken charges:
               1
     1  C   -0.298254
     2  C   -0.299618
     3  C   -0.475690
     4  H    0.149652
     5  H    0.149411
     6  H    0.151936
     7  H    0.151843
     8  H    0.155138
     9  H    0.155189
    10  H    0.160220
    11  C   -0.298363
    12  C   -0.299515
    13  C   -0.481301
    14  H    0.149554
    15  H    0.149381
    16  H    0.151851
    17  H    0.151823
    18  H    0.153351
    19  H    0.154694
    20  H    0.168982
    21  C   -0.298269
    22  C   -0.299634
    23  C   -0.475693
    24  H    0.149493
    25  H    0.149541
    26  H    0.151884
    27  H    0.151980
    28  H    0.155186
    29  H    0.155113
    30  H    0.160243
    31  C   -0.298477
    32  C   -0.299600
    33  C   -0.481288
    34  H    0.149559
    35  H    0.149704
    36  H    0.151557
    37  H    0.151625
    38  H    0.154807
    39  H    0.162685
    40  H    0.159296
 Sum of Mulliken charges =  -0.00000

 Dipole moment (field-independent basis, Debye):
    X=              0.0012    Y=              0.0175    Z=              0.0077  Tot=              0.0191
 Quadrupole moment (field-independent basis, Debye-Ang):
   XX=            -85.5093   YY=            -84.2420   ZZ=            -85.1483
   XY=              0.2576   XZ=             -0.5669   YZ=             -0.3243

 Normal termination of Gaussian 16 at Thu May  6 00:40:43 2021.
