 Gaussian 16, Revision A.03,
 Gaussian 16:  EM64L-G16RevA.03 25-Dec-2016

 -------------
 #p 6-31g* mp2
 -------------

 ------------------------------------------------------
 Input file generated by CHIRIPA (05-May-2021 14:53:14)
 ------------------------------------------------------
 Symbolic Z-matrix:
 Charge =  0 Multiplicity = 1

                         Standard orientation:
 ---------------------------------------------------------------------
 Center     Atomic      Atomic             Coordinates (Angstroms)
 Number     Number       Type             X           Y           Z
 ---------------------------------------------------------------------
      1          6           0       -1.804283    1.062665   -0.497177
      2          6           0       -1.940991    2.585006   -0.455077
      3          6           0       -0.829369    3.299849   -1.223901
      4          1           0       -0.827725    0.776986   -0.082850
      5          1           0       -1.808962    0.729898   -1.544383
      6          1           0       -1.937447    2.914675    0.591786
      7          1           0       -2.917416    2.867081   -0.869376
      8          1           0       -0.834482    2.999496   -2.276689
      9          1           0        0.151055    3.047360   -0.807225
     10          1           0       -0.946535    4.387171   -1.180737
     11          6           0       -2.908247    0.333914    0.266965
     12          6           0       -2.771539   -1.188428    0.224864
     13          6           0       -3.883161   -1.903270    0.993689
     14          1           0       -2.903568    0.666681    1.314170
     15          1           0       -3.884805    0.619592   -0.147363
     16          1           0       -1.795114   -1.470503    0.639164
     17          1           0       -2.775083   -1.518097   -0.821999
     18          1           0       -4.863585   -1.650782    0.577012
     19          1           0       -3.878047   -1.602917    2.046477
     20          1           0       -3.765994   -2.990592    0.950525
     21          6           0        1.135483   -2.210387   -1.669813
     22          6           0        1.999659   -1.162494   -2.003939
     23          6           0        2.397106   -0.234219   -1.037043
     24          6           0        1.909022   -0.384587    0.260052
     25          6           0        1.046888   -1.417831    0.623948
     26          6           0        0.662689   -2.334493   -0.359246
     27          1           0        0.831882   -2.926982   -2.427252
     28          1           0        2.368412   -1.063641   -3.020942
     29          1           0        3.065122    0.586552   -1.268360
     30          1           0        0.695893   -1.490334    1.646182
     31          1           0       -0.008546   -3.147302   -0.096893
     32          7           0        2.322770    0.591989    1.292289
     33          8           0        1.878757    0.437531    2.427908
     34          8           0        3.083244    1.493395    0.946191
 ---------------------------------------------------------------------

 SCF Done:  E(RHF) =  -669.533267564     A.U. after   15 cycles
 E2 =    -0.2096126701D+01 EUMP2 =    -0.67162939426512D+03

 The electronic state is 1-A.
 Alpha  occ. eigenvalues --  -20.60885 -20.60878 -15.85928 -11.31253 -11.27810
 Alpha  occ. eigenvalues --  -11.27800 -11.27543 -11.26839 -11.26811 -11.21906
 Alpha  occ. eigenvalues --  -11.21481 -11.21438 -11.21430 -11.21286 -11.20874
 Alpha  occ. eigenvalues --   -1.59957  -1.39510  -1.19446  -1.08837  -1.08500
 Alpha  occ. eigenvalues --   -1.04852  -1.03613  -0.96050  -0.95677  -0.87073
 Alpha  occ. eigenvalues --   -0.86234  -0.82527  -0.79721  -0.78322  -0.77543
 Alpha  occ. eigenvalues --   -0.72145  -0.71289  -0.70542  -0.65210  -0.65045
 Alpha  occ. eigenvalues --   -0.64839  -0.62221  -0.60991  -0.59452  -0.57670
 Alpha  occ. eigenvalues --   -0.55341  -0.55327  -0.53334  -0.52928  -0.52703
 Alpha  occ. eigenvalues --   -0.52467  -0.50003  -0.48904  -0.48902  -0.48036
 Alpha  occ. eigenvalues --   -0.46765  -0.45777  -0.45722  -0.44904  -0.43846
 Alpha  occ. eigenvalues --   -0.37369  -0.36278
 Alpha virt. eigenvalues --    0.04933   0.11119   0.16344   0.20740   0.22916
 Alpha virt. eigenvalues --    0.23984   0.26175   0.26810   0.27644   0.28130
 Alpha virt. eigenvalues --    0.28415   0.30449   0.31067   0.31797   0.32536

 Mulliken charges:
               1
     1  C   -0.301538
     2  C   -0.300222
     3  C   -0.476681
     4  H    0.154351
     5  H    0.145777
     6  H    0.156377
     7  H    0.150052
     8  H    0.150660
     9  H    0.159361
    10  H    0.161767
    11  C   -0.298519
    12  C   -0.301193
    13  C   -0.475629
    14  H    0.153122
    15  H    0.149461
    16  H    0.148696
    17  H    0.147487
    18  H    0.157142
    19  H    0.157958
    20  H    0.154857
    21  C   -0.172558
    22  C   -0.216891
    23  C   -0.172322
    24  C    0.159934
    25  C   -0.175476
    26  C   -0.209700
    27  H    0.225899
    28  H    0.223876
    29  H    0.275993
    30  H    0.275250
    31  H    0.225498
    32  N    0.487966
    33  O   -0.460433
    34  O   -0.460318
 Sum of Mulliken charges =  -0.00000

 Dipole moment (field-independent basis, Debye):
    X=             -1.3649    Y=             -3.4045    Z=             -3.6253  Tot=              5.1572
 Quadrupole moment (field-independent basis, Debye-Ang):
   XX=            -99.7975   YY=            -91.8910   ZZ=            -94.2752
   XY=             -5.1594   XZ=             -8.8754   YZ=             -0.7258

 Normal termination of Gaussian 16 at Wed May  5 21:52:27 2021.
