 Gaussian 16, Revision A.03,
 Gaussian 16:  EM64L-G16RevA.03 25-Dec-2016

 -------------
 #p 6-31g* mp2
 -------------

 ------------------------------------------------------
 Input file generated by CHIRIPA (05-May-2021 14:55:24)
 ------------------------------------------------------
 Symbolic Z-matrix:
 Charge =  0 Multiplicity = 1

                         Standard orientation:
 ---------------------------------------------------------------------
 Center     Atomic      Atomic             Coordinates (Angstroms)
 Number     Number       Type             X           Y           Z
 ---------------------------------------------------------------------
      1          6           0       -1.956172    1.975342    0.300649
      2          6           0       -2.293094    1.204849    1.418390
      3          6           0       -3.136419    0.097298    1.289234
      4          6           0       -3.627012   -0.212528    0.021710
      5          6           0       -3.309660    0.535604   -1.110931
      6          6           0       -2.464635    1.638854   -0.958225
      7          1           0       -1.300397    2.834044    0.410127
      8          1           0       -1.899695    1.463819    2.397276
      9          1           0       -3.413427   -0.516424    2.137780
     10          1           0       -3.717413    0.252671   -2.073794
     11          1           0       -2.204673    2.235423   -1.828035
     12          7           0       -4.520703   -1.382766   -0.127487
     13          8           0       -4.939751   -1.634804   -1.255101
     14          8           0       -4.785208   -2.025802    0.886011
     15          6           0        5.217029   -0.008737   -0.047671
     16          6           0        5.759858   -1.437379    0.000329
     17          6           0        7.287810   -1.488750    0.023077
     18          1           0        5.615661    0.498504   -0.936909
     19          1           0        5.590602    0.547471    0.823232
     20          1           0        5.384252   -1.991126   -0.869672
     21          1           0        5.359736   -1.941339    0.889453
     22          1           0        7.678027   -0.960466    0.899004
     23          1           0        7.702683   -1.010536   -0.870115
     24          1           0        7.654384   -2.519434    0.057358
     25          6           0        3.691057    0.059063   -0.070857
     26          6           0        3.148228    1.487705   -0.118856
     27          6           0        1.620276    1.539076   -0.141606
     28          1           0        3.317484   -0.497144   -0.941760
     29          1           0        3.292425   -0.448178    0.818382
     30          1           0        3.548350    1.991665   -1.007981
     31          1           0        3.523834    2.041453    0.751144
     32          1           0        1.205403    1.060863    0.751587
     33          1           0        1.230059    1.010793   -1.017533
     34          1           0        1.253703    2.569760   -0.175885
 ---------------------------------------------------------------------

 SCF Done:  E(RHF) =  -669.535402658     A.U. after   15 cycles
 E2 =    -0.2091431198D+01 EUMP2 =    -0.67162683385548D+03

 The electronic state is 1-A.
 Alpha  occ. eigenvalues --  -20.60723 -20.60718 -15.85778 -11.31124 -11.27715
 Alpha  occ. eigenvalues --  -11.27711 -11.27427 -11.26708 -11.26697 -11.22204
 Alpha  occ. eigenvalues --  -11.21893 -11.21883 -11.21843 -11.21732 -11.21306
 Alpha  occ. eigenvalues --   -1.59799  -1.39353  -1.19308  -1.08873  -1.08697
 Alpha  occ. eigenvalues --   -1.04712  -1.04003  -0.96476  -0.95531  -0.87494
 Alpha  occ. eigenvalues --   -0.86108  -0.82372  -0.80071  -0.78654  -0.77422
 Alpha  occ. eigenvalues --   -0.71996  -0.71123  -0.70415  -0.65498  -0.64959
 Alpha  occ. eigenvalues --   -0.64716  -0.62063  -0.61394  -0.59882  -0.58066
 Alpha  occ. eigenvalues --   -0.55752  -0.55229  -0.53342  -0.53003  -0.52804
 Alpha  occ. eigenvalues --   -0.52728  -0.50398  -0.48753  -0.48751  -0.48378
 Alpha  occ. eigenvalues --   -0.47087  -0.46204  -0.46112  -0.44764  -0.44261
 Alpha  occ. eigenvalues --   -0.37225  -0.36319
 Alpha virt. eigenvalues --    0.05110   0.11275   0.16573   0.20640   0.22556
 Alpha virt. eigenvalues --    0.23947   0.26188   0.26392   0.27026   0.27337
 Alpha virt. eigenvalues --    0.28466   0.30136   0.30935   0.31605   0.32531

 Mulliken charges:
               1
     1  C   -0.163556
     2  C   -0.221193
     3  C   -0.170827
     4  C    0.158144
     5  C   -0.170952
     6  C   -0.220521
     7  H    0.227502
     8  H    0.223036
     9  H    0.275320
    10  H    0.275332
    11  H    0.223222
    12  N    0.488134
    13  O   -0.460729
    14  O   -0.460725
    15  C   -0.298584
    16  C   -0.300039
    17  C   -0.475947
    18  H    0.150019
    19  H    0.149485
    20  H    0.152977
    21  H    0.152573
    22  H    0.155185
    23  H    0.155393
    24  H    0.161515
    25  C   -0.298819
    26  C   -0.300710
    27  C   -0.475656
    28  H    0.151250
    29  H    0.150350
    30  H    0.152767
    31  H    0.151704
    32  H    0.156133
    33  H    0.159286
    34  H    0.148933
 Sum of Mulliken charges =  -0.00000

 Dipole moment (field-independent basis, Debye):
    X=              3.2570    Y=              4.0787    Z=              0.5119  Tot=              5.2446
 Quadrupole moment (field-independent basis, Debye-Ang):
   XX=           -119.3936   YY=            -97.2734   ZZ=            -88.8821
   XY=            -15.8073   XZ=             -1.5153   YZ=             -1.0061

 Normal termination of Gaussian 16 at Wed May  5 20:47:25 2021.
