 Gaussian 16, Revision A.03,
 Gaussian 16:  EM64L-G16RevA.03 25-Dec-2016

 -------------
 #p 6-31g* mp2
 -------------

 ------------------------------------------------------
 Input file generated by CHIRIPA (05-May-2021 14:51:07)
 ------------------------------------------------------
 Symbolic Z-matrix:
 Charge =  0 Multiplicity = 1

                         Standard orientation:
 ---------------------------------------------------------------------
 Center     Atomic      Atomic             Coordinates (Angstroms)
 Number     Number       Type             X           Y           Z
 ---------------------------------------------------------------------
      1          6           0        3.047750   -1.049471   -0.005030
      2          6           0        1.575660   -0.636069   -0.010986
      3          6           0        0.625252   -1.833696    0.003402
      4          1           0        3.246373   -1.687501   -0.877046
      5          1           0        3.245036   -1.664649    0.883806
      6          1           0        1.381531   -0.020702   -0.898823
      7          1           0        1.380563    0.001208    0.861041
      8          1           0        0.790049   -2.445572    0.896179
      9          1           0        0.791022   -2.467607   -0.873683
     10          1           0       -0.421875   -1.515318   -0.001137
     11          6           0        4.010195    0.136794   -0.019270
     12          6           0        5.482285   -0.276608   -0.013314
     13          6           0        6.432693    0.921020   -0.027702
     14          1           0        3.812909    0.751972   -0.908106
     15          1           0        3.811572    0.774825    0.852745
     16          1           0        5.677382   -0.913885   -0.885341
     17          1           0        5.676414   -0.891974    0.874522
     18          1           0        6.266923    1.554931    0.849383
     19          1           0        6.267896    1.532895   -0.920480
     20          1           0        7.479820    0.602641   -0.023163
     21          6           0       -3.076053    1.001518    0.296887
     22          6           0       -3.252589    2.356307   -0.389674
     23          6           0       -2.339711    3.436711    0.190993
     24          1           0       -3.275465    1.113406    1.371439
     25          1           0       -2.027715    0.685452    0.204777
     26          1           0       -4.300585    2.669075   -0.297498
     27          1           0       -3.052921    2.241142   -1.462748
     28          1           0       -1.288317    3.150395    0.085188
     29          1           0       -2.543069    3.580760    1.257059
     30          1           0       -2.482334    4.396984   -0.314373
     31          6           0       -3.981891   -0.088842   -0.272587
     32          6           0       -3.805356   -1.443631    0.413975
     33          6           0       -4.718234   -2.524034   -0.166693
     34          1           0       -5.030229    0.227224   -0.180477
     35          1           0       -3.782481   -0.200729   -1.347139
     36          1           0       -4.005024   -1.328466    1.487048
     37          1           0       -2.757361   -1.756399    0.321798
     38          1           0       -4.514875   -2.668083   -1.232759
     39          1           0       -5.769628   -2.237719   -0.060888
     40          1           0       -4.575611   -3.484307    0.338674
 ---------------------------------------------------------------------

 SCF Done:  E(RHF) =  -470.733237380     A.U. after   11 cycles
 E2 =    -0.1583011799D+01 EUMP2 =    -0.47231624917911D+03

 The electronic state is 1-A.
 Alpha  occ. eigenvalues --  -11.21657 -11.21619 -11.21596 -11.21572 -11.21436
 Alpha  occ. eigenvalues --  -11.21400 -11.21375 -11.21341 -11.21112 -11.21083
 Alpha  occ. eigenvalues --  -11.21058 -11.21048  -1.08466  -1.08422  -1.03567
 Alpha  occ. eigenvalues --   -1.03514  -0.96016  -0.95964  -0.87039  -0.86977
 Alpha  occ. eigenvalues --   -0.79657  -0.79555  -0.78274  -0.78242  -0.65091
 Alpha  occ. eigenvalues --   -0.65080  -0.60958  -0.60933  -0.59435  -0.59287
 Alpha  occ. eigenvalues --   -0.57642  -0.57565  -0.55295  -0.55252  -0.52790
 Alpha  occ. eigenvalues --   -0.52623  -0.52438  -0.52387  -0.49950  -0.49907
 Alpha  occ. eigenvalues --   -0.48010  -0.47852  -0.46660  -0.46612  -0.45816
 Alpha  occ. eigenvalues --   -0.45770  -0.45739  -0.45687  -0.43796  -0.43730
 Alpha virt. eigenvalues --    0.20713   0.23058   0.24040   0.24164   0.25989
 Alpha virt. eigenvalues --    0.26628   0.27092   0.27393   0.27981   0.29087
 Alpha virt. eigenvalues --    0.30331   0.31383   0.31702   0.31906   0.32248

 Mulliken charges:
               1
     1  C   -0.298638
     2  C   -0.299243
     3  C   -0.486493
     4  H    0.149767
     5  H    0.149805
     6  H    0.151353
     7  H    0.152558
     8  H    0.155890
     9  H    0.155371
    10  H    0.169401
    11  C   -0.298303
    12  C   -0.299667
    13  C   -0.475733
    14  H    0.149490
    15  H    0.149838
    16  H    0.151954
    17  H    0.152006
    18  H    0.155275
    19  H    0.155205
    20  H    0.160318
    21  C   -0.302913
    22  C   -0.299387
    23  C   -0.475952
    24  H    0.149698
    25  H    0.153332
    26  H    0.151998
    27  H    0.151875
    28  H    0.155726
    29  H    0.155054
    30  H    0.160175
    31  C   -0.297694
    32  C   -0.307970
    33  C   -0.475061
    34  H    0.149654
    35  H    0.149379
    36  H    0.151934
    37  H    0.159435
    38  H    0.155130
    39  H    0.155035
    40  H    0.160398
 Sum of Mulliken charges =  -0.00000

 Dipole moment (field-independent basis, Debye):
    X=              0.0165    Y=             -0.0052    Z=              0.0072  Tot=              0.0188
 Quadrupole moment (field-independent basis, Debye-Ang):
   XX=            -85.2932   YY=            -86.0968   ZZ=            -83.3462
   XY=             -1.3260   XZ=             -0.6730   YZ=             -0.0893

 Normal termination of Gaussian 16 at Wed May  5 19:39:33 2021.
