 Gaussian 16, Revision A.03,
 Gaussian 16:  EM64L-G16RevA.03 25-Dec-2016

 -------------
 #p 6-31g* mp2
 -------------

 ------------------------------------------------------
 Input file generated by CHIRIPA (05-May-2021 14:57:26)
 ------------------------------------------------------
 Symbolic Z-matrix:
 Charge =  0 Multiplicity = 1

                         Standard orientation:
 ---------------------------------------------------------------------
 Center     Atomic      Atomic             Coordinates (Angstroms)
 Number     Number       Type             X           Y           Z
 ---------------------------------------------------------------------
      1          6           0       -6.199181    0.907528   -0.356957
      2          6           0       -6.023316   -0.445271   -0.047879
      3          6           0       -4.739331   -0.987190    0.062825
      4          6           0       -3.648641   -0.143753   -0.142843
      5          6           0       -3.791281    1.208037   -0.452047
      6          6           0       -5.084567    1.728417   -0.557700
      7          1           0       -7.200224    1.320137   -0.440993
      8          1           0       -6.887106   -1.085148    0.108544
      9          1           0       -4.574435   -2.030984    0.300988
     10          1           0       -2.910889    1.820985   -0.602460
     11          1           0       -5.218134    2.779385   -0.797851
     12          7           0       -2.284421   -0.706057   -0.028319
     13          8           0       -1.339835    0.058047   -0.214172
     14          8           0       -2.185561   -1.900247    0.245130
     15          6           0        1.744884   -0.101440    1.507724
     16          6           0        2.116075   -1.153058    0.663427
     17          6           0        3.293325   -1.079390   -0.087041
     18          6           0        4.079267    0.065823    0.031591
     19          6           0        3.736402    1.130155    0.864016
     20          6           0        2.554803    1.034807    1.605152
     21          1           0        0.828679   -0.167088    2.087081
     22          1           0        1.489022   -2.036698    0.585769
     23          1           0        3.604481   -1.878889   -0.748404
     24          1           0        4.381947    1.998204    0.920415
     25          1           0        2.269026    1.853041    2.260033
     26          7           0        5.327870    0.155288   -0.757956
     27          8           0        6.003004    1.175036   -0.635701
     28          8           0        5.607750   -0.796031   -1.484108
 ---------------------------------------------------------------------

 SCF Done:  E(RHF) =  -868.339995398     A.U. after   16 cycles
 E2 =    -0.2598937380D+01 EUMP2 =    -0.87093893277810D+03

 The electronic state is 1-A.
 Alpha  occ. eigenvalues --  -20.61848 -20.61842 -20.59779 -20.59768 -15.86853
 Alpha  occ. eigenvalues --  -15.84821 -11.31937 -11.29890 -11.28471 -11.28466
 Alpha  occ. eigenvalues --  -11.28154 -11.27416 -11.27407 -11.26501 -11.26381
 Alpha  occ. eigenvalues --  -11.26009 -11.25428 -11.25188  -1.60919  -1.58859
 Alpha  occ. eigenvalues --   -1.40473  -1.38422  -1.20084  -1.18022  -1.09533
 Alpha  occ. eigenvalues --   -1.07437  -1.05440  -1.03391  -0.96414  -0.94333
 Alpha  occ. eigenvalues --   -0.86851  -0.84781  -0.83249  -0.81193  -0.78333
 Alpha  occ. eigenvalues --   -0.76301  -0.73081  -0.72225  -0.71182  -0.71048
 Alpha  occ. eigenvalues --   -0.70180  -0.69081  -0.65735  -0.65437  -0.63664
 Alpha  occ. eigenvalues --   -0.63372  -0.62788  -0.60759  -0.55948  -0.53851
 Alpha  occ. eigenvalues --   -0.53763  -0.53524  -0.51742  -0.51473  -0.49859
 Alpha  occ. eigenvalues --   -0.49801  -0.47818  -0.47774  -0.45932  -0.43896
 Alpha  occ. eigenvalues --   -0.38047  -0.37031  -0.35881  -0.34990
 Alpha virt. eigenvalues --    0.04154   0.06244   0.10628   0.12687   0.15711
 Alpha virt. eigenvalues --    0.17852   0.20818   0.22827   0.26746   0.27689
 Alpha virt. eigenvalues --    0.28692   0.29624   0.30454   0.31871   0.32403

 Mulliken charges:
               1
     1  C   -0.169685
     2  C   -0.218547
     3  C   -0.170578
     4  C    0.157170
     5  C   -0.171029
     6  C   -0.218545
     7  H    0.228214
     8  H    0.225640
     9  H    0.275954
    10  H    0.276320
    11  H    0.225835
    12  N    0.487825
    13  O   -0.461826
    14  O   -0.464042
    15  C   -0.155485
    16  C   -0.213053
    17  C   -0.174189
    18  C    0.156850
    19  C   -0.173109
    20  C   -0.221933
    21  H    0.226877
    22  H    0.232939
    23  H    0.271848
    24  H    0.270070
    25  H    0.216646
    26  N    0.488305
    27  O   -0.465052
    28  O   -0.463421
 Sum of Mulliken charges =  -0.00000

 Dipole moment (field-independent basis, Debye):
    X=             -9.8845    Y=              1.5765    Z=              2.3680  Tot=             10.2857
 Quadrupole moment (field-independent basis, Debye-Ang):
   XX=           -106.7534   YY=            -97.6062   ZZ=           -105.2226
   XY=             -5.8981   XZ=             13.5028   YZ=              0.6598

 Normal termination of Gaussian 16 at Thu May  6 09:53:37 2021.
