 Gaussian 16, Revision A.03,
 Gaussian 16:  EM64L-G16RevA.03 25-Dec-2016

 -------------
 #p 6-31g* mp2
 -------------

 ------------------------------------------------------
 Input file generated by CHIRIPA (05-May-2021 14:51:11)
 ------------------------------------------------------
 Symbolic Z-matrix:
 Charge =  0 Multiplicity = 1

                         Standard orientation:
 ---------------------------------------------------------------------
 Center     Atomic      Atomic             Coordinates (Angstroms)
 Number     Number       Type             X           Y           Z
 ---------------------------------------------------------------------
      1          6           0        2.645673    0.088929    0.313292
      2          6           0        3.904905   -0.697851   -0.051805
      3          6           0        3.874366   -2.136034    0.466357
      4          1           0        2.527758    0.093631    1.405546
      5          1           0        1.766713   -0.429858   -0.093751
      6          1           0        4.781344   -0.176998    0.354623
      7          1           0        4.019941   -0.700518   -1.143306
      8          1           0        3.018084   -2.677103    0.050875
      9          1           0        3.783814   -2.150609    1.557315
     10          1           0        4.784089   -2.680241    0.194139
     11          6           0        2.661319    1.528475   -0.197776
     12          6           0        1.402086    2.315256    0.167321
     13          6           0        1.432625    3.753438   -0.350841
     14          1           0        3.540278    2.047263    0.209267
     15          1           0        2.779233    1.523773   -1.290030
     16          1           0        1.287051    2.317923    1.258822
     17          1           0        0.525647    1.794403   -0.239107
     18          1           0        1.523178    3.768014   -1.441799
     19          1           0        2.288907    4.294508    0.064641
     20          1           0        0.522902    4.297646   -0.078623
     21          6           0       -2.395289   -1.524355   -0.125600
     22          6           0       -0.876291   -1.608962   -0.278802
     23          6           0       -0.374911   -3.047117   -0.413429
     24          1           0       -2.701485   -2.104910    0.755390
     25          1           0       -2.871485   -1.999863   -0.994234
     26          1           0       -0.403102   -1.132210    0.589192
     27          1           0       -0.573656   -1.027980   -1.159421
     28          1           0       -0.819893   -3.529801   -1.289561
     29          1           0       -0.648369   -3.634622    0.468987
     30          1           0        0.713542   -3.084327   -0.521812
     31          6           0       -2.911702   -0.093049    0.010084
     32          6           0       -4.430701   -0.008442    0.163286
     33          6           0       -4.932080    1.429712    0.297913
     34          1           0       -2.435506    0.382458    0.878718
     35          1           0       -2.605507    0.487506   -0.870907
     36          1           0       -4.733335   -0.589424    1.043905
     37          1           0       -4.903889   -0.485196   -0.704709
     38          1           0       -4.658622    2.017217   -0.584503
     39          1           0       -4.487099    1.912396    1.174045
     40          1           0       -6.020533    1.466922    0.406296
 ---------------------------------------------------------------------

 SCF Done:  E(RHF) =  -470.732249035     A.U. after   11 cycles
 E2 =    -0.1584747670D+01 EUMP2 =    -0.47231699670539D+03

 The electronic state is 1-A.
 Alpha  occ. eigenvalues --  -11.21638 -11.21626 -11.21554 -11.21540 -11.21438
 Alpha  occ. eigenvalues --  -11.21379 -11.21325 -11.21226 -11.21129 -11.21087
 Alpha  occ. eigenvalues --  -11.21051 -11.21033  -1.08489  -1.08356  -1.03588
 Alpha  occ. eigenvalues --   -1.03478  -0.96025  -0.95938  -0.87056  -0.86938
 Alpha  occ. eigenvalues --   -0.79683  -0.79545  -0.78455  -0.78014  -0.65100
 Alpha  occ. eigenvalues --   -0.65026  -0.60984  -0.60918  -0.59463  -0.59234
 Alpha  occ. eigenvalues --   -0.57642  -0.57551  -0.55302  -0.55258  -0.52781
 Alpha  occ. eigenvalues --   -0.52632  -0.52486  -0.52294  -0.49970  -0.49890
 Alpha  occ. eigenvalues --   -0.47974  -0.47855  -0.46699  -0.46574  -0.46202
 Alpha  occ. eigenvalues --   -0.45802  -0.45646  -0.45110  -0.43809  -0.43725
 Alpha virt. eigenvalues --    0.20991   0.22585   0.23359   0.24580   0.25811
 Alpha virt. eigenvalues --    0.26108   0.26654   0.27319   0.27969   0.29676
 Alpha virt. eigenvalues --    0.30498   0.31217   0.31691   0.31870   0.32638

 Mulliken charges:
               1
     1  C   -0.310058
     2  C   -0.298652
     3  C   -0.481539
     4  H    0.147792
     5  H    0.165210
     6  H    0.151644
     7  H    0.151244
     8  H    0.159696
     9  H    0.155230
    10  H    0.160407
    11  C   -0.297229
    12  C   -0.302559
    13  C   -0.475592
    14  H    0.149059
    15  H    0.148848
    16  H    0.151082
    17  H    0.155208
    18  H    0.154832
    19  H    0.155033
    20  H    0.160215
    21  C   -0.297273
    22  C   -0.304918
    23  C   -0.483187
    24  H    0.149895
    25  H    0.149389
    26  H    0.157271
    27  H    0.150927
    28  H    0.155637
    29  H    0.156209
    30  H    0.165822
    31  C   -0.299268
    32  C   -0.299709
    33  C   -0.475731
    34  H    0.150719
    35  H    0.149432
    36  H    0.152084
    37  H    0.151970
    38  H    0.155200
    39  H    0.155327
    40  H    0.160332
 Sum of Mulliken charges =  -0.00000

 Dipole moment (field-independent basis, Debye):
    X=             -0.0537    Y=             -0.0272    Z=              0.0091  Tot=              0.0609
 Quadrupole moment (field-independent basis, Debye-Ang):
   XX=            -85.0624   YY=            -86.8490   ZZ=            -83.0808
   XY=              0.7400   XZ=              0.4621   YZ=              0.4038

 Normal termination of Gaussian 16 at Thu May  6 02:14:47 2021.
