 Gaussian 16, Revision A.03,
 Gaussian 16:  EM64L-G16RevA.03 25-Dec-2016

 -------------
 #p 6-31g* mp2
 -------------

 ------------------------------------------------------
 Input file generated by CHIRIPA (05-May-2021 14:53:15)
 ------------------------------------------------------
 Symbolic Z-matrix:
 Charge =  0 Multiplicity = 1

                         Standard orientation:
 ---------------------------------------------------------------------
 Center     Atomic      Atomic             Coordinates (Angstroms)
 Number     Number       Type             X           Y           Z
 ---------------------------------------------------------------------
      1          6           0       -4.098466    0.368044    0.474607
      2          6           0       -3.272670    1.502071   -0.133694
      3          6           0       -1.910525    1.668870    0.540495
      4          1           0       -4.239617    0.560240    1.547026
      5          1           0       -3.532554   -0.570644    0.397118
      6          1           0       -3.840553    2.438094   -0.056328
      7          1           0       -3.133631    1.307250   -1.204829
      8          1           0       -1.321459    0.750373    0.451249
      9          1           0       -2.032397    1.887642    1.606275
     10          1           0       -1.336885    2.484913    0.090083
     11          6           0       -5.462846    0.188891   -0.188793
     12          6           0       -6.288641   -0.945136    0.419508
     13          6           0       -7.650787   -1.111935   -0.254682
     14          1           0       -6.028757    1.127578   -0.111305
     15          1           0       -5.321695   -0.003305   -1.261212
     16          1           0       -6.427680   -0.750315    1.490642
     17          1           0       -5.720758   -1.881159    0.342141
     18          1           0       -7.528914   -1.330707   -1.320462
     19          1           0       -8.239853   -0.193438   -0.165435
     20          1           0       -8.224427   -1.927978    0.195730
     21          6           0        1.276001   -0.454555   -0.625096
     22          6           0        2.030978   -1.580684   -0.281052
     23          6           0        3.394130   -1.461174    0.005441
     24          6           0        3.972604   -0.194640   -0.062008
     25          6           0        3.247117    0.946212   -0.401741
     26          6           0        1.885406    0.803081   -0.684239
     27          1           0        0.217631   -0.556567   -0.846099
     28          1           0        1.560359   -2.558630   -0.234333
     29          1           0        4.002181   -2.316343    0.274477
     30          1           0        3.744216    1.907901   -0.440006
     31          1           0        1.301553    1.679392   -0.951146
     32          7           0        5.414949   -0.055618    0.239175
     33          8           0        5.900976    1.071325    0.172740
     34          8           0        6.032122   -1.076228    0.535974
 ---------------------------------------------------------------------

 SCF Done:  E(RHF) =  -669.535153267     A.U. after   15 cycles
 E2 =    -0.2091426100D+01 EUMP2 =    -0.67162657936650D+03

 The electronic state is 1-A.
 Alpha  occ. eigenvalues --  -20.60735 -20.60730 -15.85788 -11.31154 -11.27719
 Alpha  occ. eigenvalues --  -11.27706 -11.27442 -11.26740 -11.26711 -11.22557
 Alpha  occ. eigenvalues --  -11.22224 -11.22208 -11.22182 -11.22048 -11.21557
 Alpha  occ. eigenvalues --   -1.59811  -1.39364  -1.19322  -1.09210  -1.08719
 Alpha  occ. eigenvalues --   -1.04723  -1.04320  -0.96782  -0.95555  -0.87799
 Alpha  occ. eigenvalues --   -0.86117  -0.82389  -0.80386  -0.78989  -0.77431
 Alpha  occ. eigenvalues --   -0.72006  -0.71133  -0.70466  -0.65848  -0.64974
 Alpha  occ. eigenvalues --   -0.64730  -0.62083  -0.61715  -0.60162  -0.58376
 Alpha  occ. eigenvalues --   -0.56161  -0.55174  -0.53501  -0.53218  -0.53005
 Alpha  occ. eigenvalues --   -0.52792  -0.50699  -0.48773  -0.48761  -0.48681
 Alpha  occ. eigenvalues --   -0.47415  -0.46533  -0.46448  -0.44770  -0.44565
 Alpha  occ. eigenvalues --   -0.37284  -0.36322
 Alpha virt. eigenvalues --    0.05069   0.11298   0.16478   0.19647   0.22497
 Alpha virt. eigenvalues --    0.23922   0.25262   0.26019   0.26613   0.27460
 Alpha virt. eigenvalues --    0.29151   0.29720   0.31168   0.31448   0.32518

 Mulliken charges:
               1
     1  C   -0.297803
     2  C   -0.300956
     3  C   -0.480163
     4  H    0.152724
     5  H    0.145393
     6  H    0.156404
     7  H    0.149602
     8  H    0.149737
     9  H    0.162599
    10  H    0.157456
    11  C   -0.298758
    12  C   -0.300018
    13  C   -0.476092
    14  H    0.151577
    15  H    0.149496
    16  H    0.153309
    17  H    0.151256
    18  H    0.155432
    19  H    0.156309
    20  H    0.161847
    21  C   -0.171922
    22  C   -0.219099
    23  C   -0.171097
    24  C    0.158765
    25  C   -0.171534
    26  C   -0.218052
    27  H    0.226745
    28  H    0.223125
    29  H    0.275431
    30  H    0.275532
    31  H    0.225684
    32  N    0.488065
    33  O   -0.460458
    34  O   -0.460537
 Sum of Mulliken charges =  -0.00000

 Dipole moment (field-independent basis, Debye):
    X=             -5.2828    Y=             -0.4498    Z=             -1.0058  Tot=              5.3965
 Quadrupole moment (field-independent basis, Debye-Ang):
   XX=           -135.8211   YY=            -89.2632   ZZ=            -95.0041
   XY=             -1.9243   XZ=             -4.7018   YZ=             -0.2789

 Normal termination of Gaussian 16 at Thu May  6 13:50:01 2021.
