 Gaussian 16, Revision A.03,
 Gaussian 16:  EM64L-G16RevA.03 25-Dec-2016

 -------------
 #p 6-31g* mp2
 -------------

 ------------------------------------------------------
 Input file generated by CHIRIPA (05-May-2021 14:57:25)
 ------------------------------------------------------
 Symbolic Z-matrix:
 Charge =  0 Multiplicity = 1

                         Standard orientation:
 ---------------------------------------------------------------------
 Center     Atomic      Atomic             Coordinates (Angstroms)
 Number     Number       Type             X           Y           Z
 ---------------------------------------------------------------------
      1          6           0       -1.661725   -2.323373    0.417475
      2          6           0       -1.699826   -1.370890    1.441118
      3          6           0       -2.289815   -0.121652    1.226957
      4          6           0       -2.834537    0.142744   -0.028695
      5          6           0       -2.812138   -0.785366   -1.068599
      6          6           0       -2.217023   -2.028091   -0.831914
      7          1           0       -1.201416   -3.291281    0.592589
      8          1           0       -1.269363   -1.597453    2.412414
      9          1           0       -2.333043    0.634146    2.001760
     10          1           0       -3.249564   -0.530474   -2.026256
     11          1           0       -2.188873   -2.765871   -1.628741
     12          7           0       -3.461845    1.461810   -0.267341
     13          8           0       -3.934722    1.670224   -1.382504
     14          8           0       -3.468774    2.262302    0.665290
     15          6           0        3.366499    2.515027    0.072020
     16          6           0        3.680866    1.747609   -1.054375
     17          6           0        3.333690    0.394540   -1.111108
     18          6           0        2.669725   -0.161273   -0.018627
     19          6           0        2.342691    0.577056    1.117687
     20          6           0        2.699590    1.928335    1.152550
     21          1           0        3.639970    3.565428    0.107597
     22          1           0        4.198751    2.200585   -1.895001
     23          1           0        3.564865   -0.222748   -1.970720
     24          1           0        1.825956    0.097515    1.940148
     25          1           0        2.454169    2.521892    2.028624
     26          7           0        2.297038   -1.592759   -0.067112
     27          8           0        1.712491   -2.058797    0.908464
     28          8           0        2.596531   -2.221615   -1.079773
 ---------------------------------------------------------------------

 SCF Done:  E(RHF) =  -868.340145104     A.U. after   16 cycles
 E2 =    -0.2600161482D+01 EUMP2 =    -0.87094030658595D+03

 The electronic state is 1-A.
 Alpha  occ. eigenvalues --  -20.61469 -20.61464 -20.60439 -20.60429 -15.86480
 Alpha  occ. eigenvalues --  -15.85485 -11.31558 -11.30596 -11.28118 -11.28079
 Alpha  occ. eigenvalues --  -11.27756 -11.27180 -11.27158 -11.27035 -11.27023
 Alpha  occ. eigenvalues --  -11.26641 -11.26018 -11.26005  -1.60521  -1.59520
 Alpha  occ. eigenvalues --   -1.40089  -1.39081  -1.19697  -1.18737  -1.09142
 Alpha  occ. eigenvalues --   -1.08119  -1.05063  -1.04118  -0.96036  -0.95005
 Alpha  occ. eigenvalues --   -0.86472  -0.85487  -0.82888  -0.81870  -0.77972
 Alpha  occ. eigenvalues --   -0.76993  -0.72754  -0.71823  -0.71703  -0.70845
 Alpha  occ. eigenvalues --   -0.70805  -0.69711  -0.65361  -0.65064  -0.64359
 Alpha  occ. eigenvalues --   -0.64074  -0.62426  -0.61482  -0.55562  -0.54450
 Alpha  occ. eigenvalues --   -0.53393  -0.53157  -0.52452  -0.52182  -0.49505
 Alpha  occ. eigenvalues --   -0.49453  -0.48478  -0.48434  -0.45567  -0.44547
 Alpha  occ. eigenvalues --   -0.37650  -0.36660  -0.36533  -0.35734
 Alpha virt. eigenvalues --    0.04525   0.05570   0.11010   0.11933   0.16112
 Alpha virt. eigenvalues --    0.17153   0.20996   0.22245   0.26704   0.27530
 Alpha virt. eigenvalues --    0.28588   0.29197   0.30690   0.31598   0.32561

 Mulliken charges:
               1
     1  C   -0.160007
     2  C   -0.216133
     3  C   -0.177082
     4  C    0.156621
     5  C   -0.172536
     6  C   -0.222578
     7  H    0.238212
     8  H    0.223969
     9  H    0.269307
    10  H    0.272910
    11  H    0.224610
    12  N    0.488370
    13  O   -0.462357
    14  O   -0.465001
    15  C   -0.169046
    16  C   -0.218097
    17  C   -0.170531
    18  C    0.159223
    19  C   -0.168535
    20  C   -0.217475
    21  H    0.228511
    22  H    0.225275
    23  H    0.275420
    24  H    0.270132
    25  H    0.225434
    26  N    0.490180
    27  O   -0.469011
    28  O   -0.459786
 Sum of Mulliken charges =  -0.00000

 Dipole moment (field-independent basis, Debye):
    X=              3.8362    Y=              0.2387    Z=              0.9670  Tot=              3.9634
 Quadrupole moment (field-independent basis, Debye-Ang):
   XX=           -111.2554   YY=           -107.8324   ZZ=            -96.6311
   XY=             28.0904   XZ=             -3.1773   YZ=              1.9062

 Normal termination of Gaussian 16 at Fri May  7 12:40:08 2021.
