 Gaussian 16, Revision A.03,
 Gaussian 16:  EM64L-G16RevA.03 25-Dec-2016

 -------------
 #p 6-31g* mp2
 -------------

 ------------------------------------------------------
 Input file generated by CHIRIPA (05-May-2021 14:55:23)
 ------------------------------------------------------
 Symbolic Z-matrix:
 Charge =  0 Multiplicity = 1

                         Standard orientation:
 ---------------------------------------------------------------------
 Center     Atomic      Atomic             Coordinates (Angstroms)
 Number     Number       Type             X           Y           Z
 ---------------------------------------------------------------------
      1          6           0        6.446362   -0.778893    0.354162
      2          6           0        5.421281   -1.669848    0.019602
      3          6           0        4.123315   -1.204494   -0.211213
      4          6           0        3.884748    0.164316   -0.098363
      5          6           0        4.884865    1.077031    0.233308
      6          6           0        6.175360    0.589291    0.459761
      7          1           0        7.451751   -1.149086    0.531770
      8          1           0        5.628838   -2.732921   -0.063114
      9          1           0        3.311030   -1.872152   -0.471682
     10          1           0        4.647323    2.131244    0.308318
     11          1           0        6.969490    1.283534    0.719431
     12          7           0        2.514603    0.668815   -0.340407
     13          8           0        2.330293    1.879390   -0.234702
     14          8           0        1.650938   -0.155887   -0.631244
     15          6           0       -5.928642   -0.093036   -0.296996
     16          6           0       -7.141532   -0.077211    0.633936
     17          6           0       -8.468821   -0.055559   -0.124765
     18          1           0       -5.964610    0.789195   -0.950694
     19          1           0       -5.990876   -0.971606   -0.953985
     20          1           0       -7.076315    0.800319    1.289913
     21          1           0       -7.102570   -0.959480    1.285623
     22          1           0       -8.560064   -0.937734   -0.766671
     23          1           0       -8.533661    0.832064   -0.762357
     24          1           0       -9.322537   -0.044492    0.560002
     25          6           0       -4.594402   -0.114755    0.446682
     26          6           0       -3.381512   -0.130580   -0.484250
     27          6           0       -2.054222   -0.152232    0.274452
     28          1           0       -4.532166    0.763816    1.103673
     29          1           0       -4.558433   -0.996985    1.100380
     30          1           0       -3.420474    0.751690   -1.135937
     31          1           0       -3.446728   -1.008109   -1.140227
     32          1           0       -1.989383   -1.039854    0.912043
     33          1           0       -1.962980    0.729943    0.916357
     34          1           0       -1.200507   -0.163299   -0.410316
 ---------------------------------------------------------------------

 SCF Done:  E(RHF) =  -669.536180216     A.U. after   15 cycles
 E2 =    -0.2090712357D+01 EUMP2 =    -0.67162689257361D+03

 The electronic state is 1-A.
 Alpha  occ. eigenvalues --  -20.60944 -20.60923 -15.85966 -11.31286 -11.27848
 Alpha  occ. eigenvalues --  -11.27844 -11.27587 -11.26856 -11.26846 -11.21004
 Alpha  occ. eigenvalues --  -11.20639 -11.20575 -11.20449 -11.20364 -11.19338
 Alpha  occ. eigenvalues --   -1.59991  -1.39548  -1.19453  -1.08858  -1.07559
 Alpha  occ. eigenvalues --   -1.04849  -1.02562  -0.95702  -0.94981  -0.86251
 Alpha  occ. eigenvalues --   -0.85993  -0.82534  -0.78662  -0.77586  -0.77343
 Alpha  occ. eigenvalues --   -0.72190  -0.71304  -0.70562  -0.65109  -0.64853
 Alpha  occ. eigenvalues --   -0.64204  -0.62197  -0.59976  -0.58400  -0.56571
 Alpha  occ. eigenvalues --   -0.55354  -0.54296  -0.53181  -0.52943  -0.51626
 Alpha  occ. eigenvalues --   -0.51420  -0.48971  -0.48936  -0.48900  -0.46944
 Alpha  occ. eigenvalues --   -0.45736  -0.44962  -0.44877  -0.44806  -0.42754
 Alpha  occ. eigenvalues --   -0.37433  -0.36450
 Alpha virt. eigenvalues --    0.04945   0.11205   0.16443   0.21338   0.23668
 Alpha virt. eigenvalues --    0.25351   0.27256   0.27460   0.28200   0.28312
 Alpha virt. eigenvalues --    0.29091   0.30901   0.32310   0.32416   0.32567

 Mulliken charges:
               1
     1  C   -0.170593
     2  C   -0.218557
     3  C   -0.170762
     4  C    0.157762
     5  C   -0.170535
     6  C   -0.218606
     7  H    0.225949
     8  H    0.223798
     9  H    0.275876
    10  H    0.275861
    11  H    0.223778
    12  N    0.490581
    13  O   -0.458959
    14  O   -0.461186
    15  C   -0.297411
    16  C   -0.298906
    17  C   -0.475206
    18  H    0.149039
    19  H    0.147866
    20  H    0.151272
    21  H    0.150588
    22  H    0.154229
    23  H    0.154726
    24  H    0.158339
    25  C   -0.297054
    26  C   -0.299726
    27  C   -0.484011
    28  H    0.148387
    29  H    0.146808
    30  H    0.151219
    31  H    0.147778
    32  H    0.145971
    33  H    0.152503
    34  H    0.189184
 Sum of Mulliken charges =  -0.00000

 Dipole moment (field-independent basis, Debye):
    X=              5.2237    Y=             -1.7341    Z=              0.7961  Tot=              5.5613
 Quadrupole moment (field-independent basis, Debye-Ang):
   XX=            -59.7980   YY=            -90.0266   ZZ=            -95.9444
   XY=             -4.6787   XZ=              2.9944   YZ=              1.3408

 Normal termination of Gaussian 16 at Wed May  5 22:21:25 2021.
