 Gaussian 16, Revision A.03,
 Gaussian 16:  EM64L-G16RevA.03 25-Dec-2016

 -------------
 #p 6-31g* mp2
 -------------

 ------------------------------------------------------
 Input file generated by CHIRIPA (05-May-2021 14:57:21)
 ------------------------------------------------------
 Symbolic Z-matrix:
 Charge =  0 Multiplicity = 1

                         Standard orientation:
 ---------------------------------------------------------------------
 Center     Atomic      Atomic             Coordinates (Angstroms)
 Number     Number       Type             X           Y           Z
 ---------------------------------------------------------------------
      1          6           0       -1.417800   -2.348478    1.070572
      2          6           0       -1.958097   -2.367898   -0.219475
      3          6           0       -2.568980   -1.228051   -0.750626
      4          6           0       -2.622273   -0.080798    0.039475
      5          6           0       -2.093135   -0.030095    1.328169
      6          6           0       -1.486922   -1.181696    1.838923
      7          1           0       -0.945065   -3.238503    1.475260
      8          1           0       -1.905857   -3.272627   -0.818459
      9          1           0       -2.995355   -1.215419   -1.746348
     10          1           0       -2.160390    0.886636    1.901317
     11          1           0       -1.068168   -1.163714    2.841104
     12          7           0       -3.266516    1.132128   -0.512033
     13          8           0       -3.300652    2.130320    0.204266
     14          8           0       -3.725138    1.061661   -1.650162
     15          6           0        2.947138   -2.160307   -0.601109
     16          6           0        4.020738   -1.280791   -0.426884
     17          6           0        3.793727    0.073742   -0.165623
     18          6           0        2.474422    0.516691   -0.084861
     19          6           0        1.383702   -0.334839   -0.253734
     20          6           0        1.634361   -1.685362   -0.514131
     21          1           0        3.132670   -3.210983   -0.803728
     22          1           0        5.041307   -1.646842   -0.493887
     23          1           0        4.606284    0.776476   -0.026587
     24          1           0        0.377412    0.059540   -0.181197
     25          1           0        0.798641   -2.366116   -0.649001
     26          7           0        2.221578    1.948550    0.191267
     27          8           0        1.049930    2.313900    0.257567
     28          8           0        3.199836    2.678381    0.336168
 ---------------------------------------------------------------------

 SCF Done:  E(RHF) =  -868.334304975     A.U. after   16 cycles
 E2 =    -0.2606144356D+01 EUMP2 =    -0.87094044933092D+03

 The electronic state is 1-A.
 Alpha  occ. eigenvalues --  -20.60922 -20.60866 -20.60781 -20.60775 -15.85971
 Alpha  occ. eigenvalues --  -15.85830 -11.31775 -11.31234 -11.28479 -11.28284
 Alpha  occ. eigenvalues --  -11.28240 -11.27839 -11.27719 -11.27618 -11.27555
 Alpha  occ. eigenvalues --  -11.27378 -11.26873 -11.26740  -1.59962  -1.59855
 Alpha  occ. eigenvalues --   -1.39501  -1.39407  -1.20074  -1.19424  -1.09362
 Alpha  occ. eigenvalues --   -1.08829  -1.05472  -1.04829  -0.96092  -0.95651
 Alpha  occ. eigenvalues --   -0.86841  -0.86238  -0.82890  -0.82477  -0.77847
 Alpha  occ. eigenvalues --   -0.77529  -0.72179  -0.72048  -0.71304  -0.71188
 Alpha  occ. eigenvalues --   -0.71083  -0.70572  -0.65654  -0.65438  -0.65083
 Alpha  occ. eigenvalues --   -0.64849  -0.62752  -0.62314  -0.55947  -0.55497
 Alpha  occ. eigenvalues --   -0.53634  -0.53495  -0.53098  -0.52959  -0.48976
 Alpha  occ. eigenvalues --   -0.48899  -0.48804  -0.48801  -0.44812  -0.44797
 Alpha  occ. eigenvalues --   -0.38206  -0.37488  -0.37207  -0.36103
 Alpha virt. eigenvalues --    0.04622   0.05027   0.10335   0.11150   0.15897
 Alpha virt. eigenvalues --    0.16676   0.20369   0.21865   0.26283   0.27365
 Alpha virt. eigenvalues --    0.28182   0.28469   0.30250   0.31349   0.32065

 Mulliken charges:
               1
     1  C   -0.175868
     2  C   -0.230909
     3  C   -0.172185
     4  C    0.156734
     5  C   -0.173721
     6  C   -0.216276
     7  H    0.226788
     8  H    0.223602
     9  H    0.279359
    10  H    0.286426
    11  H    0.229292
    12  N    0.489226
    13  O   -0.450149
    14  O   -0.460794
    15  C   -0.172678
    16  C   -0.219403
    17  C   -0.170539
    18  C    0.154506
    19  C   -0.174181
    20  C   -0.223880
    21  H    0.222429
    22  H    0.222758
    23  H    0.275790
    24  H    0.285017
    25  H    0.220736
    26  N    0.487157
    27  O   -0.459148
    28  O   -0.460090
 Sum of Mulliken charges =  -0.00000

 Dipole moment (field-independent basis, Debye):
    X=              2.7951    Y=             -8.9688    Z=              1.1454  Tot=              9.4638
 Quadrupole moment (field-independent basis, Debye-Ang):
   XX=           -107.7384   YY=           -109.3895   ZZ=           -101.6182
   XY=              0.2097   XZ=             -6.6136   YZ=              1.9731

 Normal termination of Gaussian 16 at Thu May  6 14:27:53 2021.
