 Gaussian 16, Revision A.03,
 Gaussian 16:  EM64L-G16RevA.03 25-Dec-2016

 -------------
 #p 6-31g* mp2
 -------------

 ------------------------------------------------------
 Input file generated by CHIRIPA (05-May-2021 14:57:22)
 ------------------------------------------------------
 Symbolic Z-matrix:
 Charge =  0 Multiplicity = 1

                         Standard orientation:
 ---------------------------------------------------------------------
 Center     Atomic      Atomic             Coordinates (Angstroms)
 Number     Number       Type             X           Y           Z
 ---------------------------------------------------------------------
      1          6           0        3.278469    2.405436    0.458930
      2          6           0        2.421482    1.724307   -0.411791
      3          6           0        2.580446    0.353638   -0.636615
      4          6           0        3.611560   -0.307571    0.028890
      5          6           0        4.481606    0.343112    0.902344
      6          6           0        4.303988    1.713884    1.112067
      7          1           0        3.147737    3.470244    0.627714
      8          1           0        1.624184    2.258803   -0.920392
      9          1           0        1.931297   -0.198326   -1.305464
     10          1           0        5.267266   -0.216796    1.394949
     11          1           0        4.971035    2.240274    1.788830
     12          7           0        3.789722   -1.758691   -0.201128
     13          8           0        4.705839   -2.318341    0.397334
     14          8           0        3.009874   -2.308952   -0.975523
     15          6           0       -1.719489    1.516464   -0.960879
     16          6           0       -2.894123    2.104510   -0.480299
     17          6           0       -3.932741    1.311971    0.017401
     18          6           0       -3.762276   -0.071584    0.019636
     19          6           0       -2.604009   -0.687230   -0.452262
     20          6           0       -1.578429    0.124925   -0.945354
     21          1           0       -0.917730    2.139746   -1.345714
     22          1           0       -3.006440    3.184933   -0.491131
     23          1           0       -4.852736    1.740957    0.395552
     24          1           0       -2.521209   -1.767044   -0.428568
     25          1           0       -0.667307   -0.334512   -1.317940
     26          7           0       -4.854913   -0.920992    0.544090
     27          8           0       -4.680113   -2.137545    0.535171
     28          8           0       -5.865433   -0.354121    0.954144
 ---------------------------------------------------------------------

 SCF Done:  E(RHF) =  -868.335972586     A.U. after   16 cycles
 E2 =    -0.2600698454D+01 EUMP2 =    -0.87093667104035D+03

 The electronic state is 1-A.
 Alpha  occ. eigenvalues --  -20.61459 -20.61434 -20.60963 -20.60950 -15.86509
 Alpha  occ. eigenvalues --  -15.86017 -11.31994 -11.31521 -11.28701 -11.28509
 Alpha  occ. eigenvalues --  -11.28320 -11.28112 -11.28071 -11.28034 -11.27740
 Alpha  occ. eigenvalues --  -11.27532 -11.27221 -11.27210  -1.60519  -1.60031
 Alpha  occ. eigenvalues --   -1.40073  -1.39580  -1.20176  -1.19726  -1.09540
 Alpha  occ. eigenvalues --   -1.09132  -1.05623  -1.05138  -0.96360  -0.95934
 Alpha  occ. eigenvalues --   -0.87013  -0.86560  -0.83210  -0.82749  -0.78258
 Alpha  occ. eigenvalues --   -0.77737  -0.72725  -0.72235  -0.71842  -0.71355
 Alpha  occ. eigenvalues --   -0.71295  -0.70935  -0.65844  -0.65661  -0.65393
 Alpha  occ. eigenvalues --   -0.65193  -0.63015  -0.62426  -0.56098  -0.55795
 Alpha  occ. eigenvalues --   -0.53911  -0.53734  -0.53458  -0.53206  -0.49493
 Alpha  occ. eigenvalues --   -0.49473  -0.49007  -0.48977  -0.45453  -0.44954
 Alpha  occ. eigenvalues --   -0.38131  -0.37791  -0.37191  -0.36706
 Alpha virt. eigenvalues --    0.04311   0.04776   0.10409   0.10905   0.15738
 Alpha virt. eigenvalues --    0.16191   0.17336   0.22336   0.23908   0.24878
 Alpha virt. eigenvalues --    0.27984   0.28840   0.30650   0.31401   0.33333

 Mulliken charges:
               1
     1  C   -0.170493
     2  C   -0.217939
     3  C   -0.174883
     4  C    0.160510
     5  C   -0.169060
     6  C   -0.217703
     7  H    0.227427
     8  H    0.216108
     9  H    0.271302
    10  H    0.278687
    11  H    0.226789
    12  N    0.488148
    13  O   -0.456302
    14  O   -0.462272
    15  C   -0.173075
    16  C   -0.218540
    17  C   -0.170329
    18  C    0.159341
    19  C   -0.170459
    20  C   -0.220601
    21  H    0.216750
    22  H    0.222905
    23  H    0.276762
    24  H    0.281395
    25  H    0.225123
    26  N    0.487796
    27  O   -0.457353
    28  O   -0.460034
 Sum of Mulliken charges =  -0.00000

 Dipole moment (field-independent basis, Debye):
    X=              3.3137    Y=              7.9653    Z=             -0.8321  Tot=              8.6671
 Quadrupole moment (field-independent basis, Debye-Ang):
   XX=           -132.7982   YY=           -105.7778   ZZ=           -104.1020
   XY=              4.9066   XZ=             12.6257   YZ=              1.2331

 Normal termination of Gaussian 16 at Fri May  7 00:13:01 2021.
