 Gaussian 16, Revision A.03,
 Gaussian 16:  EM64L-G16RevA.03 25-Dec-2016

 -------------
 #p 6-31g* mp2
 -------------

 ------------------------------------------------------
 Input file generated by CHIRIPA (05-May-2021 14:53:17)
 ------------------------------------------------------
 Symbolic Z-matrix:
 Charge =  0 Multiplicity = 1

                         Standard orientation:
 ---------------------------------------------------------------------
 Center     Atomic      Atomic             Coordinates (Angstroms)
 Number     Number       Type             X           Y           Z
 ---------------------------------------------------------------------
      1          6           0       -2.794830    1.229800   -0.013234
      2          6           0       -2.081139    1.873781    1.175850
      3          6           0       -1.619219    3.302058    0.885246
      4          1           0       -2.120888    1.229357   -0.880844
      5          1           0       -3.660695    1.846957   -0.290346
      6          1           0       -1.217680    1.254860    1.451515
      7          1           0       -2.756790    1.872519    2.040783
      8          1           0       -2.472827    3.938889    0.631473
      9          1           0       -0.924972    3.317720    0.038856
     10          1           0       -1.111576    3.743322    1.748637
     11          6           0       -3.262578   -0.198223    0.261879
     12          6           0       -3.976270   -0.842204   -0.927204
     13          6           0       -4.438189   -2.270481   -0.636601
     14          1           0       -2.396714   -0.815380    0.538991
     15          1           0       -3.936520   -0.197780    1.129489
     16          1           0       -3.300618   -0.840942   -1.792137
     17          1           0       -4.839728   -0.223283   -1.202869
     18          1           0       -5.132436   -2.286143    0.209789
     19          1           0       -3.584581   -2.907312   -0.382827
     20          1           0       -4.945833   -2.711745   -1.499992
     21          6           0        1.571721   -2.654189    0.719411
     22          6           0        0.664158   -1.757182    0.146500
     23          6           0        1.093175   -0.507110   -0.309363
     24          6           0        2.442980   -0.185319   -0.176067
     25          6           0        3.371482   -1.057366    0.390244
     26          6           0        2.920110   -2.302039    0.839243
     27          1           0        1.229767   -3.623178    1.070871
     28          1           0       -0.383609   -2.027977    0.052151
     29          1           0        0.411988    0.206439   -0.756859
     30          1           0        4.409737   -0.759098    0.470744
     31          1           0        3.627181   -2.996663    1.283758
     32          7           0        2.908995    1.135218   -0.655036
     33          8           0        4.103417    1.394801   -0.526161
     34          8           0        2.071011    1.885667   -1.150258
 ---------------------------------------------------------------------

 SCF Done:  E(RHF) =  -669.535516911     A.U. after   15 cycles
 E2 =    -0.2093118423D+01 EUMP2 =    -0.67162863533380D+03

 The electronic state is 1-A.
 Alpha  occ. eigenvalues --  -20.60837 -20.60831 -15.85884 -11.31237 -11.27808
 Alpha  occ. eigenvalues --  -11.27803 -11.27540 -11.26819 -11.26799 -11.22243
 Alpha  occ. eigenvalues --  -11.22077 -11.21821 -11.21772 -11.21731 -11.20813
 Alpha  occ. eigenvalues --   -1.59905  -1.39460  -1.19411  -1.08934  -1.08804
 Alpha  occ. eigenvalues --   -1.04814  -1.03889  -0.96335  -0.95642  -0.87343
 Alpha  occ. eigenvalues --   -0.86211  -0.82480  -0.79978  -0.78713  -0.77530
 Alpha  occ. eigenvalues --   -0.72104  -0.71224  -0.70525  -0.65663  -0.65052
 Alpha  occ. eigenvalues --   -0.64831  -0.62125  -0.61278  -0.59734  -0.57930
 Alpha  occ. eigenvalues --   -0.55649  -0.55294  -0.53144  -0.52975  -0.52943
 Alpha  occ. eigenvalues --   -0.52725  -0.50264  -0.48862  -0.48857  -0.48262
 Alpha  occ. eigenvalues --   -0.47033  -0.46222  -0.46164  -0.44862  -0.44174
 Alpha  occ. eigenvalues --   -0.37385  -0.36397
 Alpha virt. eigenvalues --    0.04964   0.11190   0.16369   0.18287   0.22460
 Alpha virt. eigenvalues --    0.23262   0.25364   0.26167   0.27568   0.28430
 Alpha virt. eigenvalues --    0.29787   0.30445   0.31415   0.31703   0.32786

 Mulliken charges:
               1
     1  C   -0.302317
     2  C   -0.302281
     3  C   -0.479838
     4  H    0.148678
     5  H    0.154392
     6  H    0.150192
     7  H    0.151874
     8  H    0.153757
     9  H    0.169336
    10  H    0.161984
    11  C   -0.302728
    12  C   -0.300745
    13  C   -0.474708
    14  H    0.140537
    15  H    0.153948
    16  H    0.150798
    17  H    0.156827
    18  H    0.157906
    19  H    0.147143
    20  H    0.163609
    21  C   -0.170985
    22  C   -0.224643
    23  C   -0.175667
    24  C    0.157907
    25  C   -0.170306
    26  C   -0.218547
    27  H    0.226285
    28  H    0.229684
    29  H    0.281213
    30  H    0.275809
    31  H    0.223726
    32  N    0.488275
    33  O   -0.459710
    34  O   -0.461404
 Sum of Mulliken charges =  -0.00000

 Dipole moment (field-independent basis, Debye):
    X=             -1.6842    Y=             -4.5195    Z=              1.6710  Tot=              5.1044
 Quadrupole moment (field-independent basis, Debye-Ang):
   XX=            -97.1571   YY=            -93.9736   ZZ=            -95.6465
   XY=            -13.2888   XZ=              5.8566   YZ=              0.2288

 Normal termination of Gaussian 16 at Thu May  6 20:32:51 2021.
