 Gaussian 16, Revision A.03,
 Gaussian 16:  EM64L-G16RevA.03 25-Dec-2016

 -------------
 #p 6-31g* mp2
 -------------

 ------------------------------------------------------
 Input file generated by CHIRIPA (05-May-2021 14:53:12)
 ------------------------------------------------------
 Symbolic Z-matrix:
 Charge =  0 Multiplicity = 1

                         Standard orientation:
 ---------------------------------------------------------------------
 Center     Atomic      Atomic             Coordinates (Angstroms)
 Number     Number       Type             X           Y           Z
 ---------------------------------------------------------------------
      1          6           0        2.345206    1.015232    0.179831
      2          6           0        2.362459    2.440067   -0.374724
      3          6           0        1.675399    3.443481    0.552047
      4          1           0        1.304389    0.707055    0.349159
      5          1           0        2.837799    1.005501    1.161999
      6          1           0        1.871207    2.446851   -1.356173
      7          1           0        3.403347    2.744818   -0.542932
      8          1           0        2.169055    3.466206    1.528975
      9          1           0        0.628209    3.166546    0.711113
     10          1           0        1.699264    4.455608    0.136247
     11          6           0        3.028320    0.000624   -0.735403
     12          6           0        3.011067   -1.424211   -0.180847
     13          6           0        3.698127   -2.427625   -1.107618
     14          1           0        2.535728    0.010355   -1.717571
     15          1           0        4.069137    0.308801   -0.904731
     16          1           0        1.970179   -1.728962   -0.012640
     17          1           0        3.502319   -1.430995    0.800601
     18          1           0        4.745317   -2.150690   -1.266684
     19          1           0        3.204471   -2.450350   -2.084546
     20          1           0        3.674262   -3.439752   -0.691819
     21          6           0       -3.660717    0.895837   -1.285015
     22          6           0       -2.983703    1.549738   -0.250324
     23          6           0       -2.115982    0.843530    0.588055
     24          6           0       -1.948056   -0.521788    0.362231
     25          6           0       -2.608297   -1.201606   -0.660128
     26          6           0       -3.471188   -0.475331   -1.486260
     27          1           0       -4.332908    1.452229   -1.931531
     28          1           0       -3.128960    2.614530   -0.091694
     29          1           0       -1.579255    1.324772    1.396603
     30          1           0       -2.443124   -2.263832   -0.793585
     31          1           0       -3.995645   -0.985779   -2.289025
     32          7           0       -1.031996   -1.280040    1.243303
     33          8           0       -0.901254   -2.482221    1.023521
     34          8           0       -0.462075   -0.657819    2.136985
 ---------------------------------------------------------------------

 SCF Done:  E(RHF) =  -669.536145844     A.U. after   15 cycles
 E2 =    -0.2093474157D+01 EUMP2 =    -0.67162962000087D+03

 The electronic state is 1-A.
 Alpha  occ. eigenvalues --  -20.61021 -20.61014 -15.86012 -11.31342 -11.27898
 Alpha  occ. eigenvalues --  -11.27895 -11.27628 -11.26905 -11.26894 -11.21308
 Alpha  occ. eigenvalues --  -11.21027 -11.20767 -11.20698 -11.20644 -11.20333
 Alpha  occ. eigenvalues --   -1.60063  -1.39619  -1.19508  -1.08911  -1.07842
 Alpha  occ. eigenvalues --   -1.04899  -1.02997  -0.95752  -0.95477  -0.86505
 Alpha  occ. eigenvalues --   -0.86299  -0.82585  -0.79057  -0.77701  -0.77532
 Alpha  occ. eigenvalues --   -0.72239  -0.71383  -0.70610  -0.65160  -0.64901
 Alpha  occ. eigenvalues --   -0.64479  -0.62247  -0.60409  -0.58856  -0.57051
 Alpha  occ. eigenvalues --   -0.55401  -0.54797  -0.53229  -0.52987  -0.52196
 Alpha  occ. eigenvalues --   -0.51903  -0.49477  -0.49015  -0.49002  -0.47386
 Alpha  occ. eigenvalues --   -0.46171  -0.45305  -0.45079  -0.44643  -0.43225
 Alpha  occ. eigenvalues --   -0.37479  -0.36490
 Alpha virt. eigenvalues --    0.04841   0.11060   0.16307   0.20669   0.23204
 Alpha virt. eigenvalues --    0.24358   0.26101   0.27268   0.27716   0.28169
 Alpha virt. eigenvalues --    0.29181   0.30971   0.31225   0.32139   0.32484

 Mulliken charges:
               1
     1  C   -0.299396
     2  C   -0.299367
     3  C   -0.473353
     4  H    0.151869
     5  H    0.153928
     6  H    0.148150
     7  H    0.151534
     8  H    0.158856
     9  H    0.145266
    10  H    0.157409
    11  C   -0.299375
    12  C   -0.301919
    13  C   -0.475225
    14  H    0.144268
    15  H    0.146764
    16  H    0.162342
    17  H    0.154991
    18  H    0.151544
    19  H    0.150754
    20  H    0.162587
    21  C   -0.170511
    22  C   -0.218853
    23  C   -0.173797
    24  C    0.158197
    25  C   -0.170886
    26  C   -0.218419
    27  H    0.226345
    28  H    0.224619
    29  H    0.278174
    30  H    0.276012
    31  H    0.224117
    32  N    0.487528
    33  O   -0.458674
    34  O   -0.455479
 Sum of Mulliken charges =  -0.00000

 Dipole moment (field-independent basis, Debye):
    X=             -3.3686    Y=              2.5279    Z=             -2.9464  Tot=              5.1400
 Quadrupole moment (field-independent basis, Debye-Ang):
   XX=            -82.1066   YY=            -95.2474   ZZ=            -96.3953
   XY=             -2.1869   XZ=              6.8775   YZ=              4.5779

 Normal termination of Gaussian 16 at Thu May  6 04:06:14 2021.
