 Gaussian 16, Revision A.03,
 Gaussian 16:  EM64L-G16RevA.03 25-Dec-2016

 -------------
 #p 6-31g* mp2
 -------------

 ------------------------------------------------------
 Input file generated by CHIRIPA (05-May-2021 14:57:21)
 ------------------------------------------------------
 Symbolic Z-matrix:
 Charge =  0 Multiplicity = 1

                         Standard orientation:
 ---------------------------------------------------------------------
 Center     Atomic      Atomic             Coordinates (Angstroms)
 Number     Number       Type             X           Y           Z
 ---------------------------------------------------------------------
      1          6           0        2.764806    2.528017    0.253116
      2          6           0        2.572751    1.833875   -0.945968
      3          6           0        2.745686    0.447589   -0.999396
      4          6           0        3.112580   -0.215796    0.170475
      5          6           0        3.311306    0.447606    1.380308
      6          6           0        3.132821    1.833891    1.410387
      7          1           0        2.628311    3.604917    0.285552
      8          1           0        2.286924    2.370335   -1.846278
      9          1           0        2.603513   -0.114666   -1.914314
     10          1           0        3.596007   -0.114637    2.261356
     11          1           0        3.282656    2.370364    2.343013
     12          7           0        3.298595   -1.683394    0.126272
     13          8           0        3.622019   -2.244644    1.170797
     14          8           0        3.117448   -2.244659   -0.952062
     15          6           0       -0.869493    0.293880   -1.347677
     16          6           0       -1.608202    1.406113   -0.930823
     17          6           0       -2.835314    1.240728   -0.281676
     18          6           0       -3.295811   -0.057014   -0.064657
     19          6           0       -2.583048   -1.185079   -0.468051
     20          6           0       -1.358412   -0.995893   -1.115370
     21          1           0        0.082796    0.431600   -1.851240
     22          1           0       -1.230964    2.408942   -1.109901
     23          1           0       -3.427695    2.084204    0.051564
     24          1           0       -2.985044   -2.172363   -0.275470
     25          1           0       -0.786868   -1.861510   -1.438001
     26          7           0       -4.593590   -0.244699    0.621599
     27          8           0       -4.977382   -1.398469    0.800917
     28          8           0       -5.202421    0.765517    0.967176
 ---------------------------------------------------------------------

 SCF Done:  E(RHF) =  -868.336223408     A.U. after   16 cycles
 E2 =    -0.2602041607D+01 EUMP2 =    -0.87093826501548D+03

 The electronic state is 1-A.
 Alpha  occ. eigenvalues --  -20.61706 -20.61663 -20.60774 -20.60761 -15.86742
 Alpha  occ. eigenvalues --  -15.85824 -11.32196 -11.31193 -11.28874 -11.28699
 Alpha  occ. eigenvalues --  -11.28502 -11.27882 -11.27817 -11.27722 -11.27704
 Alpha  occ. eigenvalues --  -11.27499 -11.26867 -11.26686  -1.60758  -1.59846
 Alpha  occ. eigenvalues --   -1.40312  -1.39399  -1.20382  -1.19374  -1.09741
 Alpha  occ. eigenvalues --   -1.08777  -1.05823  -1.04776  -0.96574  -0.95609
 Alpha  occ. eigenvalues --   -0.87197  -0.86175  -0.83425  -0.82437  -0.78461
 Alpha  occ. eigenvalues --   -0.77474  -0.72958  -0.72088  -0.72041  -0.71519
 Alpha  occ. eigenvalues --   -0.71170  -0.70517  -0.66034  -0.65811  -0.65025
 Alpha  occ. eigenvalues --   -0.64791  -0.63158  -0.62119  -0.56274  -0.55508
 Alpha  occ. eigenvalues --   -0.53978  -0.53881  -0.53062  -0.52863  -0.49725
 Alpha  occ. eigenvalues --   -0.49704  -0.48803  -0.48795  -0.45699  -0.44803
 Alpha  occ. eigenvalues --   -0.38337  -0.37750  -0.36964  -0.36377
 Alpha virt. eigenvalues --    0.04026   0.05088   0.10091   0.11325   0.15414
 Alpha virt. eigenvalues --    0.16561   0.19325   0.22115   0.25548   0.26257
 Alpha virt. eigenvalues --    0.27751   0.29859   0.29945   0.30828   0.32535

 Mulliken charges:
               1
     1  C   -0.169824
     2  C   -0.221654
     3  C   -0.179205
     4  C    0.162131
     5  C   -0.168682
     6  C   -0.216793
     7  H    0.228270
     8  H    0.221562
     9  H    0.272271
    10  H    0.279650
    11  H    0.228190
    12  N    0.487989
    13  O   -0.454837
    14  O   -0.463979
    15  C   -0.164382
    16  C   -0.219578
    17  C   -0.171434
    18  C    0.158133
    19  C   -0.170139
    20  C   -0.223387
    21  H    0.218387
    22  H    0.215737
    23  H    0.274050
    24  H    0.277733
    25  H    0.232573
    26  N    0.488024
    27  O   -0.459053
    28  O   -0.461752
 Sum of Mulliken charges =  -0.00000

 Dipole moment (field-independent basis, Debye):
    X=              4.1502    Y=              5.7257    Z=             -1.9816  Tot=              7.3440
 Quadrupole moment (field-independent basis, Debye-Ang):
   XX=           -139.7158   YY=           -102.5672   ZZ=           -100.5092
   XY=             13.6995   XZ=             10.0198   YZ=              1.6658

 Normal termination of Gaussian 16 at Thu May  6 00:09:15 2021.
