 Gaussian 16, Revision A.03,
 Gaussian 16:  EM64L-G16RevA.03 25-Dec-2016

 -------------
 #p 6-31g* mp2
 -------------

 ------------------------------------------------------
 Input file generated by CHIRIPA (05-May-2021 14:51:10)
 ------------------------------------------------------
 Symbolic Z-matrix:
 Charge =  0 Multiplicity = 1

                         Standard orientation:
 ---------------------------------------------------------------------
 Center     Atomic      Atomic             Coordinates (Angstroms)
 Number     Number       Type             X           Y           Z
 ---------------------------------------------------------------------
      1          6           0       -2.824138    0.958993   -0.480835
      2          6           0       -2.168193    1.728131    0.666400
      3          6           0       -1.148926    2.758998    0.180394
      4          1           0       -2.044703    0.456566   -1.069896
      5          1           0       -3.316121    1.671902   -1.156934
      6          1           0       -1.678771    1.013875    1.340878
      7          1           0       -2.949296    2.228630    1.252911
      8          1           0       -1.626932    3.493783   -0.475503
      9          1           0       -0.349189    2.272126   -0.387036
     10          1           0       -0.692232    3.297229    1.016814
     11          6           0       -3.845521   -0.075251   -0.010896
     12          6           0       -4.501466   -0.844388   -1.158131
     13          6           0       -5.520733   -1.875256   -0.672126
     14          1           0       -3.353538   -0.788160    0.665202
     15          1           0       -4.624957    0.427177    0.578164
     16          1           0       -3.720364   -1.344887   -1.744642
     17          1           0       -4.990888   -0.130132   -1.832609
     18          1           0       -6.320470   -1.388384   -0.104695
     19          1           0       -5.042727   -2.610041   -0.016228
     20          1           0       -5.977428   -2.413487   -1.508545
     21          6           0        4.071762   -0.571516    0.092393
     22          6           0        4.566349    0.151143   -1.161055
     23          6           0        6.042476   -0.118066   -1.454944
     24          1           0        4.680968   -0.260019    0.951918
     25          1           0        4.231369   -1.651912   -0.028702
     26          1           0        4.404587    1.229733   -1.038203
     27          1           0        3.955771   -0.161966   -2.017662
     28          1           0        6.216614   -1.188626   -1.603860
     29          1           0        6.667980    0.210980   -0.618837
     30          1           0        6.375077    0.408193   -2.355103
     31          6           0        2.597897   -0.312226    0.399338
     32          6           0        2.103311   -1.034885    1.652787
     33          6           0        0.627183   -0.765677    1.946675
     34          1           0        2.438290    0.768170    0.520433
     35          1           0        1.988691   -0.623724   -0.460187
     36          1           0        2.713888   -0.721776    2.509393
     37          1           0        2.265073   -2.113476    1.529934
     38          1           0        0.001679   -1.094723    1.110568
     39          1           0        0.453045    0.304884    2.095592
     40          1           0        0.294582   -1.291936    2.846835
 ---------------------------------------------------------------------

 SCF Done:  E(RHF) =  -470.732922163     A.U. after   11 cycles
 E2 =    -0.1583390185D+01 EUMP2 =    -0.47231631234773D+03

 The electronic state is 1-A.
 Alpha  occ. eigenvalues --  -11.21665 -11.21627 -11.21568 -11.21454 -11.21423
 Alpha  occ. eigenvalues --  -11.21391 -11.21339 -11.21277 -11.21151 -11.21089
 Alpha  occ. eigenvalues --  -11.21045 -11.21004  -1.08481  -1.08357  -1.03596
 Alpha  occ. eigenvalues --   -1.03449  -0.96043  -0.95918  -0.87070  -0.86928
 Alpha  occ. eigenvalues --   -0.79699  -0.79486  -0.78300  -0.78160  -0.65109
 Alpha  occ. eigenvalues --   -0.65003  -0.61029  -0.60851  -0.59394  -0.59295
 Alpha  occ. eigenvalues --   -0.57672  -0.57497  -0.55380  -0.55155  -0.52737
 Alpha  occ. eigenvalues --   -0.52620  -0.52480  -0.52343  -0.49985  -0.49848
 Alpha  occ. eigenvalues --   -0.48117  -0.47739  -0.46704  -0.46476  -0.45920
 Alpha  occ. eigenvalues --   -0.45756  -0.45678  -0.45481  -0.43834  -0.43718
 Alpha virt. eigenvalues --    0.20838   0.22948   0.23591   0.25118   0.25650
 Alpha virt. eigenvalues --    0.26348   0.26647   0.27677   0.28274   0.29417
 Alpha virt. eigenvalues --    0.30673   0.31177   0.31693   0.31943   0.32184

 Mulliken charges:
               1
     1  C   -0.297851
     2  C   -0.307394
     3  C   -0.477272
     4  H    0.148864
     5  H    0.149079
     6  H    0.162690
     7  H    0.150821
     8  H    0.155000
     9  H    0.156670
    10  H    0.158679
    11  C   -0.299052
    12  C   -0.299488
    13  C   -0.475660
    14  H    0.150115
    15  H    0.149633
    16  H    0.151442
    17  H    0.151885
    18  H    0.155182
    19  H    0.155115
    20  H    0.160057
    21  C   -0.298302
    22  C   -0.299760
    23  C   -0.475741
    24  H    0.149851
    25  H    0.149616
    26  H    0.152240
    27  H    0.151888
    28  H    0.155183
    29  H    0.155252
    30  H    0.160412
    31  C   -0.299472
    32  C   -0.299966
    33  C   -0.480290
    34  H    0.151089
    35  H    0.149029
    36  H    0.152332
    37  H    0.152034
    38  H    0.155579
    39  H    0.159836
    40  H    0.160676
 Sum of Mulliken charges =  -0.00000

 Dipole moment (field-independent basis, Debye):
    X=              0.0478    Y=             -0.0187    Z=              0.0337  Tot=              0.0614
 Quadrupole moment (field-independent basis, Debye-Ang):
   XX=            -85.9249   YY=            -84.3719   ZZ=            -84.5771
   XY=             -0.7586   XZ=              0.6829   YZ=              0.5428

 Normal termination of Gaussian 16 at Thu May  6 05:22:05 2021.
