 Gaussian 16, Revision A.03,
 Gaussian 16:  EM64L-G16RevA.03 25-Dec-2016

 -------------
 #p 6-31g* mp2
 -------------

 ------------------------------------------------------
 Input file generated by CHIRIPA (05-May-2021 14:57:22)
 ------------------------------------------------------
 Symbolic Z-matrix:
 Charge =  0 Multiplicity = 1

                         Standard orientation:
 ---------------------------------------------------------------------
 Center     Atomic      Atomic             Coordinates (Angstroms)
 Number     Number       Type             X           Y           Z
 ---------------------------------------------------------------------
      1          6           0        2.305650   -2.251029    0.717460
      2          6           0        2.507515   -1.972655   -0.638372
      3          6           0        2.939197   -0.707187   -1.046769
      4          6           0        3.160340    0.260660   -0.068169
      5          6           0        2.968193    0.013964    1.290327
      6          6           0        2.536227   -1.258580    1.675793
      7          1           0        1.970199   -3.236824    1.025806
      8          1           0        2.329240   -2.741466   -1.384826
      9          1           0        3.103394   -0.464630   -2.089661
     10          1           0        3.154274    0.800774    2.011245
     11          1           0        2.380286   -1.471934    2.729457
     12          7           0        3.617493    1.604101   -0.488382
     13          8           0        3.805256    2.439534    0.393340
     14          8           0        3.779390    1.796218   -1.691510
     15          6           0       -4.524182    2.019518    0.235898
     16          6           0       -3.256148    1.980255    0.825024
     17          6           0       -2.450108    0.844796    0.700203
     18          6           0       -2.945860   -0.238279   -0.023998
     19          6           0       -4.204820   -0.229582   -0.622525
     20          6           0       -4.993643    0.916419   -0.484727
     21          1           0       -5.143645    2.905664    0.337902
     22          1           0       -2.888966    2.835460    1.385246
     23          1           0       -1.464544    0.787557    1.146079
     24          1           0       -4.543540   -1.097656   -1.174915
     25          1           0       -5.978007    0.944097   -0.943319
     26          7           0       -2.101656   -1.445918   -0.163011
     27          8           0       -2.561466   -2.386968   -0.806156
     28          8           0       -0.996143   -1.428549    0.373809
 ---------------------------------------------------------------------

 SCF Done:  E(RHF) =  -868.339073370     A.U. after   16 cycles
 E2 =    -0.2599547922D+01 EUMP2 =    -0.87093862129251D+03

 The electronic state is 1-A.
 Alpha  occ. eigenvalues --  -20.61228 -20.61220 -20.60179 -20.60164 -15.86253
 Alpha  occ. eigenvalues --  -15.85219 -11.31435 -11.30248 -11.27989 -11.27970
 Alpha  occ. eigenvalues --  -11.27683 -11.26960 -11.26932 -11.26854 -11.26778
 Alpha  occ. eigenvalues --  -11.26383 -11.25730 -11.25631  -1.60303  -1.59261
 Alpha  occ. eigenvalues --   -1.39859  -1.38824  -1.19590  -1.18378  -1.09022
 Alpha  occ. eigenvalues --   -1.07803  -1.04963  -1.03758  -0.95890  -0.94709
 Alpha  occ. eigenvalues --   -0.86370  -0.85163  -0.82726  -0.81579  -0.77795
 Alpha  occ. eigenvalues --   -0.76691  -0.72502  -0.71612  -0.71447  -0.70695
 Alpha  occ. eigenvalues --   -0.70586  -0.69465  -0.65245  -0.64962  -0.64038
 Alpha  occ. eigenvalues --   -0.63769  -0.62312  -0.61148  -0.55470  -0.54201
 Alpha  occ. eigenvalues --   -0.53304  -0.53051  -0.52050  -0.51866  -0.49261
 Alpha  occ. eigenvalues --   -0.49233  -0.48218  -0.48170  -0.45303  -0.44307
 Alpha  occ. eigenvalues --   -0.37560  -0.36558  -0.36184  -0.35348
 Alpha virt. eigenvalues --    0.04720   0.05861   0.11100   0.12329   0.16264
 Alpha virt. eigenvalues --    0.17479   0.21264   0.22419   0.27182   0.28114
 Alpha virt. eigenvalues --    0.28251   0.29319   0.30834   0.31988   0.32311

 Mulliken charges:
               1
     1  C   -0.149320
     2  C   -0.212011
     3  C   -0.172892
     4  C    0.156217
     5  C   -0.175643
     6  C   -0.217415
     7  H    0.228085
     8  H    0.223796
     9  H    0.271720
    10  H    0.269237
    11  H    0.219081
    12  N    0.487916
    13  O   -0.465961
    14  O   -0.463109
    15  C   -0.170063
    16  C   -0.218175
    17  C   -0.170528
    18  C    0.157516
    19  C   -0.170860
    20  C   -0.218519
    21  H    0.227182
    22  H    0.226064
    23  H    0.275629
    24  H    0.275083
    25  H    0.224183
    26  N    0.490758
    27  O   -0.462482
    28  O   -0.465488
 Sum of Mulliken charges =  -0.00000

 Dipole moment (field-independent basis, Debye):
    X=             -4.8860    Y=             -0.7195    Z=              1.9762  Tot=              5.3194
 Quadrupole moment (field-independent basis, Debye-Ang):
   XX=            -96.7981   YY=           -108.6228   ZZ=            -99.8949
   XY=            -26.7503   XZ=              5.6934   YZ=              3.4743

 Normal termination of Gaussian 16 at Thu May  6 22:38:26 2021.
