 Gaussian 16, Revision A.03,
 Gaussian 16:  EM64L-G16RevA.03 25-Dec-2016

 -------------
 #p 6-31g* mp2
 -------------

 ------------------------------------------------------
 Input file generated by CHIRIPA (05-May-2021 14:57:24)
 ------------------------------------------------------
 Symbolic Z-matrix:
 Charge =  0 Multiplicity = 1

                         Standard orientation:
 ---------------------------------------------------------------------
 Center     Atomic      Atomic             Coordinates (Angstroms)
 Number     Number       Type             X           Y           Z
 ---------------------------------------------------------------------
      1          6           0        1.654769   -0.267887    0.629473
      2          6           0        2.250740    0.971479    0.373911
      3          6           0        3.614402    1.055947    0.077537
      4          6           0        4.355517   -0.124299    0.044984
      5          6           0        3.790669   -1.373977    0.295064
      6          6           0        2.425277   -1.434602    0.589304
      7          1           0        0.594771   -0.324243    0.858874
      8          1           0        1.654810    1.879214    0.404416
      9          1           0        4.101312    2.002304   -0.124318
     10          1           0        4.410607   -2.261487    0.257377
     11          1           0        1.965113   -2.398485    0.787356
     12          7           0        5.800081   -0.047497   -0.267645
     13          8           0        6.431150   -1.101955   -0.290180
     14          8           0        6.273909    1.065704   -0.484229
     15          6           0       -5.638936   -1.875311   -0.138272
     16          6           0       -6.169534   -0.601132    0.088567
     17          6           0       -5.335934    0.520929    0.113840
     18          6           0       -3.970343    0.331495   -0.092471
     19          6           0       -3.411610   -0.925053   -0.320930
     20          6           0       -4.264090   -2.032926   -0.341937
     21          1           0       -6.293829   -2.741444   -0.156248
     22          1           0       -7.236868   -0.475729    0.247050
     23          1           0       -5.720160    1.518779    0.287286
     24          1           0       -2.343544   -1.018488   -0.475605
     25          1           0       -3.849238   -3.021273   -0.518330
     26          7           0       -3.077854    1.511861   -0.067973
     27          8           0       -1.878222    1.318313   -0.252527
     28          8           0       -3.594852    2.608229    0.135317
 ---------------------------------------------------------------------

 SCF Done:  E(RHF) =  -868.339619399     A.U. after   16 cycles
 E2 =    -0.2598677890D+01 EUMP2 =    -0.87093829728891D+03

 The electronic state is 1-A.
 Alpha  occ. eigenvalues --  -20.61895 -20.61825 -20.60279 -20.60267 -15.86896
 Alpha  occ. eigenvalues --  -15.85323 -11.32060 -11.30562 -11.28653 -11.28560
 Alpha  occ. eigenvalues --  -11.28272 -11.27579 -11.27527 -11.27168 -11.27048
 Alpha  occ. eigenvalues --  -11.26729 -11.26171 -11.25914  -1.60918  -1.59354
 Alpha  occ. eigenvalues --   -1.40483  -1.38911  -1.20205  -1.18706  -1.09629
 Alpha  occ. eigenvalues --   -1.08105  -1.05581  -1.04088  -0.96503  -0.94967
 Alpha  occ. eigenvalues --   -0.86986  -0.85474  -0.83348  -0.81807  -0.78427
 Alpha  occ. eigenvalues --   -0.76888  -0.73132  -0.72223  -0.71543  -0.71307
 Alpha  occ. eigenvalues --   -0.70676  -0.69758  -0.65861  -0.65576  -0.64345
 Alpha  occ. eigenvalues --   -0.64059  -0.62939  -0.61432  -0.56068  -0.54526
 Alpha  occ. eigenvalues --   -0.53912  -0.53667  -0.52431  -0.52156  -0.49890
 Alpha  occ. eigenvalues --   -0.49845  -0.48307  -0.48288  -0.45928  -0.44346
 Alpha  occ. eigenvalues --   -0.38157  -0.37174  -0.36658  -0.35699
 Alpha virt. eigenvalues --    0.04081   0.05631   0.10477   0.11960   0.15615
 Alpha virt. eigenvalues --    0.17150   0.20117   0.22064   0.25768   0.27012
 Alpha virt. eigenvalues --    0.28047   0.28883   0.30578   0.31108   0.33119

 Mulliken charges:
               1
     1  C   -0.174017
     2  C   -0.219774
     3  C   -0.172409
     4  C    0.157883
     5  C   -0.172084
     6  C   -0.219895
     7  H    0.233227
     8  H    0.237010
     9  H    0.274902
    10  H    0.272371
    11  H    0.216604
    12  N    0.488167
    13  O   -0.463106
    14  O   -0.461021
    15  C   -0.169813
    16  C   -0.218164
    17  C   -0.170123
    18  C    0.158680
    19  C   -0.172035
    20  C   -0.218134
    21  H    0.228559
    22  H    0.226452
    23  H    0.277460
    24  H    0.270618
    25  H    0.224746
    26  N    0.490786
    27  O   -0.472486
    28  O   -0.454402
 Sum of Mulliken charges =  -0.00000

 Dipole moment (field-independent basis, Debye):
    X=             -8.7813    Y=             -4.2574    Z=              1.0190  Tot=              9.8120
 Quadrupole moment (field-independent basis, Debye-Ang):
   XX=           -121.2648   YY=           -100.9834   ZZ=           -106.2806
   XY=             12.5618   XZ=              4.4134   YZ=              0.4255

 Normal termination of Gaussian 16 at Fri May  7 06:29:40 2021.
