 Gaussian 16, Revision A.03,
 Gaussian 16:  EM64L-G16RevA.03 25-Dec-2016

 -------------
 #p 6-31g* mp2
 -------------

 ------------------------------------------------------
 Input file generated by CHIRIPA (05-May-2021 14:57:26)
 ------------------------------------------------------
 Symbolic Z-matrix:
 Charge =  0 Multiplicity = 1

                         Standard orientation:
 ---------------------------------------------------------------------
 Center     Atomic      Atomic             Coordinates (Angstroms)
 Number     Number       Type             X           Y           Z
 ---------------------------------------------------------------------
      1          6           0       -4.728374   -1.519286   -0.182075
      2          6           0       -3.571338   -1.742858    0.571453
      3          6           0       -2.653794   -0.710272    0.786917
      4          6           0       -2.926068    0.539065    0.231656
      5          6           0       -4.069858    0.793074   -0.523667
      6          6           0       -4.973509   -0.254264   -0.726271
      7          1           0       -5.435748   -2.327153   -0.344458
      8          1           0       -3.378370   -2.724270    0.995291
      9          1           0       -1.750121   -0.855773    1.366246
     10          1           0       -4.234892    1.782149   -0.933437
     11          1           0       -5.871246   -0.077743   -1.311893
     12          7           0       -1.962059    1.640026    0.452951
     13          8           0       -2.225004    2.731613   -0.046984
     14          8           0       -0.961777    1.390526    1.122147
     15          6           0        5.211017    0.964471    0.117622
     16          6           0        4.074051    1.582559   -0.413224
     17          6           0        2.890607    0.859771   -0.590945
     18          6           0        2.879408   -0.485427   -0.225425
     19          6           0        3.995673   -1.129520    0.305977
     20          6           0        5.168274   -0.387213    0.474898
     21          1           0        6.126134    1.533531    0.252262
     22          1           0        4.104343    2.632154   -0.691573
     23          1           0        1.995827    1.313325   -0.999695
     24          1           0        3.934889   -2.177285    0.574136
     25          1           0        6.049730   -0.869843    0.887391
     26          7           0        1.632287   -1.260943   -0.408912
     27          8           0        1.648246   -2.444817   -0.079026
     28          8           0        0.662451   -0.670233   -0.879142
 ---------------------------------------------------------------------

 SCF Done:  E(RHF) =  -868.340116587     A.U. after   16 cycles
 E2 =    -0.2599585861D+01 EUMP2 =    -0.87093970244748D+03

 The electronic state is 1-A.
 Alpha  occ. eigenvalues --  -20.60534 -20.60459 -20.60018 -20.59966 -15.85523
 Alpha  occ. eigenvalues --  -15.85027 -11.30657 -11.30151 -11.27286 -11.27133
 Alpha  occ. eigenvalues --  -11.26986 -11.26810 -11.26660 -11.26527 -11.26261
 Alpha  occ. eigenvalues --  -11.26155 -11.25797 -11.25670  -1.59563  -1.59051
 Alpha  occ. eigenvalues --   -1.39119  -1.38612  -1.18830  -1.18336  -1.08282
 Alpha  occ. eigenvalues --   -1.07793  -1.04202  -1.03720  -0.95152  -0.94663
 Alpha  occ. eigenvalues --   -0.85616  -0.85139  -0.81997  -0.81515  -0.77053
 Alpha  occ. eigenvalues --   -0.76564  -0.71804  -0.71307  -0.70867  -0.70269
 Alpha  occ. eigenvalues --   -0.69958  -0.69499  -0.64498  -0.64222  -0.64018
 Alpha  occ. eigenvalues --   -0.63759  -0.61545  -0.61079  -0.54754  -0.54296
 Alpha  occ. eigenvalues --   -0.52546  -0.52303  -0.52045  -0.51838  -0.48531
 Alpha  occ. eigenvalues --   -0.48512  -0.48036  -0.48023  -0.44751  -0.43856
 Alpha  occ. eigenvalues --   -0.36823  -0.36326  -0.35786  -0.35282
 Alpha virt. eigenvalues --    0.05416   0.06032   0.11869   0.12366   0.16970
 Alpha virt. eigenvalues --    0.17503   0.21950   0.22359   0.27889   0.28272
 Alpha virt. eigenvalues --    0.28821   0.29237   0.31439   0.31879   0.33115

 Mulliken charges:
               1
     1  C   -0.170394
     2  C   -0.219107
     3  C   -0.154404
     4  C    0.159891
     5  C   -0.171591
     6  C   -0.219638
     7  H    0.222335
     8  H    0.223623
     9  H    0.277589
    10  H    0.271362
    11  H    0.219132
    12  N    0.490369
    13  O   -0.468137
    14  O   -0.461694
    15  C   -0.170255
    16  C   -0.219371
    17  C   -0.163782
    18  C    0.157720
    19  C   -0.171504
    20  C   -0.219335
    21  H    0.224219
    22  H    0.225003
    23  H    0.283053
    24  H    0.272395
    25  H    0.220998
    26  N    0.488738
    27  O   -0.468208
    28  O   -0.459010
 Sum of Mulliken charges =  -0.00000

 Dipole moment (field-independent basis, Debye):
    X=              1.1321    Y=             -1.1212    Z=             -0.1302  Tot=              1.5986
 Quadrupole moment (field-independent basis, Debye-Ang):
   XX=            -59.3951   YY=           -107.5672   ZZ=           -104.8434
   XY=             12.2135   XZ=              5.0718   YZ=             -6.0297

 Normal termination of Gaussian 16 at Fri May  7 00:28:27 2021.
