 Gaussian 16, Revision A.03,
 Gaussian 16:  EM64L-G16RevA.03 25-Dec-2016

 -------------
 #p 6-31g* mp2
 -------------

 ------------------------------------------------------
 Input file generated by CHIRIPA (05-May-2021 14:51:08)
 ------------------------------------------------------
 Symbolic Z-matrix:
 Charge =  0 Multiplicity = 1

                         Standard orientation:
 ---------------------------------------------------------------------
 Center     Atomic      Atomic             Coordinates (Angstroms)
 Number     Number       Type             X           Y           Z
 ---------------------------------------------------------------------
      1          6           0        3.933978    0.716897   -0.597935
      2          6           0        2.431477    0.712453   -0.314289
      3          6           0        1.713723    1.923662   -0.910607
      4          1           0        4.373789    1.639988   -0.196173
      5          1           0        4.094833    0.741229   -1.684641
      6          1           0        2.273504    0.686739    0.771529
      7          1           0        1.995224   -0.210824   -0.716604
      8          1           0        1.841799    1.950724   -1.997559
      9          1           0        2.121660    2.853387   -0.500971
     10          1           0        0.640775    1.900343   -0.695901
     11          6           0        4.665392   -0.487659   -0.008184
     12          6           0        6.167893   -0.483216   -0.291831
     13          6           0        6.885646   -1.694425    0.304487
     14          1           0        4.504537   -0.511992    1.078521
     15          1           0        4.225581   -1.410751   -0.409947
     16          1           0        6.604146    0.440062    0.110485
     17          1           0        6.325866   -0.457502   -1.377649
     18          1           0        6.477710   -2.624150   -0.105149
     19          1           0        6.757571   -1.721486    1.391440
     20          1           0        7.958594   -1.671105    0.089781
     21          6           0       -4.871312   -0.609095    0.192754
     22          6           0       -5.866803   -0.156537   -0.875972
     23          6           0       -7.004616   -1.156229   -1.085227
     24          1           0       -4.455789   -1.585364   -0.092173
     25          1           0       -5.405729   -0.761474    1.140685
     26          1           0       -5.330431   -0.003723   -1.821261
     27          1           0       -6.279862    0.818858   -0.588564
     28          1           0       -7.565145   -1.301930   -0.156152
     29          1           0       -6.610319   -2.129185   -1.395853
     30          1           0       -7.704507   -0.812866   -1.853415
     31          6           0       -3.728057    0.379857    0.413367
     32          6           0       -2.732568   -0.072701    1.482092
     33          6           0       -1.594753    0.926993    1.691347
     34          1           0       -3.193640    0.532236   -0.534565
     35          1           0       -4.143581    1.356126    0.698293
     36          1           0       -2.319508   -1.048095    1.194684
     37          1           0       -3.268939   -0.225514    2.427381
     38          1           0       -1.989050    1.899948    2.001972
     39          1           0       -1.034225    1.072693    0.762272
     40          1           0       -0.894862    0.583628    2.459536
 ---------------------------------------------------------------------

 SCF Done:  E(RHF) =  -470.733280428     A.U. after   11 cycles
 E2 =    -0.1582368652D+01 EUMP2 =    -0.47231564908077D+03

 The electronic state is 1-A.
 Alpha  occ. eigenvalues --  -11.21601 -11.21600 -11.21596 -11.21580 -11.21407
 Alpha  occ. eigenvalues --  -11.21395 -11.21348 -11.21336 -11.21071 -11.21067
 Alpha  occ. eigenvalues --  -11.21060 -11.21045  -1.08433  -1.08417  -1.03546
 Alpha  occ. eigenvalues --   -1.03503  -0.96015  -0.95937  -0.87035  -0.86950
 Alpha  occ. eigenvalues --   -0.79599  -0.79573  -0.78246  -0.78228  -0.65066
 Alpha  occ. eigenvalues --   -0.65047  -0.60963  -0.60906  -0.59376  -0.59332
 Alpha  occ. eigenvalues --   -0.57708  -0.57491  -0.55279  -0.55233  -0.52770
 Alpha  occ. eigenvalues --   -0.52660  -0.52474  -0.52243  -0.49908  -0.49893
 Alpha  occ. eigenvalues --   -0.47992  -0.47809  -0.46625  -0.46599  -0.45785
 Alpha  occ. eigenvalues --   -0.45772  -0.45711  -0.45694  -0.43787  -0.43758
 Alpha virt. eigenvalues --    0.21660   0.23026   0.23408   0.24925   0.26278
 Alpha virt. eigenvalues --    0.26592   0.26994   0.27378   0.27797   0.28953
 Alpha virt. eigenvalues --    0.30202   0.31159   0.31669   0.31826   0.32207

 Mulliken charges:
               1
     1  C   -0.298328
     2  C   -0.299616
     3  C   -0.481052
     4  H    0.149742
     5  H    0.149415
     6  H    0.153207
     7  H    0.151239
     8  H    0.154877
     9  H    0.155628
    10  H    0.164672
    11  C   -0.298243
    12  C   -0.299651
    13  C   -0.475700
    14  H    0.149561
    15  H    0.149523
    16  H    0.151972
    17  H    0.151892
    18  H    0.155128
    19  H    0.155187
    20  H    0.160238
    21  C   -0.298293
    22  C   -0.299677
    23  C   -0.475710
    24  H    0.149648
    25  H    0.149568
    26  H    0.151968
    27  H    0.151971
    28  H    0.155183
    29  H    0.155163
    30  H    0.160268
    31  C   -0.298350
    32  C   -0.299324
    33  C   -0.482414
    34  H    0.149226
    35  H    0.149719
    36  H    0.152058
    37  H    0.151913
    38  H    0.155216
    39  H    0.161743
    40  H    0.160431
 Sum of Mulliken charges =  -0.00000

 Dipole moment (field-independent basis, Debye):
    X=             -0.0029    Y=              0.0043    Z=              0.0091  Tot=              0.0105
 Quadrupole moment (field-independent basis, Debye-Ang):
   XX=            -85.7115   YY=            -85.3421   ZZ=            -83.7355
   XY=             -0.1851   XZ=             -0.7105   YZ=              0.9685

 Normal termination of Gaussian 16 at Thu May  6 00:30:40 2021.
