 Gaussian 16, Revision A.03,
 Gaussian 16:  EM64L-G16RevA.03 25-Dec-2016

 -------------
 #p 6-31g* mp2
 -------------

 ------------------------------------------------------
 Input file generated by CHIRIPA (05-May-2021 14:57:22)
 ------------------------------------------------------
 Symbolic Z-matrix:
 Charge =  0 Multiplicity = 1

                         Standard orientation:
 ---------------------------------------------------------------------
 Center     Atomic      Atomic             Coordinates (Angstroms)
 Number     Number       Type             X           Y           Z
 ---------------------------------------------------------------------
      1          6           0       -2.217761    1.500149   -0.581400
      2          6           0       -3.506796    2.031628   -0.692932
      3          6           0       -4.627862    1.231794   -0.452048
      4          6           0       -4.422294   -0.101297   -0.100054
      5          6           0       -3.150711   -0.659999    0.019183
      6          6           0       -2.044138    0.158397   -0.226325
      7          1           0       -1.352520    2.128689   -0.770320
      8          1           0       -3.644647    3.073305   -0.968524
      9          1           0       -5.637008    1.617503   -0.531232
     10          1           0       -3.045049   -1.702029    0.295637
     11          1           0       -1.044233   -0.257055   -0.138957
     12          7           0       -5.601445   -0.957871    0.157407
     13          8           0       -5.393530   -2.129257    0.466053
     14          8           0       -6.711250   -0.441648    0.045683
     15          6           0        2.051485    0.928245    0.974132
     16          6           0        3.181661    1.744216    0.858318
     17          6           0        4.392827    1.218541    0.398655
     18          6           0        4.438369   -0.133471    0.062085
     19          6           0        3.329718   -0.972084    0.166543
     20          6           0        2.128983   -0.424916    0.628484
     21          1           0        1.114673    1.344950    1.332094
     22          1           0        3.124404    2.795451    1.126031
     23          1           0        5.283101    1.827614    0.299350
     24          1           0        3.417662   -2.016280   -0.107936
     25          1           0        1.252880   -1.060981    0.717416
     26          7           0        5.715055   -0.701356   -0.425746
     27          8           0        5.729118   -1.895629   -0.715838
     28          8           0        6.677484    0.058559   -0.508778
 ---------------------------------------------------------------------

 SCF Done:  E(RHF) =  -868.336601388     A.U. after   16 cycles
 E2 =    -0.2600138282D+01 EUMP2 =    -0.87093673967050D+03

 The electronic state is 1-A.
 Alpha  occ. eigenvalues --  -20.61371 -20.61366 -20.61336 -20.61329 -15.86432
 Alpha  occ. eigenvalues --  -15.86396 -11.31978 -11.31908 -11.28593 -11.28554
 Alpha  occ. eigenvalues --  -11.28541 -11.28472 -11.28429 -11.28322 -11.27731
 Alpha  occ. eigenvalues --  -11.27652 -11.27616 -11.27512  -1.60443  -1.60408
 Alpha  occ. eigenvalues --   -1.39991  -1.39958  -1.20187  -1.20109  -1.09571
 Alpha  occ. eigenvalues --   -1.09481  -1.05621  -1.05539  -0.96364  -0.96285
 Alpha  occ. eigenvalues --   -0.87061  -0.86905  -0.83190  -0.83119  -0.78217
 Alpha  occ. eigenvalues --   -0.78113  -0.72648  -0.72611  -0.71768  -0.71734
 Alpha  occ. eigenvalues --   -0.71364  -0.71187  -0.65920  -0.65805  -0.65767
 Alpha  occ. eigenvalues --   -0.65375  -0.63050  -0.62780  -0.56198  -0.56020
 Alpha  occ. eigenvalues --   -0.53960  -0.53852  -0.53816  -0.53523  -0.49426
 Alpha  occ. eigenvalues --   -0.49390  -0.49377  -0.49356  -0.45355  -0.45330
 Alpha  occ. eigenvalues --   -0.38210  -0.38106  -0.37211  -0.37142
 Alpha virt. eigenvalues --    0.04340   0.04413   0.10298   0.10446   0.15742
 Alpha virt. eigenvalues --    0.15853   0.18098   0.22040   0.24372   0.25942
 Alpha virt. eigenvalues --    0.27758   0.28977   0.29590   0.31025   0.31948

 Mulliken charges:
               1
     1  C   -0.174007
     2  C   -0.217929
     3  C   -0.169686
     4  C    0.159384
     5  C   -0.170779
     6  C   -0.223708
     7  H    0.224792
     8  H    0.225665
     9  H    0.278138
    10  H    0.276384
    11  H    0.219647
    12  N    0.488037
    13  O   -0.459137
    14  O   -0.458249
    15  C   -0.175645
    16  C   -0.218318
    17  C   -0.169459
    18  C    0.159303
    19  C   -0.169121
    20  C   -0.222652
    21  H    0.224006
    22  H    0.225096
    23  H    0.278314
    24  H    0.278600
    25  H    0.219807
    26  N    0.487923
    27  O   -0.458140
    28  O   -0.458266
 Sum of Mulliken charges =  -0.00000

 Dipole moment (field-independent basis, Debye):
    X=             -0.2917    Y=              5.0446    Z=              0.7697  Tot=              5.1113
 Quadrupole moment (field-independent basis, Debye-Ang):
   XX=           -177.3444   YY=            -99.0468   ZZ=           -105.8695
   XY=             -4.8648   XZ=             11.9971   YZ=             -0.7114

 Normal termination of Gaussian 16 at Wed May  5 19:21:18 2021.
