 Gaussian 16, Revision A.03,
 Gaussian 16:  EM64L-G16RevA.03 25-Dec-2016

 -------------
 #p 6-31g* mp2
 -------------

 ------------------------------------------------------
 Input file generated by CHIRIPA (05-May-2021 14:51:10)
 ------------------------------------------------------
 Symbolic Z-matrix:
 Charge =  0 Multiplicity = 1

                         Standard orientation:
 ---------------------------------------------------------------------
 Center     Atomic      Atomic             Coordinates (Angstroms)
 Number     Number       Type             X           Y           Z
 ---------------------------------------------------------------------
      1          6           0       -3.332125   -0.472060   -0.409894
      2          6           0       -2.267266   -1.557357   -0.248059
      3          6           0       -2.686303   -2.893054   -0.862969
      4          1           0       -4.267808   -0.813325    0.053766
      5          1           0       -3.545291   -0.333819   -1.478933
      6          1           0       -2.055170   -1.692537    0.820285
      7          1           0       -1.333954   -1.213389   -0.711990
      8          1           0       -2.878766   -2.780221   -1.934803
      9          1           0       -3.604079   -3.262090   -0.393822
     10          1           0       -1.910474   -3.654504   -0.735908
     11          6           0       -2.927826    0.869051    0.199772
     12          6           0       -3.992685    1.954348    0.037937
     13          6           0       -3.573648    3.290045    0.652847
     14          1           0       -2.714659    0.730810    1.268811
     15          1           0       -1.992143    1.210316   -0.263888
     16          1           0       -4.925996    1.610381    0.501868
     17          1           0       -4.204780    2.089528   -1.030407
     18          1           0       -2.655871    3.659082    0.183700
     19          1           0       -3.381185    3.177212    1.724681
     20          1           0       -4.349476    4.051495    0.525786
     21          6           0        3.278626    0.390919   -0.357461
     22          6           0        4.433714    1.266918    0.128728
     23          6           0        4.719061    2.441904   -0.807104
     24          1           0        3.511269    0.012979   -1.362441
     25          1           0        2.375663    1.009055   -0.457259
     26          1           0        5.333888    0.647024    0.228903
     27          1           0        4.198379    1.642660    1.132746
     28          1           0        3.837164    3.084080   -0.899127
     29          1           0        4.979125    2.082789   -1.808105
     30          1           0        5.548343    3.054902   -0.440517
     31          6           0        2.981325   -0.787909    0.567583
     32          6           0        1.826236   -1.663910    0.081394
     33          6           0        1.540889   -2.838896    1.017226
     34          1           0        3.884287   -1.406047    0.667381
     35          1           0        2.748681   -0.409971    1.572563
     36          1           0        2.061572   -2.039650   -0.922623
     37          1           0        0.926063   -1.044016   -0.018781
     38          1           0        1.280825   -2.479779    2.018227
     39          1           0        2.422787   -3.481072    1.109249
     40          1           0        0.711607   -3.451893    0.650639
 ---------------------------------------------------------------------

 SCF Done:  E(RHF) =  -470.733124930     A.U. after   11 cycles
 E2 =    -0.1583215244D+01 EUMP2 =    -0.47231634017443D+03

 The electronic state is 1-A.
 Alpha  occ. eigenvalues --  -11.21630 -11.21596 -11.21582 -11.21533 -11.21434
 Alpha  occ. eigenvalues --  -11.21390 -11.21369 -11.21326 -11.21100 -11.21090
 Alpha  occ. eigenvalues --  -11.21071 -11.21045  -1.08463  -1.08403  -1.03577
 Alpha  occ. eigenvalues --   -1.03482  -0.96016  -0.95946  -0.87024  -0.86972
 Alpha  occ. eigenvalues --   -0.79693  -0.79513  -0.78336  -0.78158  -0.65120
 Alpha  occ. eigenvalues --   -0.65011  -0.61007  -0.60865  -0.59544  -0.59186
 Alpha  occ. eigenvalues --   -0.57749  -0.57406  -0.55289  -0.55246  -0.52751
 Alpha  occ. eigenvalues --   -0.52612  -0.52460  -0.52335  -0.49983  -0.49875
 Alpha  occ. eigenvalues --   -0.48128  -0.47775  -0.46828  -0.46478  -0.45988
 Alpha  occ. eigenvalues --   -0.45758  -0.45733  -0.45345  -0.43826  -0.43736
 Alpha virt. eigenvalues --    0.21059   0.23119   0.23210   0.24974   0.25249
 Alpha virt. eigenvalues --    0.26592   0.26737   0.27202   0.28610   0.29054
 Alpha virt. eigenvalues --    0.30139   0.30747   0.31517   0.31737   0.32513

 Mulliken charges:
               1
     1  C   -0.297851
     2  C   -0.305632
     3  C   -0.477129
     4  H    0.149668
     5  H    0.149492
     6  H    0.152554
     7  H    0.158649
     8  H    0.155272
     9  H    0.155313
    10  H    0.161067
    11  C   -0.298447
    12  C   -0.299592
    13  C   -0.475727
    14  H    0.149384
    15  H    0.148795
    16  H    0.152159
    17  H    0.152099
    18  H    0.155029
    19  H    0.155132
    20  H    0.160433
    21  C   -0.298210
    22  C   -0.299613
    23  C   -0.475697
    24  H    0.149476
    25  H    0.148985
    26  H    0.151972
    27  H    0.152040
    28  H    0.155061
    29  H    0.155100
    30  H    0.160284
    31  C   -0.297644
    32  C   -0.305368
    33  C   -0.477194
    34  H    0.149274
    35  H    0.149604
    36  H    0.150999
    37  H    0.158464
    38  H    0.154925
    39  H    0.154850
    40  H    0.162023
 Sum of Mulliken charges =  -0.00000

 Dipole moment (field-independent basis, Debye):
    X=             -0.0234    Y=              0.0003    Z=             -0.0016  Tot=              0.0234
 Quadrupole moment (field-independent basis, Debye-Ang):
   XX=            -84.3531   YY=            -86.2815   ZZ=            -84.1932
   XY=             -0.7087   XZ=             -0.6013   YZ=              0.1751

 Normal termination of Gaussian 16 at Wed May  5 19:49:21 2021.
