 Gaussian 16, Revision A.03,
 Gaussian 16:  EM64L-G16RevA.03 25-Dec-2016

 -------------
 #p 6-31g* mp2
 -------------

 ------------------------------------------------------
 Input file generated by CHIRIPA (05-May-2021 14:53:16)
 ------------------------------------------------------
 Symbolic Z-matrix:
 Charge =  0 Multiplicity = 1

                         Standard orientation:
 ---------------------------------------------------------------------
 Center     Atomic      Atomic             Coordinates (Angstroms)
 Number     Number       Type             X           Y           Z
 ---------------------------------------------------------------------
      1          6           0       -3.406015    0.577654   -0.161301
      2          6           0       -3.616797   -0.838587   -0.697786
      3          6           0       -5.091862   -1.237721   -0.749440
      4          1           0       -3.842551    0.650760    0.844203
      5          1           0       -3.956992    1.287566   -0.793633
      6          1           0       -3.064461   -1.545473   -0.065448
      7          1           0       -3.179539   -0.908384   -1.702052
      8          1           0       -5.653121   -0.555550   -1.396149
      9          1           0       -5.537389   -1.196259    0.249754
     10          1           0       -5.219563   -2.253676   -1.135946
     11          6           0       -1.936524    0.991176   -0.103654
     12          6           0       -1.725741    2.407417    0.432831
     13          6           0       -0.250676    2.806551    0.484485
     14          1           0       -1.385546    0.281264    0.528678
     15          1           0       -1.499987    0.918070   -1.109158
     16          1           0       -2.162999    2.477215    1.437097
     17          1           0       -2.278077    3.114304   -0.199507
     18          1           0        0.194850    2.765090   -0.514709
     19          1           0        0.310583    2.124381    1.131194
     20          1           0       -0.122975    3.822507    0.870991
     21          6           0        3.605564    0.495809   -1.578941
     22          6           0        2.794956   -0.575988   -1.967124
     23          6           0        1.949645   -1.197838   -1.043382
     24          6           0        1.940113   -0.720003    0.266150
     25          6           0        2.735920    0.345746    0.683476
     26          6           0        3.573516    0.952449   -0.257211
     27          1           0        4.259226    0.972994   -2.303108
     28          1           0        2.817774   -0.932737   -2.992919
     29          1           0        1.311668   -2.029449   -1.316925
     30          1           0        2.691345    0.679080    1.713194
     31          1           0        4.201952    1.784626    0.047085
     32          7           0        1.049304   -1.370311    1.253044
     33          8           0        1.059335   -0.930518    2.400702
     34          8           0        0.357924   -2.307500    0.860226
 ---------------------------------------------------------------------

 SCF Done:  E(RHF) =  -669.535855514     A.U. after   15 cycles
 E2 =    -0.2093697738D+01 EUMP2 =    -0.67162955325265D+03

 The electronic state is 1-A.
 Alpha  occ. eigenvalues --  -20.60917 -20.60912 -15.85933 -11.31210 -11.27789
 Alpha  occ. eigenvalues --  -11.27785 -11.27530 -11.26789 -11.26777 -11.21284
 Alpha  occ. eigenvalues --  -11.20972 -11.20953 -11.20896 -11.20857 -11.20546
 Alpha  occ. eigenvalues --   -1.59980  -1.39534  -1.19393  -1.08807  -1.07974
 Alpha  occ. eigenvalues --   -1.04788  -1.03104  -0.95665  -0.95574  -0.86614
 Alpha  occ. eigenvalues --   -0.86187  -0.82489  -0.79177  -0.77801  -0.77539
 Alpha  occ. eigenvalues --   -0.72162  -0.71303  -0.70515  -0.65052  -0.64796
 Alpha  occ. eigenvalues --   -0.64580  -0.62144  -0.60488  -0.58963  -0.57204
 Alpha  occ. eigenvalues --   -0.55305  -0.54878  -0.53169  -0.52883  -0.52289
 Alpha  occ. eigenvalues --   -0.51969  -0.49531  -0.48927  -0.48916  -0.47484
 Alpha  occ. eigenvalues --   -0.46193  -0.45347  -0.45234  -0.44885  -0.43360
 Alpha  occ. eigenvalues --   -0.37351  -0.36345
 Alpha virt. eigenvalues --    0.04952   0.11191   0.16447   0.21288   0.23267
 Alpha virt. eigenvalues --    0.24552   0.26634   0.27256   0.27492   0.28347
 Alpha virt. eigenvalues --    0.28641   0.30680   0.31523   0.31909   0.32349

 Mulliken charges:
               1
     1  C   -0.297507
     2  C   -0.303159
     3  C   -0.475504
     4  H    0.151942
     5  H    0.146053
     6  H    0.166563
     7  H    0.146314
     8  H    0.151854
     9  H    0.156058
    10  H    0.159578
    11  C   -0.302856
    12  C   -0.298184
    13  C   -0.479588
    14  H    0.157801
    15  H    0.144541
    16  H    0.155233
    17  H    0.149530
    18  H    0.152266
    19  H    0.157082
    20  H    0.157313
    21  C   -0.170807
    22  C   -0.219018
    23  C   -0.170366
    24  C    0.159442
    25  C   -0.169458
    26  C   -0.218052
    27  H    0.225763
    28  H    0.223452
    29  H    0.275872
    30  H    0.275353
    31  H    0.223922
    32  N    0.488560
    33  O   -0.460793
    34  O   -0.459200
 Sum of Mulliken charges =  -0.00000

 Dipole moment (field-independent basis, Debye):
    X=              3.2185    Y=              2.1610    Z=             -3.3877  Tot=              5.1483
 Quadrupole moment (field-independent basis, Debye-Ang):
   XX=            -83.8406   YY=            -96.8797   ZZ=            -93.6337
   XY=              3.2108   XZ=             -5.1733   YZ=              5.3278

 Normal termination of Gaussian 16 at Thu May  6 09:04:57 2021.
