 Gaussian 16, Revision A.03,
 Gaussian 16:  EM64L-G16RevA.03 25-Dec-2016

 -------------
 #p 6-31g* mp2
 -------------

 ------------------------------------------------------
 Input file generated by CHIRIPA (05-May-2021 14:53:14)
 ------------------------------------------------------
 Symbolic Z-matrix:
 Charge =  0 Multiplicity = 1

                         Standard orientation:
 ---------------------------------------------------------------------
 Center     Atomic      Atomic             Coordinates (Angstroms)
 Number     Number       Type             X           Y           Z
 ---------------------------------------------------------------------
      1          6           0       -3.745052    0.609781   -0.629594
      2          6           0       -2.719097    1.689247   -0.282961
      3          6           0       -2.578036    2.744832   -1.380065
      4          1           0       -3.453844    0.125071   -1.571506
      5          1           0       -4.719423    1.084402   -0.810509
      6          1           0       -1.747267    1.212595   -0.101399
      7          1           0       -3.012677    2.171313    0.658335
      8          1           0       -3.534731    3.246892   -1.556899
      9          1           0       -2.262131    2.282727   -2.320950
     10          1           0       -1.839598    3.506722   -1.111566
     11          6           0       -3.897343   -0.452675    0.457477
     12          6           0       -4.923298   -1.532142    0.110845
     13          6           0       -5.064359   -2.587726    1.207949
     14          1           0       -2.922972   -0.927297    0.638393
     15          1           0       -4.188551    0.032034    1.399390
     16          1           0       -4.629718   -2.014208   -0.830452
     17          1           0       -5.895128   -1.055489   -0.070718
     18          1           0       -5.380264   -2.125621    2.148834
     19          1           0       -4.107664   -3.089787    1.384783
     20          1           0       -5.802797   -3.349617    0.939450
     21          6           0        2.080143    2.023965    1.161752
     22          6           0        1.425497    1.473872    0.054794
     23          6           0        1.918062    0.318700   -0.559623
     24          6           0        3.072819   -0.262972   -0.038581
     25          6           0        3.747561    0.261219    1.062889
     26          6           0        3.237045    1.416955    1.661386
     27          1           0        1.690534    2.921549    1.632863
     28          1           0        0.526836    1.943146   -0.335378
     29          1           0        1.431113   -0.128238   -1.417845
     30          1           0        4.641338   -0.229099    1.429179
     31          1           0        3.747532    1.841956    2.520932
     32          7           0        3.603777   -1.486198   -0.680610
     33          8           0        4.622852   -1.979638   -0.202446
     34          8           0        2.990813   -1.928361   -1.649839
 ---------------------------------------------------------------------

 SCF Done:  E(RHF) =  -669.535492668     A.U. after   15 cycles
 E2 =    -0.2091387854D+01 EUMP2 =    -0.67162688052119D+03

 The electronic state is 1-A.
 Alpha  occ. eigenvalues --  -20.60767 -20.60762 -15.85820 -11.31183 -11.27756
 Alpha  occ. eigenvalues --  -11.27751 -11.27487 -11.26766 -11.26719 -11.22468
 Alpha  occ. eigenvalues --  -11.22015 -11.21971 -11.21885 -11.21780 -11.21261
 Alpha  occ. eigenvalues --   -1.59843  -1.39396  -1.19355  -1.08981  -1.08747
 Alpha  occ. eigenvalues --   -1.04760  -1.04101  -0.96537  -0.95585  -0.87548
 Alpha  occ. eigenvalues --   -0.86156  -0.82420  -0.80188  -0.78749  -0.77465
 Alpha  occ. eigenvalues --   -0.72038  -0.71166  -0.70462  -0.65658  -0.65005
 Alpha  occ. eigenvalues --   -0.64754  -0.62183  -0.61429  -0.59937  -0.58138
 Alpha  occ. eigenvalues --   -0.55812  -0.55247  -0.53259  -0.53092  -0.52959
 Alpha  occ. eigenvalues --   -0.52822  -0.50467  -0.48801  -0.48794  -0.48481
 Alpha  occ. eigenvalues --   -0.47207  -0.46288  -0.46183  -0.44802  -0.44335
 Alpha  occ. eigenvalues --   -0.37330  -0.36351
 Alpha virt. eigenvalues --    0.05059   0.11239   0.16473   0.19784   0.22713
 Alpha virt. eigenvalues --    0.23676   0.25960   0.26410   0.26981   0.28265
 Alpha virt. eigenvalues --    0.28919   0.30497   0.30878   0.31269   0.31945

 Mulliken charges:
               1
     1  C   -0.298119
     2  C   -0.305913
     3  C   -0.478766
     4  H    0.151548
     5  H    0.151703
     6  H    0.147341
     7  H    0.153777
     8  H    0.161452
     9  H    0.157298
    10  H    0.154139
    11  C   -0.299181
    12  C   -0.300301
    13  C   -0.476245
    14  H    0.151229
    15  H    0.149573
    16  H    0.153837
    17  H    0.152136
    18  H    0.154805
    19  H    0.157006
    20  H    0.161782
    21  C   -0.172178
    22  C   -0.223454
    23  C   -0.173291
    24  C    0.158755
    25  C   -0.170919
    26  C   -0.218468
    27  H    0.225926
    28  H    0.233179
    29  H    0.275284
    30  H    0.275603
    31  H    0.223402
    32  N    0.488115
    33  O   -0.460438
    34  O   -0.460618
 Sum of Mulliken charges =  -0.00000

 Dipole moment (field-independent basis, Debye):
    X=             -2.0244    Y=              4.2679    Z=              2.2690  Tot=              5.2404
 Quadrupole moment (field-independent basis, Debye-Ang):
   XX=           -102.6324   YY=            -98.0865   ZZ=            -93.4157
   XY=             13.2046   XZ=              9.9384   YZ=              0.0386

 Normal termination of Gaussian 16 at Thu May  6 10:32:41 2021.
