 Gaussian 16, Revision A.03,
 Gaussian 16:  EM64L-G16RevA.03 25-Dec-2016

 -------------
 #p 6-31g* mp2
 -------------

 ------------------------------------------------------
 Input file generated by CHIRIPA (05-May-2021 14:53:18)
 ------------------------------------------------------
 Symbolic Z-matrix:
 Charge =  0 Multiplicity = 1

                         Standard orientation:
 ---------------------------------------------------------------------
 Center     Atomic      Atomic             Coordinates (Angstroms)
 Number     Number       Type             X           Y           Z
 ---------------------------------------------------------------------
      1          6           0       -3.611513    0.798729   -0.224181
      2          6           0       -4.509042    1.951397    0.227240
      3          6           0       -4.028725    3.309885   -0.284230
      4          1           0       -2.586279    0.982140    0.125392
      5          1           0       -3.569504    0.784235   -1.322097
      6          1           0       -4.550453    1.962860    1.323949
      7          1           0       -5.532298    1.765125   -0.123284
      8          1           0       -4.004507    3.322843   -1.378691
      9          1           0       -3.017084    3.521700    0.076764
     10          1           0       -4.684753    4.119601    0.050207
     11          6           0       -4.078715   -0.565836    0.279222
     12          6           0       -3.181186   -1.718504   -0.172200
     13          6           0       -3.661503   -3.076992    0.339270
     14          1           0       -4.120724   -0.551343    1.377138
     15          1           0       -5.103949   -0.749247   -0.070351
     16          1           0       -2.157931   -1.532233    0.178324
     17          1           0       -3.139775   -1.729967   -1.268908
     18          1           0       -4.673144   -3.288808   -0.021724
     19          1           0       -3.685721   -3.089950    1.433732
     20          1           0       -3.005476   -3.886708    0.004833
     21          6           0        1.211839   -1.851302   -0.256742
     22          6           0        0.858435   -0.501706   -0.155670
     23          6           0        1.843013    0.482200   -0.024971
     24          6           0        3.177254    0.079208    0.001242
     25          6           0        3.561107   -1.257293   -0.097295
     26          6           0        2.559671   -2.224132   -0.227284
     27          1           0        0.440446   -2.608995   -0.357997
     28          1           0       -0.187511   -0.209245   -0.178257
     29          1           0        1.597433    1.534190    0.055185
     30          1           0        4.612174   -1.518103   -0.071721
     31          1           0        2.837065   -3.271494   -0.305579
     32          7           0        4.228507    1.111791    0.139232
     33          8           0        5.396869    0.730810    0.159744
     34          8           0        3.864211    2.282558    0.224262
 ---------------------------------------------------------------------

 SCF Done:  E(RHF) =  -669.535359617     A.U. after   15 cycles
 E2 =    -0.2091920413D+01 EUMP2 =    -0.67162728002992D+03

 The electronic state is 1-A.
 Alpha  occ. eigenvalues --  -20.60717 -20.60712 -15.85769 -11.31122 -11.27692
 Alpha  occ. eigenvalues --  -11.27680 -11.27414 -11.26705 -11.26647 -11.22842
 Alpha  occ. eigenvalues --  -11.22397 -11.22336 -11.22283 -11.22115 -11.21622
 Alpha  occ. eigenvalues --   -1.59792  -1.39346  -1.19290  -1.09399  -1.08686
 Alpha  occ. eigenvalues --   -1.04693  -1.04433  -0.96854  -0.95525  -0.87870
 Alpha  occ. eigenvalues --   -0.86097  -0.82358  -0.80534  -0.79224  -0.77405
 Alpha  occ. eigenvalues --   -0.71988  -0.71115  -0.70400  -0.66074  -0.64942
 Alpha  occ. eigenvalues --   -0.64678  -0.62083  -0.61781  -0.60246  -0.58480
 Alpha  occ. eigenvalues --   -0.56123  -0.55181  -0.53552  -0.53277  -0.53023
 Alpha  occ. eigenvalues --   -0.52799  -0.50793  -0.48846  -0.48744  -0.48730
 Alpha  occ. eigenvalues --   -0.47558  -0.46719  -0.46630  -0.44755  -0.44698
 Alpha  occ. eigenvalues --   -0.37269  -0.36296
 Alpha virt. eigenvalues --    0.05124   0.11325   0.16622   0.19110   0.22482
 Alpha virt. eigenvalues --    0.22921   0.24466   0.25976   0.26154   0.28336
 Alpha virt. eigenvalues --    0.29276   0.30414   0.31000   0.31129   0.31987

 Mulliken charges:
               1
     1  C   -0.302092
     2  C   -0.300325
     3  C   -0.476433
     4  H    0.144024
     5  H    0.151726
     6  H    0.154105
     7  H    0.154588
     8  H    0.156419
     9  H    0.155214
    10  H    0.163682
    11  C   -0.298559
    12  C   -0.306758
    13  C   -0.475663
    14  H    0.152681
    15  H    0.154281
    16  H    0.144488
    17  H    0.154352
    18  H    0.160280
    19  H    0.158727
    20  H    0.157400
    21  C   -0.174122
    22  C   -0.227345
    23  C   -0.172446
    24  C    0.158782
    25  C   -0.171293
    26  C   -0.218460
    27  H    0.227386
    28  H    0.234837
    29  H    0.275297
    30  H    0.275332
    31  H    0.223107
    32  N    0.488004
    33  O   -0.460640
    34  O   -0.460578
 Sum of Mulliken charges =  -0.00000

 Dipole moment (field-independent basis, Debye):
    X=             -4.0109    Y=             -3.6053    Z=             -0.4788  Tot=              5.4142
 Quadrupole moment (field-independent basis, Debye-Ang):
   XX=           -114.5813   YY=            -93.8534   ZZ=            -94.9933
   XY=            -15.0590   XZ=             -1.1963   YZ=              0.4654

 Normal termination of Gaussian 16 at Thu May  6 07:36:08 2021.
