 Gaussian 16, Revision A.03,
 Gaussian 16:  EM64L-G16RevA.03 25-Dec-2016

 -------------
 #p 6-31g* mp2
 -------------

 ------------------------------------------------------
 Input file generated by CHIRIPA (05-May-2021 14:57:22)
 ------------------------------------------------------
 Symbolic Z-matrix:
 Charge =  0 Multiplicity = 1

                         Standard orientation:
 ---------------------------------------------------------------------
 Center     Atomic      Atomic             Coordinates (Angstroms)
 Number     Number       Type             X           Y           Z
 ---------------------------------------------------------------------
      1          6           0        4.968113   -0.040804   -1.514756
      2          6           0        4.632547    1.135309   -0.836025
      3          6           0        3.592690    1.143778    0.098411
      4          6           0        2.906319   -0.047140    0.330577
      5          6           0        3.216942   -1.234994   -0.329579
      6          6           0        4.260487   -1.220123   -1.259816
      7          1           0        5.777331   -0.038318   -2.239018
      8          1           0        5.180374    2.052656   -1.031995
      9          1           0        3.311986    2.040111    0.638050
     10          1           0        2.652661   -2.133923   -0.112945
     11          1           0        4.518898   -2.134993   -1.785441
     12          7           0        1.803517   -0.050529    1.317601
     13          8           0        1.214173   -1.112838    1.504172
     14          8           0        1.549366    1.009189    1.885969
     15          6           0       -3.158421   -2.470915   -0.015633
     16          6           0       -2.344691   -1.739398    0.855715
     17          6           0       -2.297843   -0.344162    0.780396
     18          6           0       -3.081273    0.289963   -0.182625
     19          6           0       -3.902009   -0.410950   -1.064896
     20          6           0       -3.933117   -1.805530   -0.971472
     21          1           0       -3.188700   -3.554512    0.049909
     22          1           0       -1.741980   -2.253479    1.599021
     23          1           0       -1.676701    0.246786    1.442500
     24          1           0       -4.491534    0.129593   -1.795439
     25          1           0       -4.565994   -2.371054   -1.649479
     26          7           0       -3.040010    1.766689   -0.271945
     27          8           0       -3.739742    2.301648   -1.129168
     28          8           0       -2.308716    2.361227    0.516960
 ---------------------------------------------------------------------

 SCF Done:  E(RHF) =  -868.340297052     A.U. after   16 cycles
 E2 =    -0.2599674866D+01 EUMP2 =    -0.87093997191807D+03

 The electronic state is 1-A.
 Alpha  occ. eigenvalues --  -20.61384 -20.61299 -20.59863 -20.59826 -15.86334
 Alpha  occ. eigenvalues --  -15.84889 -11.31452 -11.30110 -11.28030 -11.27950
 Alpha  occ. eigenvalues --  -11.27703 -11.26980 -11.26926 -11.26763 -11.26448
 Alpha  occ. eigenvalues --  -11.26441 -11.25799 -11.25483  -1.60388  -1.58932
 Alpha  occ. eigenvalues --   -1.39944  -1.38483  -1.19603  -1.18281  -1.09050
 Alpha  occ. eigenvalues --   -1.07729  -1.04969  -1.03618  -0.95926  -0.94572
 Alpha  occ. eigenvalues --   -0.86380  -0.85048  -0.82770  -0.81372  -0.77841
 Alpha  occ. eigenvalues --   -0.76424  -0.72571  -0.71681  -0.71105  -0.70715
 Alpha  occ. eigenvalues --   -0.70261  -0.69401  -0.65263  -0.64976  -0.63917
 Alpha  occ. eigenvalues --   -0.63606  -0.62318  -0.60927  -0.55490  -0.54206
 Alpha  occ. eigenvalues --   -0.53309  -0.53061  -0.52029  -0.51680  -0.49359
 Alpha  occ. eigenvalues --   -0.49301  -0.47880  -0.47851  -0.45390  -0.43918
 Alpha  occ. eigenvalues --   -0.37572  -0.36557  -0.36330  -0.35207
 Alpha virt. eigenvalues --    0.04646   0.06059   0.11102   0.12396   0.16184
 Alpha virt. eigenvalues --    0.17568   0.21228   0.22595   0.27170   0.28011
 Alpha virt. eigenvalues --    0.28688   0.29460   0.30858   0.31947   0.32406

 Mulliken charges:
               1
     1  C   -0.169789
     2  C   -0.218592
     3  C   -0.168891
     4  C    0.158858
     5  C   -0.170251
     6  C   -0.218640
     7  H    0.226798
     8  H    0.225755
     9  H    0.279527
    10  H    0.272743
    11  H    0.223344
    12  N    0.489900
    13  O   -0.473599
    14  O   -0.452566
    15  C   -0.173847
    16  C   -0.217888
    17  C   -0.176231
    18  C    0.155549
    19  C   -0.173668
    20  C   -0.219711
    21  H    0.220865
    22  H    0.235587
    23  H    0.291490
    24  H    0.271099
    25  H    0.218106
    26  N    0.487042
    27  O   -0.466615
    28  O   -0.456375
 Sum of Mulliken charges =  -0.00000

 Dipole moment (field-independent basis, Debye):
    X=              4.2514    Y=             -5.0304    Z=             -2.9411  Tot=              7.2131
 Quadrupole moment (field-independent basis, Debye-Ang):
   XX=            -80.9739   YY=           -104.0018   ZZ=           -105.2844
   XY=             17.2093   XZ=             -7.8252   YZ=              2.3890

 Normal termination of Gaussian 16 at Fri May  7 07:53:33 2021.
