 Gaussian 16, Revision A.03,
 Gaussian 16:  EM64L-G16RevA.03 25-Dec-2016

 -------------
 #p 6-31g* mp2
 -------------

 ------------------------------------------------------
 Input file generated by CHIRIPA (05-May-2021 14:51:10)
 ------------------------------------------------------
 Symbolic Z-matrix:
 Charge =  0 Multiplicity = 1

                         Standard orientation:
 ---------------------------------------------------------------------
 Center     Atomic      Atomic             Coordinates (Angstroms)
 Number     Number       Type             X           Y           Z
 ---------------------------------------------------------------------
      1          6           0        1.660475    1.283159    0.002635
      2          6           0        1.605734    2.758332    0.401198
      3          6           0        0.181903    3.315464    0.411465
      4          1           0        1.210527    1.161767   -0.992230
      5          1           0        1.042305    0.699319    0.698618
      6          1           0        2.224933    3.339032   -0.294500
      7          1           0        2.056037    2.876256    1.395148
      8          1           0       -0.443425    2.761543    1.119093
      9          1           0       -0.273569    3.226949   -0.580156
     10          1           0        0.166019    4.371347    0.699072
     11          6           0        3.077185    0.711812   -0.012237
     12          6           0        3.131927   -0.763361   -0.410799
     13          6           0        4.555757   -1.320492   -0.421066
     14          1           0        3.695356    1.295652   -0.708220
     15          1           0        3.527133    0.833204    0.982628
     16          1           0        2.681623   -0.881284   -1.404750
     17          1           0        2.512727   -1.344061    0.284899
     18          1           0        5.011229   -1.231978    0.570554
     19          1           0        5.181085   -0.766572   -1.128694
     20          1           0        4.571641   -2.376376   -0.708674
     21          6           0       -2.203405   -1.714880    0.208297
     22          6           0       -0.711731   -2.040278    0.124558
     23          6           0       -0.396609   -3.479104    0.534767
     24          1           0       -2.553335   -1.890002    1.234858
     25          1           0       -2.760026   -2.410716   -0.434650
     26          1           0       -0.157958   -1.343148    0.766401
     27          1           0       -0.365270   -1.864178   -0.901877
     28          1           0       -0.923379   -4.188230   -0.111960
     29          1           0       -0.714889   -3.664241    1.565796
     30          1           0        0.675207   -3.690163    0.467492
     31          6           0       -2.534256   -0.280090   -0.198696
     32          6           0       -4.025928    0.045307   -0.114956
     33          6           0       -4.341051    1.484133   -0.525165
     34          1           0       -1.977635    0.415745    0.444252
     35          1           0       -2.184326   -0.104969   -1.225256
     36          1           0       -4.372390   -0.130794    0.911479
     37          1           0       -4.579702   -0.651823   -0.756799
     38          1           0       -4.022771    1.669269   -1.556196
     39          1           0       -3.814282    2.193259    0.121562
     40          1           0       -5.412866    1.695192   -0.457890
 ---------------------------------------------------------------------

 SCF Done:  E(RHF) =  -470.732637346     A.U. after   11 cycles
 E2 =    -0.1584837734D+01 EUMP2 =    -0.47231747508037D+03

 The electronic state is 1-A.
 Alpha  occ. eigenvalues --  -11.21590 -11.21566 -11.21561 -11.21519 -11.21375
 Alpha  occ. eigenvalues --  -11.21354 -11.21306 -11.21294 -11.21078 -11.21059
 Alpha  occ. eigenvalues --  -11.21047 -11.21023  -1.08452  -1.08349  -1.03534
 Alpha  occ. eigenvalues --   -1.03473  -0.95969  -0.95940  -0.86990  -0.86950
 Alpha  occ. eigenvalues --   -0.79635  -0.79525  -0.78488  -0.77919  -0.65195
 Alpha  occ. eigenvalues --   -0.64890  -0.60952  -0.60867  -0.59432  -0.59225
 Alpha  occ. eigenvalues --   -0.57593  -0.57528  -0.55280  -0.55213  -0.52688
 Alpha  occ. eigenvalues --   -0.52619  -0.52433  -0.52322  -0.49951  -0.49849
 Alpha  occ. eigenvalues --   -0.47997  -0.47835  -0.46718  -0.46637  -0.46283
 Alpha  occ. eigenvalues --   -0.45859  -0.45509  -0.44899  -0.43766  -0.43731
 Alpha virt. eigenvalues --    0.20822   0.21962   0.23681   0.24100   0.25067
 Alpha virt. eigenvalues --    0.25839   0.26826   0.27403   0.28301   0.29959
 Alpha virt. eigenvalues --    0.30568   0.31473   0.31602   0.31764   0.32450

 Mulliken charges:
               1
     1  C   -0.302420
     2  C   -0.299561
     3  C   -0.477016
     4  H    0.150226
     5  H    0.154446
     6  H    0.151885
     7  H    0.151436
     8  H    0.155208
     9  H    0.156605
    10  H    0.160138
    11  C   -0.298428
    12  C   -0.303546
    13  C   -0.475697
    14  H    0.149341
    15  H    0.149026
    16  H    0.151911
    17  H    0.157151
    18  H    0.154987
    19  H    0.155104
    20  H    0.159955
    21  C   -0.298417
    22  C   -0.303462
    23  C   -0.477509
    24  H    0.148846
    25  H    0.149203
    26  H    0.156449
    27  H    0.153195
    28  H    0.155205
    29  H    0.154604
    30  H    0.161153
    31  C   -0.301284
    32  C   -0.299639
    33  C   -0.476038
    34  H    0.153295
    35  H    0.149265
    36  H    0.151551
    37  H    0.151743
    38  H    0.154786
    39  H    0.156352
    40  H    0.159951
 Sum of Mulliken charges =  -0.00000

 Dipole moment (field-independent basis, Debye):
    X=              0.0099    Y=              0.0138    Z=             -0.0105  Tot=              0.0200
 Quadrupole moment (field-independent basis, Debye-Ang):
   XX=            -86.0578   YY=            -86.0496   ZZ=            -82.9226
   XY=              0.9427   XZ=             -0.0248   YZ=              0.2704

 Normal termination of Gaussian 16 at Thu May  6 00:38:11 2021.
