 Gaussian 16, Revision A.03,
 Gaussian 16:  EM64L-G16RevA.03 25-Dec-2016

 -------------
 #p 6-31g* mp2
 -------------

 ------------------------------------------------------
 Input file generated by CHIRIPA (05-May-2021 14:57:21)
 ------------------------------------------------------
 Symbolic Z-matrix:
 Charge =  0 Multiplicity = 1

                         Standard orientation:
 ---------------------------------------------------------------------
 Center     Atomic      Atomic             Coordinates (Angstroms)
 Number     Number       Type             X           Y           Z
 ---------------------------------------------------------------------
      1          6           0        4.252062    2.076505    0.474811
      2          6           0        4.888877    0.896765    0.873807
      3          6           0        4.310303   -0.347644    0.606883
      4          6           0        3.088653   -0.375525   -0.063999
      5          6           0        2.429576    0.782287   -0.474337
      6          6           0        3.026604    2.015609   -0.196804
      7          1           0        4.708679    3.038885    0.686284
      8          1           0        5.840648    0.941025    1.395553
      9          1           0        4.781597   -1.276482    0.904472
     10          1           0        1.481483    0.706210   -0.992746
     11          1           0        2.529769    2.930184   -0.507855
     12          7           0        2.466375   -1.687056   -0.352195
     13          8           0        1.389527   -1.684640   -0.944672
     14          8           0        3.067264   -2.692616    0.019851
     15          6           0       -3.475062   -2.324133    0.359381
     16          6           0       -2.386711   -1.838463   -0.372832
     17          6           0       -2.219429   -0.464406   -0.569129
     18          6           0       -3.163770    0.399465   -0.016647
     19          6           0       -4.258639   -0.053677    0.717665
     20          6           0       -4.405912   -1.431764    0.901337
     21          1           0       -3.597239   -3.393100    0.506965
     22          1           0       -1.662236   -2.529156   -0.794881
     23          1           0       -1.386143   -0.061288   -1.131756
     24          1           0       -4.964348    0.659418    1.126185
     25          1           0       -5.252113   -1.806100    1.470426
     26          7           0       -2.997269    1.856251   -0.217775
     27          8           0       -3.843150    2.596572    0.279261
     28          8           0       -2.024035    2.230174   -0.868647
 ---------------------------------------------------------------------

 SCF Done:  E(RHF) =  -868.341520820     A.U. after   16 cycles
 E2 =    -0.2598836203D+01 EUMP2 =    -0.87094035702231D+03

 The electronic state is 1-A.
 Alpha  occ. eigenvalues --  -20.61359 -20.61313 -20.60641 -20.60603 -15.86361
 Alpha  occ. eigenvalues --  -15.85659 -11.31318 -11.30665 -11.27854 -11.27799
 Alpha  occ. eigenvalues --  -11.27493 -11.27218 -11.27081 -11.26815 -11.26797
 Alpha  occ. eigenvalues --  -11.26679 -11.26196 -11.25900  -1.60390  -1.59697
 Alpha  occ. eigenvalues --   -1.39962  -1.39265  -1.19447  -1.18784  -1.08919
 Alpha  occ. eigenvalues --   -1.08249  -1.04777  -1.04095  -0.95824  -0.95148
 Alpha  occ. eigenvalues --   -0.86203  -0.85526  -0.82679  -0.81969  -0.77770
 Alpha  occ. eigenvalues --   -0.77052  -0.72614  -0.71895  -0.71681  -0.71008
 Alpha  occ. eigenvalues --   -0.70556  -0.69895  -0.65102  -0.64771  -0.64417
 Alpha  occ. eigenvalues --   -0.64061  -0.62131  -0.61417  -0.55305  -0.54637
 Alpha  occ. eigenvalues --   -0.53141  -0.52861  -0.52490  -0.52151  -0.49367
 Alpha  occ. eigenvalues --   -0.49299  -0.48663  -0.48602  -0.45450  -0.44749
 Alpha  occ. eigenvalues --   -0.37411  -0.36769  -0.36360  -0.35683
 Alpha virt. eigenvalues --    0.04710   0.05414   0.11282   0.11942   0.16291
 Alpha virt. eigenvalues --    0.17015   0.20487   0.22378   0.25326   0.27751
 Alpha virt. eigenvalues --    0.28577   0.29620   0.31030   0.31516   0.31988

 Mulliken charges:
               1
     1  C   -0.169920
     2  C   -0.218869
     3  C   -0.170804
     4  C    0.157002
     5  C   -0.171302
     6  C   -0.220134
     7  H    0.227558
     8  H    0.223676
     9  H    0.274469
    10  H    0.279150
    11  H    0.232914
    12  N    0.491912
    13  O   -0.475571
    14  O   -0.457629
    15  C   -0.171800
    16  C   -0.221804
    17  C   -0.174790
    18  C    0.157711
    19  C   -0.172753
    20  C   -0.218785
    21  H    0.225873
    22  H    0.244037
    23  H    0.278159
    24  H    0.272424
    25  H    0.221045
    26  N    0.488804
    27  O   -0.460930
    28  O   -0.469643
 Sum of Mulliken charges =  -0.00000

 Dipole moment (field-independent basis, Debye):
    X=              1.8953    Y=             -0.5749    Z=              1.7191  Tot=              2.6226
 Quadrupole moment (field-independent basis, Debye-Ang):
   XX=            -81.8790   YY=           -111.7658   ZZ=           -104.0288
   XY=             27.7707   XZ=              0.4467   YZ=             -0.8859

 Normal termination of Gaussian 16 at Thu May  6 08:05:11 2021.
