 Gaussian 16, Revision A.03,
 Gaussian 16:  EM64L-G16RevA.03 25-Dec-2016

 -------------
 #p 6-31g* mp2
 -------------

 ------------------------------------------------------
 Input file generated by CHIRIPA (05-May-2021 14:57:24)
 ------------------------------------------------------
 Symbolic Z-matrix:
 Charge =  0 Multiplicity = 1

                         Standard orientation:
 ---------------------------------------------------------------------
 Center     Atomic      Atomic             Coordinates (Angstroms)
 Number     Number       Type             X           Y           Z
 ---------------------------------------------------------------------
      1          6           0       -2.207161    2.206595    0.458853
      2          6           0       -1.929421    1.105225    1.275165
      3          6           0       -2.636060   -0.090870    1.118424
      4          6           0       -3.618229   -0.150879    0.130987
      5          6           0       -3.918067    0.929083   -0.697909
      6          6           0       -3.198849    2.115170   -0.523347
      7          1           0       -1.653341    3.131863    0.587534
      8          1           0       -1.159806    1.173352    2.038772
      9          1           0       -2.441442   -0.958832    1.736635
     10          1           0       -4.690982    0.830882   -1.450489
     11          1           0       -3.416684    2.968903   -1.158747
     12          7           0       -4.372974   -1.411833   -0.044381
     13          8           0       -5.233432   -1.439129   -0.921594
     14          8           0       -4.089793   -2.348997    0.698700
     15          6           0        1.192550    0.919247   -0.502027
     16          6           0        1.390779   -0.461057   -0.611517
     17          6           0        2.661525   -1.012943   -0.423969
     18          6           0        3.716317   -0.151316   -0.126813
     19          6           0        3.550727    1.227988   -0.011093
     20          6           0        2.271255    1.757885   -0.202692
     21          1           0        0.202015    1.339424   -0.649292
     22          1           0        0.554887   -1.114766   -0.843885
     23          1           0        2.843141   -2.077934   -0.502881
     24          1           0        4.403426    1.854230    0.221593
     25          1           0        2.120261    2.830224   -0.117047
     26          7           0        5.066218   -0.723933    0.073880
     27          8           0        5.979078    0.056611    0.334789
     28          8           0        5.185849   -1.942453   -0.033526
 ---------------------------------------------------------------------

 SCF Done:  E(RHF) =  -868.336465821     A.U. after   16 cycles
 E2 =    -0.2602115577D+01 EUMP2 =    -0.87093858139788D+03

 The electronic state is 1-A.
 Alpha  occ. eigenvalues --  -20.61669 -20.61663 -20.61020 -20.61010 -15.86726
 Alpha  occ. eigenvalues --  -15.86076 -11.32327 -11.31502 -11.28849 -11.28845
 Alpha  occ. eigenvalues --  -11.28664 -11.28129 -11.28062 -11.27971 -11.27931
 Alpha  occ. eigenvalues --  -11.27720 -11.27165 -11.27041  -1.60741  -1.60094
 Alpha  occ. eigenvalues --   -1.40286  -1.39645  -1.20521  -1.19692  -1.09901
 Alpha  occ. eigenvalues --   -1.09065  -1.05913  -1.05106  -0.96681  -0.95886
 Alpha  occ. eigenvalues --   -0.87303  -0.86498  -0.83468  -0.82723  -0.78467
 Alpha  occ. eigenvalues --   -0.77763  -0.72934  -0.72289  -0.72074  -0.71642
 Alpha  occ. eigenvalues --   -0.71421  -0.70788  -0.66141  -0.65871  -0.65334
 Alpha  occ. eigenvalues --   -0.65119  -0.63210  -0.62449  -0.56441  -0.55878
 Alpha  occ. eigenvalues --   -0.54028  -0.53970  -0.53401  -0.53187  -0.49712
 Alpha  occ. eigenvalues --   -0.49679  -0.49056  -0.49042  -0.45638  -0.45037
 Alpha  occ. eigenvalues --   -0.38592  -0.37924  -0.37212  -0.36714
 Alpha virt. eigenvalues --    0.03968   0.04742   0.10099   0.10900   0.15306
 Alpha virt. eigenvalues --    0.16285   0.20004   0.21531   0.26166   0.26376
 Alpha virt. eigenvalues --    0.27521   0.28733   0.30214   0.31231   0.31527

 Mulliken charges:
               1
     1  C   -0.187613
     2  C   -0.218502
     3  C   -0.174839
     4  C    0.159072
     5  C   -0.171241
     6  C   -0.217337
     7  H    0.226696
     8  H    0.231016
     9  H    0.279733
    10  H    0.279436
    11  H    0.227585
    12  N    0.487564
    13  O   -0.456915
    14  O   -0.457536
    15  C   -0.177485
    16  C   -0.224569
    17  C   -0.170328
    18  C    0.157896
    19  C   -0.170095
    20  C   -0.224416
    21  H    0.234215
    22  H    0.227288
    23  H    0.277838
    24  H    0.275737
    25  H    0.218091
    26  N    0.487984
    27  O   -0.460466
    28  O   -0.458808
 Sum of Mulliken charges =  -0.00000

 Dipole moment (field-independent basis, Debye):
    X=             -2.3862    Y=              6.3061    Z=             -0.0637  Tot=              6.7428
 Quadrupole moment (field-independent basis, Debye-Ang):
   XX=           -157.5164   YY=           -102.3244   ZZ=           -102.5866
   XY=             -7.8325   XZ=             -1.3361   YZ=             -0.5286

 Normal termination of Gaussian 16 at Thu May  6 18:02:25 2021.
