 Gaussian 16, Revision A.03,
 Gaussian 16:  EM64L-G16RevA.03 25-Dec-2016

 -------------
 #p 6-31g* mp2
 -------------

 ------------------------------------------------------
 Input file generated by CHIRIPA (05-May-2021 14:57:27)
 ------------------------------------------------------
 Symbolic Z-matrix:
 Charge =  0 Multiplicity = 1

                         Standard orientation:
 ---------------------------------------------------------------------
 Center     Atomic      Atomic             Coordinates (Angstroms)
 Number     Number       Type             X           Y           Z
 ---------------------------------------------------------------------
      1          6           0       -1.429098    1.011323    1.761724
      2          6           0       -1.921661    1.722289    0.662438
      3          6           0       -2.849070    1.136472   -0.204325
      4          6           0       -3.264123   -0.167954    0.059292
      5          6           0       -2.791838   -0.902133    1.146130
      6          6           0       -1.864990   -0.296313    1.999642
      7          1           0       -0.708882    1.474170    2.429899
      8          1           0       -1.584920    2.737965    0.475210
      9          1           0       -3.246691    1.664090   -1.062774
     10          1           0       -3.146266   -1.913054    1.306871
     11          1           0       -1.484167   -0.850847    2.852585
     12          7           0       -4.245633   -0.798720   -0.851297
     13          8           0       -4.595467   -1.949234   -0.597187
     14          8           0       -4.646522   -0.130658   -1.801885
     15          6           0        1.979706    2.304273   -0.503874
     16          6           0        2.531214    1.647054   -1.608602
     17          6           0        3.155638    0.405396   -1.457176
     18          6           0        3.210892   -0.152586   -0.180896
     19          6           0        2.670799    0.477461    0.939206
     20          6           0        2.051133    1.718412    0.764269
     21          1           0        1.496487    3.268548   -0.630638
     22          1           0        2.477216    2.099662   -2.594642
     23          1           0        3.590881   -0.125245   -2.295270
     24          1           0        2.740133    0.001208    1.909667
     25          1           0        1.623692    2.226527    1.624012
     26          7           0        3.869423   -1.466699   -0.008143
     27          8           0        3.905012   -1.937115    1.126793
     28          8           0        4.337522   -2.001402   -1.010946
 ---------------------------------------------------------------------

 SCF Done:  E(RHF) =  -868.335828468     A.U. after   16 cycles
 E2 =    -0.2601445018D+01 EUMP2 =    -0.87093727348648D+03

 The electronic state is 1-A.
 Alpha  occ. eigenvalues --  -20.61257 -20.61239 -20.61061 -20.61049 -15.86311
 Alpha  occ. eigenvalues --  -15.86116 -11.31797 -11.31580 -11.28446 -11.28334
 Alpha  occ. eigenvalues --  -11.28209 -11.28207 -11.28135 -11.28041 -11.27569
 Alpha  occ. eigenvalues --  -11.27383 -11.27317 -11.27185  -1.60322  -1.60131
 Alpha  occ. eigenvalues --   -1.39874  -1.39681  -1.19995  -1.19781  -1.09386
 Alpha  occ. eigenvalues --   -1.09175  -1.05432  -1.05203  -0.96188  -0.95996
 Alpha  occ. eigenvalues --   -0.86848  -0.86605  -0.83049  -0.82806  -0.78052
 Alpha  occ. eigenvalues --   -0.77829  -0.72529  -0.72335  -0.71645  -0.71454
 Alpha  occ. eigenvalues --   -0.71142  -0.70980  -0.65670  -0.65547  -0.65423
 Alpha  occ. eigenvalues --   -0.65195  -0.62791  -0.62552  -0.56032  -0.55749
 Alpha  occ. eigenvalues --   -0.53887  -0.53540  -0.53345  -0.53310  -0.49297
 Alpha  occ. eigenvalues --   -0.49274  -0.49103  -0.49080  -0.45253  -0.45065
 Alpha  occ. eigenvalues --   -0.38264  -0.37726  -0.36846  -0.36700
 Alpha virt. eigenvalues --    0.04386   0.04798   0.10307   0.11134   0.15618
 Alpha virt. eigenvalues --    0.16487   0.18309   0.22288   0.24721   0.25692
 Alpha virt. eigenvalues --    0.28209   0.28746   0.30007   0.31540   0.32740

 Mulliken charges:
               1
     1  C   -0.166106
     2  C   -0.215740
     3  C   -0.170633
     4  C    0.159058
     5  C   -0.169178
     6  C   -0.218792
     7  H    0.216461
     8  H    0.214866
     9  H    0.275179
    10  H    0.278520
    11  H    0.226043
    12  N    0.488040
    13  O   -0.457998
    14  O   -0.460634
    15  C   -0.170241
    16  C   -0.217458
    17  C   -0.169089
    18  C    0.159803
    19  C   -0.170149
    20  C   -0.215610
    21  H    0.222203
    22  H    0.226297
    23  H    0.278600
    24  H    0.273332
    25  H    0.213363
    26  N    0.488124
    27  O   -0.460959
    28  O   -0.457301
 Sum of Mulliken charges =  -0.00000

 Dipole moment (field-independent basis, Debye):
    X=              1.1714    Y=              6.6153    Z=              2.4251  Tot=              7.1425
 Quadrupole moment (field-independent basis, Debye-Ang):
   XX=           -143.0556   YY=           -104.6802   ZZ=            -98.3588
   XY=              7.4055   XZ=            -13.3057   YZ=             -4.0168

 Normal termination of Gaussian 16 at Wed May  5 16:34:22 2021.
