 Gaussian 16, Revision A.03,
 Gaussian 16:  EM64L-G16RevA.03 25-Dec-2016

 -------------
 #p 6-31g* mp2
 -------------

 ------------------------------------------------------
 Input file generated by CHIRIPA (05-May-2021 14:53:18)
 ------------------------------------------------------
 Symbolic Z-matrix:
 Charge =  0 Multiplicity = 1

                         Standard orientation:
 ---------------------------------------------------------------------
 Center     Atomic      Atomic             Coordinates (Angstroms)
 Number     Number       Type             X           Y           Z
 ---------------------------------------------------------------------
      1          6           0       -3.708428   -0.679134    0.816443
      2          6           0       -2.196493   -0.904085    0.854333
      3          6           0       -1.776888   -1.923610    1.913717
      4          1           0       -4.047579   -0.342741    1.805767
      5          1           0       -4.209976   -1.637537    0.623289
      6          1           0       -1.697877    0.054700    1.045984
      7          1           0       -1.860874   -1.239797   -0.135249
      8          1           0       -2.247671   -2.893424    1.722863
      9          1           0       -2.083748   -1.591573    2.910807
     10          1           0       -0.692178   -2.069106    1.923485
     11          6           0       -4.143429    0.337466   -0.237609
     12          6           0       -5.655363    0.562417   -0.275500
     13          6           0       -6.074969    1.581943   -1.334883
     14          1           0       -3.641881    1.295869   -0.044455
     15          1           0       -3.804278    0.001074   -1.226933
     16          1           0       -5.990983    0.898129    0.714083
     17          1           0       -6.153980   -0.396367   -0.467150
     18          1           0       -5.768109    1.249905   -2.331973
     19          1           0       -5.604186    2.551757   -1.144029
     20          1           0       -7.159679    1.727438   -1.344651
     21          6           0        2.368226   -2.108253   -1.149232
     22          6           0        1.403904   -1.133248   -0.873602
     23          6           0        1.779681    0.112352   -0.361919
     24          6           0        3.134699    0.350185   -0.136863
     25          6           0        4.119085   -0.600775   -0.401344
     26          6           0        3.720354   -1.839379   -0.912641
     27          1           0        2.067398   -3.073147   -1.546570
     28          1           0        0.353097   -1.339281   -1.056355
     29          1           0        1.053967    0.885222   -0.139591
     30          1           0        5.158923   -0.366103   -0.208772
     31          1           0        4.471442   -2.594687   -1.125762
     32          7           0        3.544667    1.665142    0.404629
     33          8           0        4.744907    1.849946    0.594128
     34          8           0        2.657997    2.486104    0.629298
 ---------------------------------------------------------------------

 SCF Done:  E(RHF) =  -669.535637172     A.U. after   15 cycles
 E2 =    -0.2091619132D+01 EUMP2 =    -0.67162725630365D+03

 The electronic state is 1-A.
 Alpha  occ. eigenvalues --  -20.60739 -20.60734 -15.85792 -11.31147 -11.27722
 Alpha  occ. eigenvalues --  -11.27703 -11.27456 -11.26736 -11.26683 -11.22474
 Alpha  occ. eigenvalues --  -11.21976 -11.21957 -11.21846 -11.21701 -11.21341
 Alpha  occ. eigenvalues --   -1.59815  -1.39369  -1.19320  -1.08989  -1.08716
 Alpha  occ. eigenvalues --   -1.04721  -1.04067  -0.96478  -0.95553  -0.87495
 Alpha  occ. eigenvalues --   -0.86119  -0.82388  -0.80178  -0.78801  -0.77421
 Alpha  occ. eigenvalues --   -0.72011  -0.71138  -0.70429  -0.65642  -0.64969
 Alpha  occ. eigenvalues --   -0.64719  -0.62108  -0.61446  -0.59849  -0.58096
 Alpha  occ. eigenvalues --   -0.55751  -0.55222  -0.53204  -0.53055  -0.52868
 Alpha  occ. eigenvalues --   -0.52813  -0.50415  -0.48777  -0.48766  -0.48454
 Alpha  occ. eigenvalues --   -0.47200  -0.46327  -0.46231  -0.44776  -0.44311
 Alpha  occ. eigenvalues --   -0.37303  -0.36313
 Alpha virt. eigenvalues --    0.05087   0.11297   0.16521   0.19975   0.22664
 Alpha virt. eigenvalues --    0.23876   0.25101   0.25661   0.27442   0.28107
 Alpha virt. eigenvalues --    0.29031   0.29527   0.31283   0.31399   0.31898

 Mulliken charges:
               1
     1  C   -0.297579
     2  C   -0.305048
     3  C   -0.477999
     4  H    0.153805
     5  H    0.150417
     6  H    0.154436
     7  H    0.141833
     8  H    0.155252
     9  H    0.160619
    10  H    0.162017
    11  C   -0.299273
    12  C   -0.300090
    13  C   -0.476202
    14  H    0.151920
    15  H    0.146947
    16  H    0.153774
    17  H    0.151956
    18  H    0.154754
    19  H    0.157025
    20  H    0.161639
    21  C   -0.172427
    22  C   -0.222460
    23  C   -0.174472
    24  C    0.158742
    25  C   -0.170970
    26  C   -0.218549
    27  H    0.225764
    28  H    0.231795
    29  H    0.276776
    30  H    0.275447
    31  H    0.223219
    32  N    0.488173
    33  O   -0.460612
    34  O   -0.460625
 Sum of Mulliken charges =  -0.00000

 Dipole moment (field-independent basis, Debye):
    X=             -1.5996    Y=             -4.6092    Z=             -1.8241  Tot=              5.2088
 Quadrupole moment (field-independent basis, Debye-Ang):
   XX=            -98.8698   YY=            -98.1418   ZZ=            -94.9384
   XY=            -16.5398   XZ=             -6.4304   YZ=              1.0158

 Normal termination of Gaussian 16 at Thu May  6 13:59:07 2021.
