 Gaussian 16, Revision A.03,
 Gaussian 16:  EM64L-G16RevA.03 25-Dec-2016

 -------------
 #p 6-31g* mp2
 -------------

 ------------------------------------------------------
 Input file generated by CHIRIPA (05-May-2021 14:55:22)
 ------------------------------------------------------
 Symbolic Z-matrix:
 Charge =  0 Multiplicity = 1

                         Standard orientation:
 ---------------------------------------------------------------------
 Center     Atomic      Atomic             Coordinates (Angstroms)
 Number     Number       Type             X           Y           Z
 ---------------------------------------------------------------------
      1          6           0        1.351846   -1.375576    1.866944
      2          6           0        2.737619   -1.548020    1.786831
      3          6           0        3.484431   -0.859477    0.826244
      4          6           0        2.810035   -0.002578   -0.042205
      5          6           0        1.430523    0.190399    0.012526
      6          6           0        0.703863   -0.508446    0.981097
      7          1           0        0.779532   -1.914455    2.616252
      8          1           0        3.243514   -2.220793    2.473483
      9          1           0        4.558280   -0.974300    0.742088
     10          1           0        0.954284    0.867918   -0.685745
     11          1           0       -0.372238   -0.372566    1.040993
     12          7           0        3.589984    0.731805   -1.063362
     13          8           0        2.972149    1.480937   -1.816832
     14          8           0        4.804376    0.544376   -1.090939
     15          6           0       -3.435001    0.638665    0.432403
     16          6           0       -3.191298    2.094973    0.035209
     17          6           0       -3.199581    3.043994    1.233993
     18          1           0       -4.398817    0.563981    0.954346
     19          1           0       -2.664893    0.328414    1.152176
     20          1           0       -3.960824    2.401960   -0.684655
     21          1           0       -2.228039    2.166168   -0.486018
     22          1           0       -2.420821    2.765381    1.951286
     23          1           0       -4.163451    3.002513    1.751520
     24          1           0       -3.023480    4.079748    0.927299
     25          6           0       -3.429613   -0.322215   -0.755203
     26          6           0       -3.673316   -1.778523   -0.358009
     27          6           0       -3.665033   -2.727544   -1.556793
     28          1           0       -4.199721   -0.011965   -1.474976
     29          1           0       -2.465797   -0.247531   -1.277146
     30          1           0       -4.636575   -1.849718    0.163218
     31          1           0       -2.903789   -2.085510    0.361856
     32          1           0       -2.701162   -2.686064   -2.074320
     33          1           0       -4.443793   -2.448932   -2.274086
     34          1           0       -3.841133   -3.763299   -1.250099
 ---------------------------------------------------------------------

 SCF Done:  E(RHF) =  -669.535474681     A.U. after   15 cycles
 E2 =    -0.2091835939D+01 EUMP2 =    -0.67162731061988D+03

 The electronic state is 1-A.
 Alpha  occ. eigenvalues --  -20.60769 -20.60764 -15.85823 -11.31194 -11.27766
 Alpha  occ. eigenvalues --  -11.27762 -11.27504 -11.26778 -11.26751 -11.22376
 Alpha  occ. eigenvalues --  -11.22362 -11.22304 -11.22176 -11.21656 -11.21630
 Alpha  occ. eigenvalues --   -1.59845  -1.39398  -1.19366  -1.09250  -1.08759
 Alpha  occ. eigenvalues --   -1.04770  -1.04231  -0.96673  -0.95594  -0.87680
 Alpha  occ. eigenvalues --   -0.86171  -0.82428  -0.80296  -0.79068  -0.77476
 Alpha  occ. eigenvalues --   -0.72041  -0.71168  -0.70476  -0.66016  -0.65017
 Alpha  occ. eigenvalues --   -0.64707  -0.62109  -0.61626  -0.60032  -0.58280
 Alpha  occ. eigenvalues --   -0.55981  -0.55262  -0.53323  -0.53102  -0.53098
 Alpha  occ. eigenvalues --   -0.52840  -0.50615  -0.48803  -0.48796  -0.48600
 Alpha  occ. eigenvalues --   -0.47350  -0.46573  -0.46544  -0.44802  -0.44520
 Alpha  occ. eigenvalues --   -0.37346  -0.36372
 Alpha virt. eigenvalues --    0.05058   0.11254   0.16524   0.17957   0.23151
 Alpha virt. eigenvalues --    0.23503   0.24922   0.25067   0.27156   0.28684
 Alpha virt. eigenvalues --    0.29636   0.30772   0.31293   0.31344   0.32112

 Mulliken charges:
               1
     1  C   -0.173038
     2  C   -0.218431
     3  C   -0.171015
     4  C    0.159085
     5  C   -0.174719
     6  C   -0.227576
     7  H    0.226102
     8  H    0.223478
     9  H    0.275648
    10  H    0.275948
    11  H    0.236608
    12  N    0.488078
    13  O   -0.460438
    14  O   -0.460450
    15  C   -0.302834
    16  C   -0.300442
    17  C   -0.476007
    18  H    0.154898
    19  H    0.139844
    20  H    0.156956
    21  H    0.149905
    22  H    0.153295
    23  H    0.156763
    24  H    0.164948
    25  C   -0.300431
    26  C   -0.298923
    27  C   -0.476366
    28  H    0.155206
    29  H    0.148006
    30  H    0.154387
    31  H    0.144544
    32  H    0.157505
    33  H    0.157874
    34  H    0.161591
 Sum of Mulliken charges =  -0.00000

 Dipole moment (field-independent basis, Debye):
    X=             -2.9403    Y=             -2.5456    Z=              3.5227  Tot=              5.2473
 Quadrupole moment (field-independent basis, Debye-Ang):
   XX=           -104.8846   YY=            -94.6999   ZZ=            -95.6715
   XY=             -9.7800   XZ=             12.3170   YZ=             -1.3427

 Normal termination of Gaussian 16 at Wed May  5 19:01:21 2021.
