 Gaussian 16, Revision A.03,
 Gaussian 16:  EM64L-G16RevA.03 25-Dec-2016

 -------------
 #p 6-31g* mp2
 -------------

 ------------------------------------------------------
 Input file generated by CHIRIPA (05-May-2021 14:51:12)
 ------------------------------------------------------
 Symbolic Z-matrix:
 Charge =  0 Multiplicity = 1

                         Standard orientation:
 ---------------------------------------------------------------------
 Center     Atomic      Atomic             Coordinates (Angstroms)
 Number     Number       Type             X           Y           Z
 ---------------------------------------------------------------------
      1          6           0       -3.140777   -0.524585   -0.596379
      2          6           0       -3.232455   -1.465564    0.605344
      3          6           0       -4.022789   -2.738453    0.300516
      4          1           0       -4.155116   -0.258499   -0.923885
      5          1           0       -2.671087   -1.056912   -1.435076
      6          1           0       -3.700576   -0.931189    1.441958
      7          1           0       -2.217778   -1.729288    0.930147
      8          1           0       -3.554683   -3.296027   -0.517157
      9          1           0       -5.045906   -2.493394   -0.002438
     10          1           0       -4.075862   -3.396742    1.173269
     11          6           0       -2.353678    0.752372   -0.307266
     12          6           0       -2.262001    1.693351   -1.508989
     13          6           0       -1.471666    2.966240   -1.204160
     14          1           0       -2.823369    1.284699    0.531431
     15          1           0       -1.339340    0.486286    0.020240
     16          1           0       -3.276677    1.957075   -1.833792
     17          1           0       -1.793880    1.158976   -2.345603
     18          1           0       -0.448550    2.721181   -0.901207
     19          1           0       -1.939773    3.523815   -0.386488
     20          1           0       -1.418594    3.624529   -2.076914
     21          6           0        2.821625   -0.335392   -0.275389
     22          6           0        4.222828   -0.845550   -0.613549
     23          6           0        4.355960   -1.284974   -2.071964
     24          1           0        2.088975   -1.125359   -0.490150
     25          1           0        2.576080    0.506882   -0.936960
     26          1           0        4.466204   -1.685722    0.049393
     27          1           0        4.952246   -0.054342   -0.397777
     28          1           0        4.139350   -0.450692   -2.746987
     29          1           0        3.650546   -2.091341   -2.297274
     30          1           0        5.365474   -1.646032   -2.291914
     31          6           0        2.672831    0.107604    1.179033
     32          6           0        1.271627    0.617762    1.517195
     33          6           0        1.138496    1.057187    2.975609
     34          1           0        2.918376   -0.734669    1.840605
     35          1           0        3.405481    0.897572    1.393794
     36          1           0        0.542209   -0.173444    1.301423
     37          1           0        1.028252    1.457935    0.854251
     38          1           0        1.843911    1.863554    3.200919
     39          1           0        1.355106    0.222905    3.650631
     40          1           0        0.128982    1.418245    3.195559
 ---------------------------------------------------------------------

 SCF Done:  E(RHF) =  -470.732714872     A.U. after   11 cycles
 E2 =    -0.1584015240D+01 EUMP2 =    -0.47231673011279D+03

 The electronic state is 1-A.
 Alpha  occ. eigenvalues --  -11.21651 -11.21650 -11.21602 -11.21546 -11.21468
 Alpha  occ. eigenvalues --  -11.21405 -11.21337 -11.21217 -11.21112 -11.21093
 Alpha  occ. eigenvalues --  -11.21070 -11.21053  -1.08501  -1.08372  -1.03588
 Alpha  occ. eigenvalues --   -1.03495  -0.96024  -0.95947  -0.87042  -0.86966
 Alpha  occ. eigenvalues --   -0.79730  -0.79528  -0.78436  -0.78053  -0.65134
 Alpha  occ. eigenvalues --   -0.65014  -0.61021  -0.60876  -0.59431  -0.59279
 Alpha  occ. eigenvalues --   -0.57657  -0.57541  -0.55326  -0.55226  -0.52719
 Alpha  occ. eigenvalues --   -0.52650  -0.52450  -0.52381  -0.50011  -0.49863
 Alpha  occ. eigenvalues --   -0.48188  -0.47816  -0.46743  -0.46572  -0.46196
 Alpha  occ. eigenvalues --   -0.45749  -0.45688  -0.45115  -0.43823  -0.43739
 Alpha virt. eigenvalues --    0.20872   0.22846   0.23379   0.24151   0.25446
 Alpha virt. eigenvalues --    0.25876   0.27024   0.27948   0.28311   0.29443
 Alpha virt. eigenvalues --    0.30445   0.31523   0.31743   0.31875   0.32051

 Mulliken charges:
               1
     1  C   -0.297722
     2  C   -0.300443
     3  C   -0.475636
     4  H    0.149342
     5  H    0.149028
     6  H    0.152024
     7  H    0.151416
     8  H    0.155052
     9  H    0.155408
    10  H    0.160093
    11  C   -0.308408
    12  C   -0.298857
    13  C   -0.479405
    14  H    0.148061
    15  H    0.162713
    16  H    0.151525
    17  H    0.151622
    18  H    0.157880
    19  H    0.155071
    20  H    0.160038
    21  C   -0.298732
    22  C   -0.299580
    23  C   -0.475780
    24  H    0.148947
    25  H    0.149146
    26  H    0.152146
    27  H    0.152242
    28  H    0.155306
    29  H    0.155096
    30  H    0.160494
    31  C   -0.297170
    32  C   -0.309360
    33  C   -0.475438
    34  H    0.149689
    35  H    0.149920
    36  H    0.155042
    37  H    0.157333
    38  H    0.155275
    39  H    0.155131
    40  H    0.161491
 Sum of Mulliken charges =  -0.00000

 Dipole moment (field-independent basis, Debye):
    X=              0.0471    Y=              0.0018    Z=              0.0280  Tot=              0.0548
 Quadrupole moment (field-independent basis, Debye-Ang):
   XX=            -84.3860   YY=            -84.7861   ZZ=            -85.6818
   XY=             -0.5456   XZ=             -0.1379   YZ=             -0.4869

 Normal termination of Gaussian 16 at Thu May  6 03:54:49 2021.
