 Gaussian 16, Revision A.03,
 Gaussian 16:  EM64L-G16RevA.03 25-Dec-2016

 -------------
 #p 6-31g* mp2
 -------------

 ------------------------------------------------------
 Input file generated by CHIRIPA (05-May-2021 14:51:13)
 ------------------------------------------------------
 Symbolic Z-matrix:
 Charge =  0 Multiplicity = 1

                         Standard orientation:
 ---------------------------------------------------------------------
 Center     Atomic      Atomic             Coordinates (Angstroms)
 Number     Number       Type             X           Y           Z
 ---------------------------------------------------------------------
      1          6           0        2.755319   -0.861052    0.239606
      2          6           0        1.524643   -0.536177    1.086883
      3          6           0        0.523843   -1.690765    1.142751
      4          1           0        2.433808   -1.119091   -0.778722
      5          1           0        3.247439   -1.754656    0.647877
      6          1           0        1.035774    0.357359    0.677962
      7          1           0        1.849134   -0.278696    2.103261
      8          1           0        0.989825   -2.584114    1.570990
      9          1           0        0.171843   -1.944445    0.137593
     10          1           0       -0.348137   -1.437021    1.753591
     11          6           0        3.765057    0.283443    0.174133
     12          6           0        4.995733   -0.041432   -0.673143
     13          6           0        5.996532    1.113156   -0.729012
     14          1           0        3.272937    1.177047   -0.234137
     15          1           0        4.086568    0.541481    1.192461
     16          1           0        4.671241   -0.298913   -1.689521
     17          1           0        5.484602   -0.934968   -0.264222
     18          1           0        6.348532    1.366835    0.276147
     19          1           0        5.530550    2.006505   -1.157250
     20          1           0        6.868512    0.859412   -1.339851
     21          6           0       -2.870736    0.914417   -0.005949
     22          6           0       -3.688547    2.201148   -0.122109
     23          6           0       -2.895760    3.444098    0.283301
     24          1           0       -2.517155    0.804330    1.028366
     25          1           0       -1.974116    1.000000   -0.635349
     26          1           0       -4.584063    2.112617    0.506247
     27          1           0       -4.040383    2.308087   -1.156223
     28          1           0       -2.010657    3.560173   -0.350514
     29          1           0       -2.557427    3.363594    1.321401
     30          1           0       -3.499415    4.352530    0.192698
     31          6           0       -3.649639   -0.336808   -0.407791
     32          6           0       -2.831828   -1.623539   -0.291631
     33          6           0       -3.624616   -2.866488   -0.697041
     34          1           0       -4.546259   -0.422390    0.221609
     35          1           0       -4.003220   -0.226721   -1.442106
     36          1           0       -2.479993   -1.730477    0.742483
     37          1           0       -1.936313   -1.535007   -0.919986
     38          1           0       -3.962948   -2.785985   -1.735141
     39          1           0       -4.509718   -2.982564   -0.063226
     40          1           0       -3.020960   -3.774921   -0.606438
 ---------------------------------------------------------------------

 SCF Done:  E(RHF) =  -470.731638286     A.U. after   11 cycles
 E2 =    -0.1583818396D+01 EUMP2 =    -0.47231545668144D+03

 The electronic state is 1-A.
 Alpha  occ. eigenvalues --  -11.21612 -11.21588 -11.21528 -11.21478 -11.21403
 Alpha  occ. eigenvalues --  -11.21378 -11.21326 -11.21318 -11.21084 -11.21061
 Alpha  occ. eigenvalues --  -11.21016 -11.20912  -1.08436  -1.08377  -1.03552
 Alpha  occ. eigenvalues --   -1.03443  -0.95978  -0.95924  -0.87047  -0.86899
 Alpha  occ. eigenvalues --   -0.79757  -0.79397  -0.78260  -0.78167  -0.65078
 Alpha  occ. eigenvalues --   -0.65011  -0.60961  -0.60873  -0.59446  -0.59201
 Alpha  occ. eigenvalues --   -0.57621  -0.57513  -0.55266  -0.55222  -0.52771
 Alpha  occ. eigenvalues --   -0.52581  -0.52376  -0.52347  -0.49975  -0.49871
 Alpha  occ. eigenvalues --   -0.47924  -0.47838  -0.46653  -0.46498  -0.45848
 Alpha  occ. eigenvalues --   -0.45712  -0.45671  -0.45528  -0.43781  -0.43642
 Alpha virt. eigenvalues --    0.21388   0.23172   0.23880   0.24325   0.25047
 Alpha virt. eigenvalues --    0.26371   0.27209   0.27388   0.28003   0.29500
 Alpha virt. eigenvalues --    0.30311   0.31063   0.31725   0.31987   0.32373

 Mulliken charges:
               1
     1  C   -0.298434
     2  C   -0.300992
     3  C   -0.476862
     4  H    0.149022
     5  H    0.149462
     6  H    0.152868
     7  H    0.151276
     8  H    0.153325
     9  H    0.159232
    10  H    0.160825
    11  C   -0.298175
    12  C   -0.299592
    13  C   -0.475671
    14  H    0.149355
    15  H    0.149670
    16  H    0.151747
    17  H    0.151907
    18  H    0.155194
    19  H    0.155124
    20  H    0.160174
    21  C   -0.299200
    22  C   -0.299604
    23  C   -0.475661
    24  H    0.149862
    25  H    0.149346
    26  H    0.152049
    27  H    0.152006
    28  H    0.154833
    29  H    0.155313
    30  H    0.160336
    31  C   -0.298133
    32  C   -0.301780
    33  C   -0.475889
    34  H    0.149125
    35  H    0.149067
    36  H    0.157068
    37  H    0.152181
    38  H    0.154494
    39  H    0.154796
    40  H    0.160335
 Sum of Mulliken charges =  -0.00000

 Dipole moment (field-independent basis, Debye):
    X=             -0.0194    Y=             -0.0092    Z=              0.0092  Tot=              0.0234
 Quadrupole moment (field-independent basis, Debye-Ang):
   XX=            -85.5207   YY=            -86.2154   ZZ=            -83.2632
   XY=             -1.1744   XZ=              0.0032   YZ=             -0.5892

 Normal termination of Gaussian 16 at Wed May  5 19:57:25 2021.
