 Gaussian 16, Revision A.03,
 Gaussian 16:  EM64L-G16RevA.03 25-Dec-2016

 -------------
 #p 6-31g* mp2
 -------------

 ------------------------------------------------------
 Input file generated by CHIRIPA (05-May-2021 14:57:21)
 ------------------------------------------------------
 Symbolic Z-matrix:
 Charge =  0 Multiplicity = 1

                         Standard orientation:
 ---------------------------------------------------------------------
 Center     Atomic      Atomic             Coordinates (Angstroms)
 Number     Number       Type             X           Y           Z
 ---------------------------------------------------------------------
      1          6           0        6.340520   -0.073995   -0.656198
      2          6           0        5.769118    1.054303   -0.058733
      3          6           0        4.450295    1.021554    0.404065
      4          6           0        3.728478   -0.161377    0.252588
      5          6           0        4.269730   -1.302053   -0.338338
      6          6           0        5.590325   -1.246505   -0.793851
      7          1           0        7.365701   -0.039699   -1.012880
      8          1           0        6.349360    1.966252    0.049496
      9          1           0        3.983185    1.880463    0.870435
     10          1           0        3.666347   -2.196774   -0.432260
     11          1           0        6.031489   -2.124284   -1.257448
     12          7           0        2.331361   -0.208115    0.738675
     13          8           0        1.716521   -1.262398    0.593433
     14          8           0        1.877597    0.810419    1.255707
     15          6           0       -2.154387    1.883749   -0.514634
     16          6           0       -1.828235    0.523554   -0.510520
     17          6           0       -2.819808   -0.443777   -0.321834
     18          6           0       -4.133178   -0.013583   -0.139396
     19          6           0       -4.489692    1.334077   -0.138407
     20          6           0       -3.481734    2.283963   -0.328892
     21          1           0       -1.377745    2.628420   -0.661908
     22          1           0       -0.798242    0.209834   -0.654526
     23          1           0       -2.595161   -1.503443   -0.314158
     24          1           0       -5.525307    1.616159    0.007701
     25          1           0       -3.737946    3.339612   -0.331617
     26          7           0       -5.191584   -1.028420    0.061309
     27          8           0       -6.341179   -0.623543    0.219880
     28          8           0       -4.851529   -2.209510    0.056251
 ---------------------------------------------------------------------

 SCF Done:  E(RHF) =  -868.339984094     A.U. after   16 cycles
 E2 =    -0.2598655330D+01 EUMP2 =    -0.87093863942314D+03

 The electronic state is 1-A.
 Alpha  occ. eigenvalues --  -20.61848 -20.61833 -20.59878 -20.59866 -15.86859
 Alpha  occ. eigenvalues --  -15.84917 -11.31955 -11.30089 -11.28497 -11.28476
 Alpha  occ. eigenvalues --  -11.28170 -11.27437 -11.27418 -11.26679 -11.26526
 Alpha  occ. eigenvalues --  -11.26304 -11.25690 -11.25417  -1.60914  -1.58953
 Alpha  occ. eigenvalues --   -1.40467  -1.38512  -1.20100  -1.18226  -1.09544
 Alpha  occ. eigenvalues --   -1.07658  -1.05457  -1.03579  -0.96421  -0.94531
 Alpha  occ. eigenvalues --   -0.86867  -0.84991  -0.83258  -0.81357  -0.78342
 Alpha  occ. eigenvalues --   -0.76432  -0.73066  -0.72231  -0.71196  -0.71143
 Alpha  occ. eigenvalues --   -0.70272  -0.69342  -0.65750  -0.65451  -0.63870
 Alpha  occ. eigenvalues --   -0.63560  -0.62805  -0.60922  -0.55960  -0.54106
 Alpha  occ. eigenvalues --   -0.53804  -0.53540  -0.51943  -0.51667  -0.49840
 Alpha  occ. eigenvalues --   -0.49793  -0.47907  -0.47880  -0.45929  -0.43960
 Alpha  occ. eigenvalues --   -0.38063  -0.37048  -0.36203  -0.35169
 Alpha virt. eigenvalues --    0.04128   0.06068   0.10611   0.12478   0.15688
 Alpha virt. eigenvalues --    0.17623   0.20796   0.22627   0.26731   0.27635
 Alpha virt. eigenvalues --    0.28567   0.29410   0.30406   0.31845   0.32169

 Mulliken charges:
               1
     1  C   -0.169650
     2  C   -0.218532
     3  C   -0.171146
     4  C    0.157614
     5  C   -0.170644
     6  C   -0.218496
     7  H    0.228313
     8  H    0.225420
     9  H    0.275175
    10  H    0.276895
    11  H    0.226241
    12  N    0.486378
    13  O   -0.462131
    14  O   -0.461725
    15  C   -0.170314
    16  C   -0.214912
    17  C   -0.172733
    18  C    0.157721
    19  C   -0.173270
    20  C   -0.219031
    21  H    0.223905
    22  H    0.235479
    23  H    0.276805
    24  H    0.271538
    25  H    0.218683
    26  N    0.488158
    27  O   -0.464198
    28  O   -0.461541
 Sum of Mulliken charges =  -0.00000

 Dipole moment (field-independent basis, Debye):
    X=              9.2698    Y=              3.6540    Z=             -2.4108  Tot=             10.2514
 Quadrupole moment (field-independent basis, Debye-Ang):
   XX=            -97.7164   YY=            -98.3205   ZZ=           -106.6613
   XY=            -17.3469   XZ=             -3.2972   YZ=              1.9260

 Normal termination of Gaussian 16 at Thu May  6 01:41:58 2021.
