 Gaussian 16, Revision A.03,
 Gaussian 16:  EM64L-G16RevA.03 25-Dec-2016

 -------------
 #p 6-31g* mp2
 -------------

 ------------------------------------------------------
 Input file generated by CHIRIPA (05-May-2021 14:53:16)
 ------------------------------------------------------
 Symbolic Z-matrix:
 Charge =  0 Multiplicity = 1

                         Standard orientation:
 ---------------------------------------------------------------------
 Center     Atomic      Atomic             Coordinates (Angstroms)
 Number     Number       Type             X           Y           Z
 ---------------------------------------------------------------------
      1          6           0        2.342618    0.885445   -0.179509
      2          6           0        3.087163    2.148319   -0.614005
      3          6           0        2.170701    3.367500   -0.721196
      4          1           0        1.536303    0.677941   -0.896268
      5          1           0        1.859374    1.068447    0.790223
      6          1           0        3.570007    1.962537   -1.581973
      7          1           0        3.891921    2.352733    0.103767
      8          1           0        1.699019    3.580877    0.243473
      9          1           0        1.375277    3.188465   -1.451845
     10          1           0        2.723509    4.259102   -1.033140
     11          6           0        3.245378   -0.341861   -0.067819
     12          6           0        2.500833   -1.604735    0.366676
     13          6           0        3.417295   -2.823915    0.473868
     14          1           0        3.728622   -0.524863   -1.037552
     15          1           0        4.051692   -0.134357    0.648940
     16          1           0        1.696075   -1.809149   -0.351095
     17          1           0        2.017988   -1.418953    1.334644
     18          1           0        4.212719   -2.644881    1.204517
     19          1           0        3.888977   -3.037293   -0.490801
     20          1           0        2.864487   -3.715518    0.785812
     21          6           0       -1.796122   -2.588256   -0.659301
     22          6           0       -2.709812   -1.776992   -1.340141
     23          6           0       -2.932061   -0.459024   -0.930125
     24          6           0       -2.220194    0.017358    0.169691
     25          6           0       -1.303265   -0.766222    0.868644
     26          6           0       -1.096997   -2.081176    0.440979
     27          1           0       -1.629681   -3.610915   -0.984666
     28          1           0       -3.254177   -2.168131   -2.194963
     29          1           0       -3.633587    0.190826   -1.439019
     30          1           0       -0.775537   -0.348213    1.717283
     31          1           0       -0.386804   -2.708929    0.971634
     32          7           0       -2.447020    1.411036    0.613099
     33          8           0       -1.807267    1.807003    1.584985
     34          8           0       -3.260265    2.081044   -0.019641
 ---------------------------------------------------------------------

 SCF Done:  E(RHF) =  -669.534789094     A.U. after   15 cycles
 E2 =    -0.2093619725D+01 EUMP2 =    -0.67162840881853D+03

 The electronic state is 1-A.
 Alpha  occ. eigenvalues --  -20.60766 -20.60761 -15.85815 -11.31176 -11.27724
 Alpha  occ. eigenvalues --  -11.27711 -11.27463 -11.26759 -11.26700 -11.22139
 Alpha  occ. eigenvalues --  -11.21683 -11.21642 -11.21464 -11.21377 -11.20663
 Alpha  occ. eigenvalues --   -1.59837  -1.39391  -1.19342  -1.08746  -1.08610
 Alpha  occ. eigenvalues --   -1.04744  -1.03691  -0.96114  -0.95574  -0.87131
 Alpha  occ. eigenvalues --   -0.86138  -0.82419  -0.79830  -0.78403  -0.77415
 Alpha  occ. eigenvalues --   -0.72035  -0.71155  -0.70445  -0.65260  -0.64989
 Alpha  occ. eigenvalues --   -0.64739  -0.62104  -0.61085  -0.59553  -0.57723
 Alpha  occ. eigenvalues --   -0.55377  -0.55240  -0.53151  -0.52835  -0.52790
 Alpha  occ. eigenvalues --   -0.52517  -0.50048  -0.48794  -0.48789  -0.48084
 Alpha  occ. eigenvalues --   -0.46857  -0.45913  -0.45798  -0.44784  -0.43936
 Alpha  occ. eigenvalues --   -0.37316  -0.36249
 Alpha virt. eigenvalues --    0.05060   0.11211   0.16532   0.20220   0.22895
 Alpha virt. eigenvalues --    0.23925   0.24961   0.26534   0.26935   0.28575
 Alpha virt. eigenvalues --    0.29467   0.30567   0.31209   0.31775   0.32345

 Mulliken charges:
               1
     1  C   -0.301251
     2  C   -0.300064
     3  C   -0.477052
     4  H    0.149982
     5  H    0.153123
     6  H    0.150087
     7  H    0.151609
     8  H    0.164194
     9  H    0.155508
    10  H    0.159361
    11  C   -0.297557
    12  C   -0.305071
    13  C   -0.475572
    14  H    0.150099
    15  H    0.150915
    16  H    0.155771
    17  H    0.143307
    18  H    0.158675
    19  H    0.157650
    20  H    0.153339
    21  C   -0.173725
    22  C   -0.218262
    23  C   -0.171827
    24  C    0.157924
    25  C   -0.168889
    26  C   -0.216578
    27  H    0.225476
    28  H    0.223235
    29  H    0.275336
    30  H    0.275218
    31  H    0.227856
    32  N    0.488532
    33  O   -0.460995
    34  O   -0.460351
 Sum of Mulliken charges =  -0.00000

 Dipole moment (field-independent basis, Debye):
    X=              0.8118    Y=             -4.7907    Z=             -1.5713  Tot=              5.1067
 Quadrupole moment (field-independent basis, Debye-Ang):
   XX=            -96.8672   YY=            -96.3305   ZZ=            -92.1018
   XY=             11.2304   XZ=              6.5977   YZ=             -0.8643

 Normal termination of Gaussian 16 at Thu May  6 07:30:21 2021.
