 Gaussian 16, Revision A.03,
 Gaussian 16:  EM64L-G16RevA.03 25-Dec-2016

 -------------
 #p 6-31g* mp2
 -------------

 ------------------------------------------------------
 Input file generated by CHIRIPA (05-May-2021 14:55:24)
 ------------------------------------------------------
 Symbolic Z-matrix:
 Charge =  0 Multiplicity = 1

                         Standard orientation:
 ---------------------------------------------------------------------
 Center     Atomic      Atomic             Coordinates (Angstroms)
 Number     Number       Type             X           Y           Z
 ---------------------------------------------------------------------
      1          6           0       -2.627369    2.019635   -1.191179
      2          6           0       -1.433815    1.292656   -1.132434
      3          6           0       -1.408661    0.013367   -0.569109
      4          6           0       -2.600860   -0.510702   -0.071813
      5          6           0       -3.805878    0.188789   -0.115793
      6          6           0       -3.807511    1.466357   -0.683566
      7          1           0       -2.637774    3.012749   -1.630510
      8          1           0       -0.515786    1.719826   -1.525871
      9          1           0       -0.498637   -0.571333   -0.510793
     10          1           0       -4.705037   -0.263519    0.284641
     11          1           0       -4.735906    2.028643   -0.727842
     12          7           0       -2.586680   -1.864117    0.526908
     13          8           0       -3.650499   -2.303462    0.958073
     14          8           0       -1.512017   -2.459951    0.553684
     15          6           0        3.679428    0.033719   -0.374162
     16          6           0        4.359207   -1.287080   -0.011709
     17          6           0        5.049691   -1.944142   -1.207241
     18          1           0        2.944413   -0.146003   -1.170653
     19          1           0        4.428666    0.721742   -0.789689
     20          1           0        3.609171   -1.971920    0.404293
     21          1           0        5.092552   -1.104226    0.784145
     22          1           0        5.818310   -1.282511   -1.619636
     23          1           0        4.326501   -2.155134   -2.001646
     24          1           0        5.529053   -2.886902   -0.925685
     25          6           0        2.984756    0.702646    0.810615
     26          6           0        2.304977    2.023447    0.448162
     27          6           0        1.614492    2.680507    1.643694
     28          1           0        2.235518    0.014623    1.226142
     29          1           0        3.719770    0.882369    1.607106
     30          1           0        1.571631    1.840592   -0.347692
     31          1           0        3.055013    2.708285    0.032160
     32          1           0        2.337682    2.891500    2.438099
     33          1           0        0.845873    2.018876    2.056089
     34          1           0        1.135130    3.623268    1.362138
 ---------------------------------------------------------------------

 SCF Done:  E(RHF) =  -669.535458435     A.U. after   15 cycles
 E2 =    -0.2092004147D+01 EUMP2 =    -0.67162746258143D+03

 The electronic state is 1-A.
 Alpha  occ. eigenvalues --  -20.60805 -20.60799 -15.85858 -11.31221 -11.27792
 Alpha  occ. eigenvalues --  -11.27785 -11.27519 -11.26800 -11.26780 -11.22248
 Alpha  occ. eigenvalues --  -11.21786 -11.21735 -11.21682 -11.21532 -11.21136
 Alpha  occ. eigenvalues --   -1.59880  -1.39433  -1.19391  -1.08810  -1.08778
 Alpha  occ. eigenvalues --   -1.04797  -1.03860  -0.96291  -0.95621  -0.87308
 Alpha  occ. eigenvalues --   -0.86192  -0.82459  -0.79952  -0.78601  -0.77503
 Alpha  occ. eigenvalues --   -0.72076  -0.71203  -0.70498  -0.65487  -0.65035
 Alpha  occ. eigenvalues --   -0.64800  -0.62192  -0.61204  -0.59676  -0.57903
 Alpha  occ. eigenvalues --   -0.55574  -0.55290  -0.53114  -0.52996  -0.52899
 Alpha  occ. eigenvalues --   -0.52697  -0.50231  -0.48837  -0.48831  -0.48244
 Alpha  occ. eigenvalues --   -0.46982  -0.46145  -0.46036  -0.44840  -0.44122
 Alpha  occ. eigenvalues --   -0.37365  -0.36383
 Alpha virt. eigenvalues --    0.05011   0.11228   0.16407   0.19097   0.22794
 Alpha virt. eigenvalues --    0.24000   0.25176   0.26239   0.27314   0.28341
 Alpha virt. eigenvalues --    0.29587   0.30529   0.31347   0.31497   0.32448

 Mulliken charges:
               1
     1  C   -0.171273
     2  C   -0.219902
     3  C   -0.173439
     4  C    0.158438
     5  C   -0.170767
     6  C   -0.218465
     7  H    0.226044
     8  H    0.227721
     9  H    0.276187
    10  H    0.275715
    11  H    0.223612
    12  N    0.488115
    13  O   -0.460150
    14  O   -0.460930
    15  C   -0.297555
    16  C   -0.301276
    17  C   -0.475934
    18  H    0.143358
    19  H    0.149851
    20  H    0.158047
    21  H    0.152861
    22  H    0.154065
    23  H    0.155394
    24  H    0.162671
    25  C   -0.301467
    26  C   -0.301890
    27  C   -0.475679
    28  H    0.154401
    29  H    0.153239
    30  H    0.140119
    31  H    0.153661
    32  H    0.158440
    33  H    0.159394
    34  H    0.157394
 Sum of Mulliken charges =  -0.00000

 Dipole moment (field-independent basis, Debye):
    X=              0.0182    Y=              4.7227    Z=             -2.0037  Tot=              5.1302
 Quadrupole moment (field-independent basis, Debye-Ang):
   XX=            -88.6880   YY=           -100.3367   ZZ=            -95.5297
   XY=            -12.4224   XZ=              5.4210   YZ=              0.4847

 Normal termination of Gaussian 16 at Wed May  5 20:47:39 2021.
