 Gaussian 16, Revision A.03,
 Gaussian 16:  EM64L-G16RevA.03 25-Dec-2016

 -------------
 #p 6-31g* mp2
 -------------

 ------------------------------------------------------
 Input file generated by CHIRIPA (05-May-2021 14:53:18)
 ------------------------------------------------------
 Symbolic Z-matrix:
 Charge =  0 Multiplicity = 1

                         Standard orientation:
 ---------------------------------------------------------------------
 Center     Atomic      Atomic             Coordinates (Angstroms)
 Number     Number       Type             X           Y           Z
 ---------------------------------------------------------------------
      1          6           0        4.583099   -0.576675    0.019679
      2          6           0        3.142533   -0.092704    0.188581
      3          6           0        2.120336   -1.222319    0.058669
      4          1           0        4.688833   -1.057637   -0.962381
      5          1           0        4.793004   -1.350571    0.770957
      6          1           0        2.935844    0.681034   -0.561902
      7          1           0        3.040265    0.387333    1.170274
      8          1           0        2.298318   -1.991983    0.816653
      9          1           0        2.193304   -1.696613   -0.925365
     10          1           0        1.097163   -0.854116    0.182780
     11          6           0        5.616573    0.541123    0.146907
     12          6           0        7.057139    0.057152   -0.021995
     13          6           0        8.079336    1.186767    0.107918
     14          1           0        5.406668    1.315019   -0.604371
     15          1           0        5.510839    1.022086    1.128967
     16          1           0        7.159407   -0.422884   -1.003688
     17          1           0        7.263828   -0.716586    0.728489
     18          1           0        8.006368    1.661061    1.091951
     19          1           0        7.901354    1.956431   -0.650067
     20          1           0        9.102509    0.818564   -0.016193
     21          6           0       -6.074523    1.376336    0.309631
     22          6           0       -4.909989    1.994973   -0.156921
     23          6           0       -3.746005    1.249936   -0.368133
     24          6           0       -3.782167   -0.117829   -0.101298
     25          6           0       -4.926811   -0.763081    0.364244
     26          6           0       -6.079209    0.001707    0.568269
     27          1           0       -6.974233    1.962771    0.470915
     28          1           0       -4.903437    3.062360   -0.358628
     29          1           0       -2.830690    1.703373   -0.728701
     30          1           0       -4.902651   -1.828872    0.556401
     31          1           0       -6.982157   -0.481406    0.930665
     32          7           0       -2.556042   -0.917021   -0.321093
     33          8           0       -2.613813   -2.120534   -0.078486
     34          8           0       -1.560452   -0.324783   -0.731816
 ---------------------------------------------------------------------

 SCF Done:  E(RHF) =  -669.536193514     A.U. after   15 cycles
 E2 =    -0.2090742404D+01 EUMP2 =    -0.67162693591833D+03

 The electronic state is 1-A.
 Alpha  occ. eigenvalues --  -20.60963 -20.60956 -15.85988 -11.31305 -11.27866
 Alpha  occ. eigenvalues --  -11.27863 -11.27603 -11.26872 -11.26862 -11.21043
 Alpha  occ. eigenvalues --  -11.20694 -11.20624 -11.20487 -11.20417 -11.19342
 Alpha  occ. eigenvalues --   -1.60017  -1.39574  -1.19472  -1.08877  -1.07603
 Alpha  occ. eigenvalues --   -1.04867  -1.02600  -0.95720  -0.95016  -0.86268
 Alpha  occ. eigenvalues --   -0.86026  -0.82553  -0.78701  -0.77607  -0.77386
 Alpha  occ. eigenvalues --   -0.72207  -0.71331  -0.70580  -0.65127  -0.64869
 Alpha  occ. eigenvalues --   -0.64248  -0.62214  -0.60014  -0.58442  -0.56609
 Alpha  occ. eigenvalues --   -0.55371  -0.54327  -0.53200  -0.52959  -0.51664
 Alpha  occ. eigenvalues --   -0.51451  -0.49015  -0.48960  -0.48906  -0.46984
 Alpha  occ. eigenvalues --   -0.45775  -0.44996  -0.44907  -0.44848  -0.42797
 Alpha  occ. eigenvalues --   -0.37450  -0.36467
 Alpha virt. eigenvalues --    0.04901   0.11188   0.16392   0.21324   0.23623
 Alpha virt. eigenvalues --    0.25322   0.27243   0.27416   0.28181   0.28273
 Alpha virt. eigenvalues --    0.29073   0.30881   0.32280   0.32411   0.32518

 Mulliken charges:
               1
     1  C   -0.297115
     2  C   -0.299482
     3  C   -0.482430
     4  H    0.148786
     5  H    0.147788
     6  H    0.149876
     7  H    0.146727
     8  H    0.148058
     9  H    0.153599
    10  H    0.185281
    11  C   -0.297300
    12  C   -0.298976
    13  C   -0.475190
    14  H    0.148000
    15  H    0.147726
    16  H    0.151455
    17  H    0.151202
    18  H    0.154121
    19  H    0.154241
    20  H    0.158641
    21  C   -0.170558
    22  C   -0.218555
    23  C   -0.170806
    24  C    0.157880
    25  C   -0.170636
    26  C   -0.218594
    27  H    0.226034
    28  H    0.223881
    29  H    0.275844
    30  H    0.275956
    31  H    0.223865
    32  N    0.489001
    33  O   -0.458118
    34  O   -0.460202
 Sum of Mulliken charges =  -0.00000

 Dipole moment (field-independent basis, Debye):
    X=             -4.7228    Y=              2.7898    Z=              0.7393  Tot=              5.5348
 Quadrupole moment (field-independent basis, Debye-Ang):
   XX=            -63.3807   YY=            -92.7583   ZZ=            -94.3623
   XY=             -8.7175   XZ=             -3.5635   YZ=             -2.0240

 Normal termination of Gaussian 16 at Thu May  6 15:39:27 2021.
