 Gaussian 16, Revision A.03,
 Gaussian 16:  EM64L-G16RevA.03 25-Dec-2016

 -------------
 #p 6-31g* mp2
 -------------

 ------------------------------------------------------
 Input file generated by CHIRIPA (05-May-2021 14:55:19)
 ------------------------------------------------------
 Symbolic Z-matrix:
 Charge =  0 Multiplicity = 1

                         Standard orientation:
 ---------------------------------------------------------------------
 Center     Atomic      Atomic             Coordinates (Angstroms)
 Number     Number       Type             X           Y           Z
 ---------------------------------------------------------------------
      1          6           0       -5.277641   -1.311022   -0.090376
      2          6           0       -4.227821   -1.592443   -0.970831
      3          6           0       -3.123653   -0.739053   -1.055010
      4          6           0       -3.102004    0.392024   -0.240464
      5          6           0       -4.132398    0.699583    0.646659
      6          6           0       -5.226669   -0.167923    0.714141
      7          1           0       -6.131541   -1.979439   -0.031469
      8          1           0       -4.264712   -2.479465   -1.596831
      9          1           0       -2.297181   -0.932943   -1.727892
     10          1           0       -4.067228    1.591433    1.258030
     11          1           0       -6.040532    0.053145    1.398831
     12          7           0       -1.938310    1.302942   -0.320742
     13          8           0       -1.943210    2.292987    0.407560
     14          8           0       -1.043340    1.009626   -1.110446
     15          6           0        3.458794   -0.315637    0.191124
     16          6           0        2.684596   -0.710013    1.449325
     17          6           0        1.170872   -0.717466    1.233968
     18          1           0        3.128906    0.679279   -0.137907
     19          1           0        3.206311   -1.012710   -0.619886
     20          1           0        2.939518   -0.013234    2.258107
     21          1           0        3.016501   -1.704024    1.775508
     22          1           0        0.897414   -1.426094    0.445509
     23          1           0        0.819993    0.274303    0.930850
     24          1           0        0.637004   -1.002097    2.146015
     25          6           0        4.973322   -0.303612    0.390592
     26          6           0        5.747520    0.090764   -0.867609
     27          6           0        7.261243    0.098216   -0.652252
     28          1           0        5.225804    0.393461    1.201601
     29          1           0        5.303210   -1.298528    0.719623
     30          1           0        5.415614    1.084776   -1.193793
     31          1           0        5.492597   -0.606015   -1.676392
     32          1           0        7.612122   -0.893551   -0.349134
     33          1           0        7.534701    0.806845    0.136207
     34          1           0        7.795112    0.382848   -1.564299
 ---------------------------------------------------------------------

 SCF Done:  E(RHF) =  -669.536083061     A.U. after   15 cycles
 E2 =    -0.2091225317D+01 EUMP2 =    -0.67162730837835D+03

 The electronic state is 1-A.
 Alpha  occ. eigenvalues --  -20.60878 -20.60857 -15.85892 -11.31225 -11.27791
 Alpha  occ. eigenvalues --  -11.27787 -11.27534 -11.26802 -11.26792 -11.21007
 Alpha  occ. eigenvalues --  -11.20796 -11.20717 -11.20587 -11.20514 -11.20059
 Alpha  occ. eigenvalues --   -1.59930  -1.39484  -1.19394  -1.08798  -1.07694
 Alpha  occ. eigenvalues --   -1.04793  -1.02803  -0.95641  -0.95246  -0.86268
 Alpha  occ. eigenvalues --   -0.86193  -0.82475  -0.78885  -0.77532  -0.77480
 Alpha  occ. eigenvalues --   -0.72119  -0.71246  -0.70507  -0.65051  -0.64800
 Alpha  occ. eigenvalues --   -0.64326  -0.62142  -0.60199  -0.58636  -0.56853
 Alpha  occ. eigenvalues --   -0.55302  -0.54524  -0.53122  -0.52888  -0.51977
 Alpha  occ. eigenvalues --   -0.51661  -0.49229  -0.48879  -0.48833  -0.47204
 Alpha  occ. eigenvalues --   -0.45915  -0.45136  -0.44965  -0.44696  -0.43069
 Alpha  occ. eigenvalues --   -0.37371  -0.36394
 Alpha virt. eigenvalues --    0.04980   0.11255   0.16470   0.21368   0.23588
 Alpha virt. eigenvalues --    0.25044   0.27209   0.27445   0.27983   0.28330
 Alpha virt. eigenvalues --    0.28848   0.30944   0.31945   0.32386   0.32588

 Mulliken charges:
               1
     1  C   -0.170597
     2  C   -0.218627
     3  C   -0.170290
     4  C    0.159592
     5  C   -0.170850
     6  C   -0.218629
     7  H    0.225720
     8  H    0.223542
     9  H    0.275794
    10  H    0.275635
    11  H    0.223541
    12  N    0.488090
    13  O   -0.460620
    14  O   -0.458826
    15  C   -0.298412
    16  C   -0.298947
    17  C   -0.482237
    18  H    0.158390
    19  H    0.147593
    20  H    0.150957
    21  H    0.146603
    22  H    0.149923
    23  H    0.176030
    24  H    0.151961
    25  C   -0.298025
    26  C   -0.299299
    27  C   -0.475318
    28  H    0.148781
    29  H    0.146644
    30  H    0.153954
    31  H    0.150758
    32  H    0.153530
    33  H    0.154737
    34  H    0.158900
 Sum of Mulliken charges =  -0.00000

 Dipole moment (field-independent basis, Debye):
    X=             -4.2864    Y=             -3.0715    Z=              0.1981  Tot=              5.2770
 Quadrupole moment (field-independent basis, Debye-Ang):
   XX=            -70.9422   YY=            -95.2158   ZZ=            -93.0949
   XY=              7.4321   XZ=             -1.7620   YZ=              3.7705

 Normal termination of Gaussian 16 at Wed May  5 15:49:02 2021.
