 Gaussian 16, Revision A.03,
 Gaussian 16:  EM64L-G16RevA.03 25-Dec-2016

 -------------
 #p 6-31g* mp2
 -------------

 ------------------------------------------------------
 Input file generated by CHIRIPA (05-May-2021 14:51:13)
 ------------------------------------------------------
 Symbolic Z-matrix:
 Charge =  0 Multiplicity = 1

                         Standard orientation:
 ---------------------------------------------------------------------
 Center     Atomic      Atomic             Coordinates (Angstroms)
 Number     Number       Type             X           Y           Z
 ---------------------------------------------------------------------
      1          6           0       -2.826865   -0.433987    0.474320
      2          6           0       -1.962220   -1.465390   -0.251341
      3          6           0       -0.730466   -1.876928    0.555637
      4          1           0       -2.218850    0.453683    0.696368
      5          1           0       -3.142731   -0.846659    1.442476
      6          1           0       -1.649222   -1.051428   -1.218441
      7          1           0       -2.572415   -2.350630   -0.471857
      8          1           0       -1.026649   -2.314295    1.514587
      9          1           0       -0.098210   -1.007711    0.763761
     10          1           0       -0.126610   -2.614808    0.018281
     11          6           0       -4.062018   -0.012630   -0.319772
     12          6           0       -4.926662    1.018773    0.405888
     13          6           0       -6.158416    1.430311   -0.401089
     14          1           0       -3.746151    0.400043   -1.287928
     15          1           0       -4.670033   -0.900299   -0.541820
     16          1           0       -4.316467    1.904014    0.626405
     17          1           0       -5.239660    0.604812    1.372989
     18          1           0       -6.790672    0.561094   -0.609213
     19          1           0       -5.862233    1.867678   -1.360040
     20          1           0       -6.762272    2.168192    0.136266
     21          6           0        3.532674   -0.478111    0.211963
     22          6           0        2.880992   -1.570368   -0.636725
     23          6           0        3.066088   -2.968049   -0.045100
     24          1           0        4.604664   -0.694543    0.316553
     25          1           0        3.107529   -0.507828    1.224763
     26          1           0        3.306245   -1.537699   -1.648015
     27          1           0        1.810465   -1.351207   -0.739466
     28          1           0        2.625591   -3.024223    0.955604
     29          1           0        4.129869   -3.211776    0.041892
     30          1           0        2.592474   -3.733495   -0.667710
     31          6           0        3.356208    0.924728   -0.366511
     32          6           0        4.007890    2.016984    0.482176
     33          6           0        3.822795    3.414666   -0.109448
     34          1           0        3.781353    0.954444   -1.379311
     35          1           0        2.284218    1.141160   -0.471101
     36          1           0        5.078418    1.797823    0.584918
     37          1           0        3.582638    1.984316    1.493467
     38          1           0        2.759012    3.658392   -0.196439
     39          1           0        4.263292    3.470840   -1.110151
     40          1           0        4.296408    4.180111    0.513162
 ---------------------------------------------------------------------

 SCF Done:  E(RHF) =  -470.732390130     A.U. after   11 cycles
 E2 =    -0.1583471389D+01 EUMP2 =    -0.47231586151909D+03

 The electronic state is 1-A.
 Alpha  occ. eigenvalues --  -11.21658 -11.21629 -11.21595 -11.21447 -11.21431
 Alpha  occ. eigenvalues --  -11.21386 -11.21378 -11.21302 -11.21105 -11.21092
 Alpha  occ. eigenvalues --  -11.21074 -11.21000  -1.08479  -1.08383  -1.03608
 Alpha  occ. eigenvalues --   -1.03454  -0.96061  -0.95914  -0.87052  -0.86958
 Alpha  occ. eigenvalues --   -0.79675  -0.79518  -0.78288  -0.78198  -0.65191
 Alpha  occ. eigenvalues --   -0.64969  -0.61177  -0.60772  -0.59461  -0.59211
 Alpha  occ. eigenvalues --   -0.57697  -0.57485  -0.55356  -0.55206  -0.52705
 Alpha  occ. eigenvalues --   -0.52603  -0.52453  -0.52355  -0.50093  -0.49788
 Alpha  occ. eigenvalues --   -0.47954  -0.47853  -0.46781  -0.46462  -0.45849
 Alpha  occ. eigenvalues --   -0.45771  -0.45704  -0.45592  -0.43800  -0.43734
 Alpha virt. eigenvalues --    0.20920   0.23069   0.23635   0.24793   0.25920
 Alpha virt. eigenvalues --    0.26755   0.26944   0.27511   0.27732   0.29360
 Alpha virt. eigenvalues --    0.30755   0.31464   0.31703   0.31955   0.32132

 Mulliken charges:
               1
     1  C   -0.298467
     2  C   -0.301404
     3  C   -0.481218
     4  H    0.149403
     5  H    0.149767
     6  H    0.152394
     7  H    0.152546
     8  H    0.155717
     9  H    0.155800
    10  H    0.166391
    11  C   -0.298320
    12  C   -0.299671
    13  C   -0.475735
    14  H    0.149631
    15  H    0.149805
    16  H    0.151903
    17  H    0.151977
    18  H    0.155239
    19  H    0.155254
    20  H    0.160346
    21  C   -0.298697
    22  C   -0.305930
    23  C   -0.476970
    24  H    0.149470
    25  H    0.149518
    26  H    0.150697
    27  H    0.161085
    28  H    0.157001
    29  H    0.155036
    30  H    0.158660
    31  C   -0.298351
    32  C   -0.299604
    33  C   -0.475629
    34  H    0.149655
    35  H    0.148478
    36  H    0.152108
    37  H    0.151838
    38  H    0.154804
    39  H    0.155202
    40  H    0.160270
 Sum of Mulliken charges =  -0.00000

 Dipole moment (field-independent basis, Debye):
    X=             -0.0424    Y=             -0.0202    Z=              0.0082  Tot=              0.0477
 Quadrupole moment (field-independent basis, Debye-Ang):
   XX=            -84.7207   YY=            -85.5155   ZZ=            -84.6585
   XY=              0.7958   XZ=             -1.0894   YZ=              0.2006

 Normal termination of Gaussian 16 at Wed May  5 19:57:42 2021.
