 Gaussian 16, Revision A.03,
 Gaussian 16:  EM64L-G16RevA.03 25-Dec-2016

 -------------
 #p 6-31g* mp2
 -------------

 ------------------------------------------------------
 Input file generated by CHIRIPA (05-May-2021 14:57:25)
 ------------------------------------------------------
 Symbolic Z-matrix:
 Charge =  0 Multiplicity = 1

                         Standard orientation:
 ---------------------------------------------------------------------
 Center     Atomic      Atomic             Coordinates (Angstroms)
 Number     Number       Type             X           Y           Z
 ---------------------------------------------------------------------
      1          6           0        0.459081   -0.269107    1.725916
      2          6           0        0.759804   -1.352541    0.893896
      3          6           0        1.929316   -1.356321    0.127884
      4          6           0        2.779460   -0.255271    0.218620
      5          6           0        2.507570    0.839089    1.038218
      6          6           0        1.332384    0.821328    1.795299
      7          1           0       -0.451628   -0.274537    2.317503
      8          1           0        0.083431   -2.200740    0.838014
      9          1           0        2.186592   -2.181926   -0.524500
     10          1           0        3.201255    1.670365    1.072866
     11          1           0        1.101403    1.664117    2.440590
     12          7           0        4.020573   -0.247870   -0.587595
     13          8           0        4.753136    0.734189   -0.489878
     14          8           0        4.237294   -1.224269   -1.301959
     15          6           0       -1.627893    2.563286   -0.735915
     16          6           0       -2.145691    2.219029    0.517040
     17          6           0       -2.672945    0.943799    0.741400
     18          6           0       -2.666463    0.033478   -0.314329
     19          6           0       -2.157775    0.346462   -1.573919
     20          6           0       -1.635575    1.627554   -1.775563
     21          1           0       -1.220273    3.556192   -0.901380
     22          1           0       -2.141033    2.943698    1.326284
     23          1           0       -3.080164    0.650808    1.701477
     24          1           0       -2.176192   -0.397339   -2.361218
     25          1           0       -1.234113    1.892133   -2.749663
     26          7           0       -3.221969   -1.319654   -0.088834
     27          8           0       -3.204628   -2.103568   -1.035309
     28          8           0       -3.664196   -1.570703    1.030115
 ---------------------------------------------------------------------

 SCF Done:  E(RHF) =  -868.336980740     A.U. after   16 cycles
 E2 =    -0.2603566150D+01 EUMP2 =    -0.87094054688974D+03

 The electronic state is 1-A.
 Alpha  occ. eigenvalues --  -20.61711 -20.61688 -20.60890 -20.60878 -15.86739
 Alpha  occ. eigenvalues --  -15.85941 -11.31960 -11.31242 -11.28581 -11.28476
 Alpha  occ. eigenvalues --  -11.28210 -11.27872 -11.27787 -11.27558 -11.27536
 Alpha  occ. eigenvalues --  -11.27431 -11.26875 -11.26724  -1.60788  -1.59967
 Alpha  occ. eigenvalues --   -1.40341  -1.39522  -1.20139  -1.19423  -1.09545
 Alpha  occ. eigenvalues --   -1.08831  -1.05530  -1.04825  -0.96409  -0.95671
 Alpha  occ. eigenvalues --   -0.86934  -0.86228  -0.83242  -0.82507  -0.78321
 Alpha  occ. eigenvalues --   -0.77563  -0.72949  -0.72185  -0.72123  -0.71296
 Alpha  occ. eigenvalues --   -0.71263  -0.70523  -0.65789  -0.65523  -0.65078
 Alpha  occ. eigenvalues --   -0.64828  -0.62886  -0.62173  -0.56005  -0.55404
 Alpha  occ. eigenvalues --   -0.54173  -0.53609  -0.52913  -0.52762  -0.49727
 Alpha  occ. eigenvalues --   -0.49696  -0.48918  -0.48911  -0.45768  -0.44942
 Alpha  occ. eigenvalues --   -0.38251  -0.37756  -0.36701  -0.36235
 Alpha virt. eigenvalues --    0.04115   0.05011   0.10359   0.11237   0.15720
 Alpha virt. eigenvalues --    0.16560   0.20092   0.21740   0.26068   0.26545
 Alpha virt. eigenvalues --    0.27670   0.28895   0.29838   0.30864   0.32463

 Mulliken charges:
               1
     1  C   -0.164061
     2  C   -0.225133
     3  C   -0.171538
     4  C    0.157223
     5  C   -0.173003
     6  C   -0.218174
     7  H    0.225420
     8  H    0.232596
     9  H    0.277212
    10  H    0.273221
    11  H    0.217210
    12  N    0.487838
    13  O   -0.462365
    14  O   -0.459746
    15  C   -0.167816
    16  C   -0.216925
    17  C   -0.181809
    18  C    0.162043
    19  C   -0.169062
    20  C   -0.216055
    21  H    0.228728
    22  H    0.221847
    23  H    0.271912
    24  H    0.277901
    25  H    0.228573
    26  N    0.485203
    27  O   -0.457357
    28  O   -0.463882
 Sum of Mulliken charges =  -0.00000

 Dipole moment (field-independent basis, Debye):
    X=             -2.5143    Y=              4.7484    Z=              1.8047  Tot=              5.6680
 Quadrupole moment (field-independent basis, Debye-Ang):
   XX=           -141.2304   YY=           -100.5743   ZZ=            -98.4980
   XY=            -10.9785   XZ=              8.1662   YZ=              0.6984

 Normal termination of Gaussian 16 at Thu May  6 08:17:12 2021.
