 Gaussian 16, Revision A.03,
 Gaussian 16:  EM64L-G16RevA.03 25-Dec-2016

 -------------
 #p 6-31g* mp2
 -------------

 ------------------------------------------------------
 Input file generated by CHIRIPA (05-May-2021 14:57:24)
 ------------------------------------------------------
 Symbolic Z-matrix:
 Charge =  0 Multiplicity = 1

                         Standard orientation:
 ---------------------------------------------------------------------
 Center     Atomic      Atomic             Coordinates (Angstroms)
 Number     Number       Type             X           Y           Z
 ---------------------------------------------------------------------
      1          6           0        2.217183    1.882332    1.551293
      2          6           0        3.527097    2.078546    1.101684
      3          6           0        4.148543    1.126625    0.287929
      4          6           0        3.427500   -0.015027   -0.058506
      5          6           0        2.121200   -0.239199    0.373487
      6          6           0        1.519645    0.726124    1.186403
      7          1           0        1.742155    2.627013    2.183111
      8          1           0        4.071225    2.975520    1.383480
      9          1           0        5.161575    1.253222   -0.074228
     10          1           0        1.604193   -1.143391    0.075900
     11          1           0        0.502239    0.571089    1.534098
     12          7           0        4.074868   -1.029877   -0.919547
     13          8           0        3.418178   -2.027193   -1.210676
     14          8           0        5.226708   -0.808785   -1.286999
     15          6           0       -4.117630    1.933633   -1.258207
     16          6           0       -5.045581    1.022451   -0.743254
     17          6           0       -4.615459   -0.136591   -0.090440
     18          6           0       -3.243771   -0.353886    0.030172
     19          6           0       -2.294644    0.534961   -0.472220
     20          6           0       -2.747539    1.687414   -1.121287
     21          1           0       -4.460605    2.831445   -1.763872
     22          1           0       -6.110226    1.211077   -0.848125
     23          1           0       -5.312153   -0.858748    0.317632
     24          1           0       -1.239817    0.319625   -0.352276
     25          1           0       -2.024606    2.393294   -1.520219
     26          7           0       -2.776366   -1.577424    0.719292
     27          8           0       -1.562453   -1.745810    0.812548
     28          8           0       -3.632778   -2.344880    1.153122
 ---------------------------------------------------------------------

 SCF Done:  E(RHF) =  -868.339002287     A.U. after   16 cycles
 E2 =    -0.2600334987D+01 EUMP2 =    -0.87093933727420D+03

 The electronic state is 1-A.
 Alpha  occ. eigenvalues --  -20.61578 -20.61521 -20.60524 -20.60502 -15.86583
 Alpha  occ. eigenvalues --  -15.85570 -11.31820 -11.30973 -11.28392 -11.28328
 Alpha  occ. eigenvalues --  -11.28051 -11.27620 -11.27453 -11.27369 -11.27353
 Alpha  occ. eigenvalues --  -11.27320 -11.26642 -11.26516  -1.60600  -1.59594
 Alpha  occ. eigenvalues --   -1.40167  -1.39143  -1.19970  -1.19176  -1.09381
 Alpha  occ. eigenvalues --   -1.08574  -1.05355  -1.04566  -0.96243  -0.95387
 Alpha  occ. eigenvalues --   -0.86764  -0.85965  -0.83083  -0.82206  -0.78177
 Alpha  occ. eigenvalues --   -0.77215  -0.72806  -0.71908  -0.71784  -0.71081
 Alpha  occ. eigenvalues --   -0.70922  -0.70273  -0.65624  -0.65376  -0.64814
 Alpha  occ. eigenvalues --   -0.64548  -0.62746  -0.61815  -0.55846  -0.55097
 Alpha  occ. eigenvalues --   -0.53688  -0.53471  -0.52908  -0.52603  -0.49574
 Alpha  occ. eigenvalues --   -0.49525  -0.48555  -0.48531  -0.45586  -0.44538
 Alpha  occ. eigenvalues --   -0.37931  -0.37203  -0.36949  -0.36188
 Alpha virt. eigenvalues --    0.04339   0.05237   0.10630   0.11447   0.15893
 Alpha virt. eigenvalues --    0.16532   0.20390   0.21909   0.25894   0.27177
 Alpha virt. eigenvalues --    0.28241   0.28884   0.30742   0.31131   0.32587

 Mulliken charges:
               1
     1  C   -0.172330
     2  C   -0.219442
     3  C   -0.170886
     4  C    0.158306
     5  C   -0.177299
     6  C   -0.230845
     7  H    0.223944
     8  H    0.222061
     9  H    0.275006
    10  H    0.290563
    11  H    0.232177
    12  N    0.487652
    13  O   -0.456837
    14  O   -0.462422
    15  C   -0.170170
    16  C   -0.218199
    17  C   -0.169984
    18  C    0.158745
    19  C   -0.176466
    20  C   -0.220233
    21  H    0.227774
    22  H    0.225796
    23  H    0.277299
    24  H    0.273936
    25  H    0.225909
    26  N    0.490960
    27  O   -0.471323
    28  O   -0.453696
 Sum of Mulliken charges =  -0.00000

 Dipole moment (field-independent basis, Debye):
    X=             -4.2173    Y=              7.7657    Z=              0.5717  Tot=              8.8554
 Quadrupole moment (field-independent basis, Debye-Ang):
   XX=           -101.1403   YY=           -106.9722   ZZ=           -106.6989
   XY=              2.6974   XZ=             17.6694   YZ=              0.1506

 Normal termination of Gaussian 16 at Thu May  6 06:38:49 2021.
