 Gaussian 16, Revision A.03,
 Gaussian 16:  EM64L-G16RevA.03 25-Dec-2016

 -------------
 #p 6-31g* mp2
 -------------

 ------------------------------------------------------
 Input file generated by CHIRIPA (05-May-2021 14:55:25)
 ------------------------------------------------------
 Symbolic Z-matrix:
 Charge =  0 Multiplicity = 1

                         Standard orientation:
 ---------------------------------------------------------------------
 Center     Atomic      Atomic             Coordinates (Angstroms)
 Number     Number       Type             X           Y           Z
 ---------------------------------------------------------------------
      1          6           0        1.486157    1.364991    1.047860
      2          6           0        1.563668   -0.003459    1.326892
      3          6           0        2.652849   -0.758326    0.881462
      4          6           0        3.651147   -0.109562    0.156344
      5          6           0        3.602552    1.252231   -0.137675
      6          6           0        2.504052    1.987371    0.317754
      7          1           0        0.636436    1.943728    1.397764
      8          1           0        0.774624   -0.489459    1.893688
      9          1           0        2.738117   -1.819170    1.083349
     10          1           0        4.404562    1.708758   -0.704932
     11          1           0        2.446504    3.049977    0.099573
     12          7           0        4.809147   -0.898264   -0.320505
     13          8           0        5.675604   -0.303112   -0.957438
     14          8           0        4.828404   -2.096667   -0.048298
     15          6           0       -5.134565    0.181139   -0.093607
     16          6           0       -6.100044   -0.997636    0.034160
     17          6           0       -7.507196   -0.566937    0.449147
     18          1           0       -5.088331    0.714646    0.865652
     19          1           0       -5.532615    0.894078   -0.828910
     20          1           0       -5.699606   -1.708810    0.767984
     21          1           0       -6.143838   -1.528512   -0.925459
     22          1           0       -7.930705    0.125175   -0.285852
     23          1           0       -7.483949   -0.056146    1.417214
     24          1           0       -8.180946   -1.425211    0.534509
     25          6           0       -3.723790   -0.233428   -0.507827
     26          6           0       -2.758311    0.945347   -0.635594
     27          6           0       -1.351159    0.514648   -1.050580
     28          1           0       -3.325740   -0.946367    0.227475
     29          1           0       -3.770024   -0.766935   -1.467085
     30          1           0       -2.714517    1.476224    0.324025
     31          1           0       -3.158749    1.656521   -1.369419
     32          1           0       -1.374406    0.003857   -2.018648
     33          1           0       -0.927650   -0.177464   -0.315582
     34          1           0       -0.677409    1.372922   -1.135943
 ---------------------------------------------------------------------

 SCF Done:  E(RHF) =  -669.534464671     A.U. after   15 cycles
 E2 =    -0.2092326911D+01 EUMP2 =    -0.67162679158197D+03

 The electronic state is 1-A.
 Alpha  occ. eigenvalues --  -20.60744 -20.60739 -15.85800 -11.31161 -11.27762
 Alpha  occ. eigenvalues --  -11.27754 -11.27493 -11.26757 -11.26743 -11.22281
 Alpha  occ. eigenvalues --  -11.22023 -11.21972 -11.21867 -11.21630 -11.21435
 Alpha  occ. eigenvalues --   -1.59820  -1.39374  -1.19355  -1.08981  -1.08747
 Alpha  occ. eigenvalues --   -1.04766  -1.04062  -0.96505  -0.95574  -0.87514
 Alpha  occ. eigenvalues --   -0.86162  -0.82414  -0.80127  -0.78782  -0.77458
 Alpha  occ. eigenvalues --   -0.72020  -0.71144  -0.70472  -0.65623  -0.65010
 Alpha  occ. eigenvalues --   -0.64776  -0.62125  -0.61463  -0.59888  -0.58116
 Alpha  occ. eigenvalues --   -0.55829  -0.55259  -0.53470  -0.52938  -0.52838
 Alpha  occ. eigenvalues --   -0.52791  -0.50414  -0.48779  -0.48773  -0.48438
 Alpha  occ. eigenvalues --   -0.47176  -0.46320  -0.46250  -0.44781  -0.44318
 Alpha  occ. eigenvalues --   -0.37239  -0.36347
 Alpha virt. eigenvalues --    0.05077   0.11162   0.16501   0.20285   0.22639
 Alpha virt. eigenvalues --    0.24036   0.25932   0.26330   0.27145   0.27597
 Alpha virt. eigenvalues --    0.29034   0.30048   0.31142   0.31172   0.31752

 Mulliken charges:
               1
     1  C   -0.164092
     2  C   -0.218089
     3  C   -0.171605
     4  C    0.158209
     5  C   -0.170010
     6  C   -0.220955
     7  H    0.226508
     8  H    0.222510
     9  H    0.275599
    10  H    0.275667
    11  H    0.223269
    12  N    0.488154
    13  O   -0.460603
    14  O   -0.460560
    15  C   -0.298344
    16  C   -0.299956
    17  C   -0.475936
    18  H    0.148283
    19  H    0.150743
    20  H    0.151656
    21  H    0.153337
    22  H    0.155877
    23  H    0.154906
    24  H    0.161616
    25  C   -0.297770
    26  C   -0.300845
    27  C   -0.476438
    28  H    0.147014
    29  H    0.152655
    30  H    0.144495
    31  H    0.154161
    32  H    0.159300
    33  H    0.153067
    34  H    0.158178
 Sum of Mulliken charges =  -0.00000

 Dipole moment (field-independent basis, Debye):
    X=             -4.1399    Y=              2.7622    Z=              1.6304  Tot=              5.2370
 Quadrupole moment (field-independent basis, Debye-Ang):
   XX=           -125.2492   YY=            -92.2716   ZZ=            -93.0990
   XY=             12.7910   XZ=              5.3192   YZ=             -1.8629

 Normal termination of Gaussian 16 at Thu May  6 07:59:32 2021.
