 Gaussian 16, Revision A.03,
 Gaussian 16:  EM64L-G16RevA.03 25-Dec-2016

 -------------
 #p 6-31g* mp2
 -------------

 ------------------------------------------------------
 Input file generated by CHIRIPA (05-May-2021 14:51:09)
 ------------------------------------------------------
 Symbolic Z-matrix:
 Charge =  0 Multiplicity = 1

                         Standard orientation:
 ---------------------------------------------------------------------
 Center     Atomic      Atomic             Coordinates (Angstroms)
 Number     Number       Type             X           Y           Z
 ---------------------------------------------------------------------
      1          6           0        4.238841    0.580760    0.109721
      2          6           0        3.791408    1.978994   -0.317750
      3          6           0        4.738209    3.076920    0.167965
      4          1           0        4.312455    0.545214    1.205286
      5          1           0        5.249672    0.392390   -0.277749
      6          1           0        2.781173    2.164136    0.069242
      7          1           0        3.718666    2.011159   -1.412414
      8          1           0        5.746250    2.919842   -0.229252
      9          1           0        4.803430    3.073689    1.260822
     10          1           0        4.399424    4.068271   -0.148751
     11          6           0        3.302433   -0.527535   -0.368347
     12          6           0        3.749866   -1.925769    0.059123
     13          6           0        2.803065   -3.023696   -0.426592
     14          1           0        2.291602   -0.339165    0.019122
     15          1           0        3.228819   -0.491990   -1.463912
     16          1           0        3.822608   -1.957934    1.153787
     17          1           0        4.760102   -2.110912   -0.327868
     18          1           0        2.737844   -3.020464   -1.519449
     19          1           0        1.795024   -2.866618   -0.029375
     20          1           0        3.141850   -4.015046   -0.109876
     21          6           0       -4.505685   -0.181744   -0.008787
     22          6           0       -5.372126    1.069450   -0.156367
     23          6           0       -6.840089    0.742774   -0.432347
     24          1           0       -4.582960   -0.783625   -0.924599
     25          1           0       -4.904070   -0.801032    0.806790
     26          1           0       -4.971405    1.686867   -0.970513
     27          1           0       -5.292628    1.668518    0.759828
     28          1           0       -7.261968    0.146508    0.383182
     29          1           0       -6.938920    0.164962   -1.356990
     30          1           0       -7.441320    1.651609   -0.534322
     31          6           0       -3.035590    0.128519    0.267414
     32          6           0       -2.169147   -1.122674    0.414994
     33          6           0       -0.701186   -0.795998    0.690973
     34          1           0       -2.637203    0.747807   -0.548163
     35          1           0       -2.958313    0.730401    1.183226
     36          1           0       -2.248646   -1.721743   -0.501201
     37          1           0       -2.569870   -1.740092    1.229140
     38          1           0       -0.602355   -0.218186    1.615617
     39          1           0       -0.279305   -0.199733   -0.124555
     40          1           0       -0.099954   -1.704834    0.792949
 ---------------------------------------------------------------------

 SCF Done:  E(RHF) =  -470.732788025     A.U. after   11 cycles
 E2 =    -0.1583217390D+01 EUMP2 =    -0.47231600541461D+03

 The electronic state is 1-A.
 Alpha  occ. eigenvalues --  -11.21647 -11.21619 -11.21553 -11.21530 -11.21434
 Alpha  occ. eigenvalues --  -11.21374 -11.21314 -11.21227 -11.21143 -11.21084
 Alpha  occ. eigenvalues --  -11.21034 -11.21003  -1.08464  -1.08353  -1.03577
 Alpha  occ. eigenvalues --   -1.03464  -0.96029  -0.95918  -0.87054  -0.86937
 Alpha  occ. eigenvalues --   -0.79680  -0.79503  -0.78289  -0.78143  -0.65102
 Alpha  occ. eigenvalues --   -0.64983  -0.60990  -0.60886  -0.59453  -0.59227
 Alpha  occ. eigenvalues --   -0.57724  -0.57457  -0.55323  -0.55207  -0.52775
 Alpha  occ. eigenvalues --   -0.52618  -0.52543  -0.52236  -0.49990  -0.49850
 Alpha  occ. eigenvalues --   -0.47952  -0.47830  -0.46713  -0.46539  -0.45881
 Alpha  occ. eigenvalues --   -0.45759  -0.45686  -0.45507  -0.43763  -0.43705
 Alpha virt. eigenvalues --    0.21699   0.22963   0.23616   0.24768   0.25679
 Alpha virt. eigenvalues --    0.26618   0.26840   0.27215   0.27882   0.29345
 Alpha virt. eigenvalues --    0.29977   0.31399   0.31653   0.31840   0.32086

 Mulliken charges:
               1
     1  C   -0.297686
     2  C   -0.299786
     3  C   -0.475605
     4  H    0.149390
     5  H    0.149079
     6  H    0.151977
     7  H    0.151552
     8  H    0.155097
     9  H    0.155119
    10  H    0.160001
    11  C   -0.307132
    12  C   -0.298769
    13  C   -0.481297
    14  H    0.161208
    15  H    0.148392
    16  H    0.151458
    17  H    0.151529
    18  H    0.154931
    19  H    0.159973
    20  H    0.159830
    21  C   -0.298295
    22  C   -0.299662
    23  C   -0.475725
    24  H    0.149820
    25  H    0.149586
    26  H    0.152006
    27  H    0.151930
    28  H    0.155205
    29  H    0.155246
    30  H    0.160316
    31  C   -0.298869
    32  C   -0.299834
    33  C   -0.483097
    34  H    0.149822
    35  H    0.149589
    36  H    0.152681
    37  H    0.151992
    38  H    0.155016
    39  H    0.157418
    40  H    0.165594
 Sum of Mulliken charges =  -0.00000

 Dipole moment (field-independent basis, Debye):
    X=             -0.0570    Y=              0.0056    Z=              0.0075  Tot=              0.0578
 Quadrupole moment (field-independent basis, Debye-Ang):
   XX=            -86.2088   YY=            -85.7166   ZZ=            -83.1330
   XY=             -0.6116   XZ=             -1.0029   YZ=             -0.2097

 Normal termination of Gaussian 16 at Thu May  6 03:43:08 2021.
