 Gaussian 16, Revision A.03,
 Gaussian 16:  EM64L-G16RevA.03 25-Dec-2016

 -------------
 #p 6-31g* mp2
 -------------

 ------------------------------------------------------
 Input file generated by CHIRIPA (05-May-2021 14:53:17)
 ------------------------------------------------------
 Symbolic Z-matrix:
 Charge =  0 Multiplicity = 1

                         Standard orientation:
 ---------------------------------------------------------------------
 Center     Atomic      Atomic             Coordinates (Angstroms)
 Number     Number       Type             X           Y           Z
 ---------------------------------------------------------------------
      1          6           0       -4.166882   -0.560107   -0.263762
      2          6           0       -5.459791   -0.346073    0.523994
      3          6           0       -6.293545   -1.621563    0.649578
      4          1           0       -4.413548   -0.938707   -1.265143
      5          1           0       -3.571259   -1.341684    0.227935
      6          1           0       -6.052163    0.435842    0.031733
      7          1           0       -5.210027    0.032244    1.523550
      8          1           0       -5.724537   -2.405001    1.160516
      9          1           0       -6.571457   -1.999109   -0.339777
     10          1           0       -7.213233   -1.445843    1.216285
     11          6           0       -3.322551    0.705929   -0.397875
     12          6           0       -2.029642    0.491894   -1.185632
     13          6           0       -1.195887    1.767385   -1.311216
     14          1           0       -3.918174    1.487505   -0.889572
     15          1           0       -3.075884    1.084529    0.603505
     16          1           0       -2.279405    0.113578   -2.185187
     17          1           0       -1.437270   -0.290020   -0.693371
     18          1           0       -0.917975    2.144931   -0.321860
     19          1           0       -1.764895    2.550822   -1.822153
     20          1           0       -0.276199    1.591665   -1.877922
     21          6           0        1.841098    1.974232    1.290015
     22          6           0        2.079025    0.836538    2.068196
     23          6           0        2.679285   -0.294606    1.507169
     24          6           0        3.030402   -0.253329    0.158725
     25          6           0        2.806423    0.865097   -0.642677
     26          6           0        2.204915    1.984861   -0.060557
     27          1           0        1.374317    2.848511    1.734027
     28          1           0        1.797530    0.825444    3.117330
     29          1           0        2.875015   -1.188681    2.086598
     30          1           0        3.098105    0.846251   -1.685743
     31          1           0        2.021348    2.867014   -0.667314
     32          7           0        3.666530   -1.444797   -0.446375
     33          8           0        3.966515   -1.383186   -1.636691
     34          8           0        3.853098   -2.417720    0.281120
 ---------------------------------------------------------------------

 SCF Done:  E(RHF) =  -669.534821431     A.U. after   15 cycles
 E2 =    -0.2092341530D+01 EUMP2 =    -0.67162716296105D+03

 The electronic state is 1-A.
 Alpha  occ. eigenvalues --  -20.60788 -20.60782 -15.85840 -11.31222 -11.27763
 Alpha  occ. eigenvalues --  -11.27751 -11.27500 -11.26815 -11.26779 -11.21887
 Alpha  occ. eigenvalues --  -11.21815 -11.21690 -11.21583 -11.21500 -11.21229
 Alpha  occ. eigenvalues --   -1.59862  -1.39415  -1.19385  -1.08787  -1.08687
 Alpha  occ. eigenvalues --   -1.04792  -1.03798  -0.96269  -0.95613  -0.87301
 Alpha  occ. eigenvalues --   -0.86177  -0.82445  -0.79870  -0.78499  -0.77488
 Alpha  occ. eigenvalues --   -0.72058  -0.71185  -0.70491  -0.65326  -0.65038
 Alpha  occ. eigenvalues --   -0.64791  -0.62142  -0.61203  -0.59643  -0.57872
 Alpha  occ. eigenvalues --   -0.55605  -0.55288  -0.53313  -0.52915  -0.52705
 Alpha  occ. eigenvalues --   -0.52693  -0.50192  -0.48818  -0.48812  -0.48188
 Alpha  occ. eigenvalues --   -0.46894  -0.46047  -0.45962  -0.44818  -0.44068
 Alpha  occ. eigenvalues --   -0.37328  -0.36329
 Alpha virt. eigenvalues --    0.04994   0.11255   0.16405   0.20989   0.22653
 Alpha virt. eigenvalues --    0.24095   0.26322   0.26584   0.27087   0.27841
 Alpha virt. eigenvalues --    0.28456   0.30447   0.31282   0.31676   0.32216

 Mulliken charges:
               1
     1  C   -0.298696
     2  C   -0.299617
     3  C   -0.475867
     4  H    0.151213
     5  H    0.150602
     6  H    0.151885
     7  H    0.150557
     8  H    0.155779
     9  H    0.156149
    10  H    0.160385
    11  C   -0.298171
    12  C   -0.299796
    13  C   -0.474484
    14  H    0.149356
    15  H    0.146629
    16  H    0.154257
    17  H    0.155095
    18  H    0.149706
    19  H    0.153167
    20  H    0.157974
    21  C   -0.172856
    22  C   -0.218759
    23  C   -0.171870
    24  C    0.159039
    25  C   -0.173489
    26  C   -0.210731
    27  H    0.225592
    28  H    0.223426
    29  H    0.275491
    30  H    0.275418
    31  H    0.225197
    32  N    0.488030
    33  O   -0.460251
    34  O   -0.460363
 Sum of Mulliken charges =  -0.00000

 Dipole moment (field-independent basis, Debye):
    X=             -2.2516    Y=              4.1581    Z=              2.1249  Tot=              5.1840
 Quadrupole moment (field-independent basis, Debye-Ang):
   XX=           -109.3949   YY=            -97.0276   ZZ=            -89.6635
   XY=             13.0656   XZ=              6.4742   YZ=             -2.2457

 Normal termination of Gaussian 16 at Thu May  6 02:46:20 2021.
