 Gaussian 16, Revision A.03,
 Gaussian 16:  EM64L-G16RevA.03 25-Dec-2016

 -------------
 #p 6-31g* mp2
 -------------

 ------------------------------------------------------
 Input file generated by CHIRIPA (05-May-2021 14:55:19)
 ------------------------------------------------------
 Symbolic Z-matrix:
 Charge =  0 Multiplicity = 1

                         Standard orientation:
 ---------------------------------------------------------------------
 Center     Atomic      Atomic             Coordinates (Angstroms)
 Number     Number       Type             X           Y           Z
 ---------------------------------------------------------------------
      1          6           0       -1.985745    2.086953    0.537521
      2          6           0       -2.256464    1.208036    1.591436
      3          6           0       -3.001102    0.045184    1.372722
      4          6           0       -3.461588   -0.208782    0.081697
      5          6           0       -3.208420    0.647369   -0.988911
      6          6           0       -2.461747    1.804312   -0.747024
      7          1           0       -1.406502    2.987990    0.716424
      8          1           0       -1.888067    1.424983    2.590067
      9          1           0       -3.225294   -0.652482    2.170480
     10          1           0       -3.589074    0.404173   -1.973480
     11          1           0       -2.253034    2.485084   -1.567411
     12          7           0       -4.250980   -1.436714   -0.162112
     13          8           0       -4.645340   -1.637720   -1.308722
     14          8           0       -4.460398   -2.174911    0.798017
     15          6           0        3.758573    0.562559   -0.013344
     16          6           0        2.450249    0.404015   -0.788675
     17          6           0        1.448631    1.520680   -0.492670
     18          1           0        3.539221    0.584516    1.062922
     19          1           0        4.207789    1.534376   -0.260674
     20          1           0        2.004333   -0.567806   -0.541012
     21          1           0        2.672759    0.382242   -1.863212
     22          1           0        1.869864    2.496044   -0.756923
     23          1           0        1.197640    1.540597    0.572791
     24          1           0        0.520601    1.387663   -1.057406
     25          6           0        4.770033   -0.546164   -0.298668
     26          6           0        6.078356   -0.387621    0.476663
     27          6           0        7.079973   -1.504285    0.180658
     28          1           0        4.320816   -1.517982   -0.051338
     29          1           0        4.989384   -0.568120   -1.374934
     30          1           0        5.855845   -0.365847    1.551200
     31          1           0        6.524272    0.584202    0.228999
     32          1           0        7.330966   -1.524202   -0.884803
     33          1           0        6.658741   -2.479649    0.444910
     34          1           0        8.008005   -1.371269    0.745392
 ---------------------------------------------------------------------

 SCF Done:  E(RHF) =  -669.534892907     A.U. after   15 cycles
 E2 =    -0.2092035633D+01 EUMP2 =    -0.67162692853980D+03

 The electronic state is 1-A.
 Alpha  occ. eigenvalues --  -20.60762 -20.60757 -15.85819 -11.31176 -11.27782
 Alpha  occ. eigenvalues --  -11.27779 -11.27496 -11.26758 -11.26746 -11.22003
 Alpha  occ. eigenvalues --  -11.21845 -11.21754 -11.21638 -11.21614 -11.21258
 Alpha  occ. eigenvalues --   -1.59839  -1.39393  -1.19372  -1.08787  -1.08734
 Alpha  occ. eigenvalues --   -1.04780  -1.03875  -0.96350  -0.95585  -0.87372
 Alpha  occ. eigenvalues --   -0.86172  -0.82425  -0.79950  -0.78564  -0.77473
 Alpha  occ. eigenvalues --   -0.72037  -0.71164  -0.70469  -0.65389  -0.65023
 Alpha  occ. eigenvalues --   -0.64780  -0.62128  -0.61276  -0.59729  -0.57948
 Alpha  occ. eigenvalues --   -0.55665  -0.55256  -0.53484  -0.52868  -0.52785
 Alpha  occ. eigenvalues --   -0.52628  -0.50278  -0.48795  -0.48791  -0.48263
 Alpha  occ. eigenvalues --   -0.46971  -0.46113  -0.46024  -0.44801  -0.44143
 Alpha  occ. eigenvalues --   -0.37247  -0.36375
 Alpha virt. eigenvalues --    0.05067   0.11145   0.16519   0.21068   0.22575
 Alpha virt. eigenvalues --    0.24050   0.26277   0.26864   0.27005   0.27495
 Alpha virt. eigenvalues --    0.28705   0.30478   0.31012   0.31607   0.31863

 Mulliken charges:
               1
     1  C   -0.162739
     2  C   -0.220584
     3  C   -0.170323
     4  C    0.157931
     5  C   -0.171421
     6  C   -0.221641
     7  H    0.227678
     8  H    0.223176
     9  H    0.275621
    10  H    0.275732
    11  H    0.223958
    12  N    0.488170
    13  O   -0.460550
    14  O   -0.460642
    15  C   -0.298444
    16  C   -0.299622
    17  C   -0.479726
    18  H    0.148410
    19  H    0.148824
    20  H    0.155300
    21  H    0.152859
    22  H    0.151151
    23  H    0.150242
    24  H    0.163984
    25  C   -0.298688
    26  C   -0.299755
    27  C   -0.475917
    28  H    0.150986
    29  H    0.150385
    30  H    0.151633
    31  H    0.151620
    32  H    0.155647
    33  H    0.156067
    34  H    0.160678
 Sum of Mulliken charges =  -0.00000

 Dipole moment (field-independent basis, Debye):
    X=              2.8033    Y=              4.3013    Z=              0.8561  Tot=              5.2050
 Quadrupole moment (field-independent basis, Debye-Ang):
   XX=           -115.2826   YY=            -97.2198   ZZ=            -89.4233
   XY=            -15.2355   XZ=             -2.5497   YZ=             -1.6763

 Normal termination of Gaussian 16 at Thu May  6 10:48:35 2021.
