 Gaussian 16, Revision A.03,
 Gaussian 16:  EM64L-G16RevA.03 25-Dec-2016

 -------------
 #p 6-31g* mp2
 -------------

 ------------------------------------------------------
 Input file generated by CHIRIPA (05-May-2021 14:55:24)
 ------------------------------------------------------
 Symbolic Z-matrix:
 Charge =  0 Multiplicity = 1

                         Standard orientation:
 ---------------------------------------------------------------------
 Center     Atomic      Atomic             Coordinates (Angstroms)
 Number     Number       Type             X           Y           Z
 ---------------------------------------------------------------------
      1          6           0       -1.450819    0.744588    0.473928
      2          6           0       -1.829340   -0.578617    0.224183
      3          6           0       -3.162831   -0.895748   -0.051091
      4          6           0       -4.095840    0.139855   -0.068705
      5          6           0       -3.749833    1.467880    0.176075
      6          6           0       -2.410582    1.761820    0.449120
      7          1           0       -0.412694    0.981935    0.686902
      8          1           0       -1.086123   -1.370657    0.242792
      9          1           0       -3.483330   -1.911584   -0.248006
     10          1           0       -4.513343    2.235878    0.150603
     11          1           0       -2.119496    2.790334    0.642701
     12          7           0       -5.510597   -0.183602   -0.358945
     13          8           0       -6.313469    0.746957   -0.368619
     14          8           0       -5.789823   -1.361562   -0.571266
     15          6           0        4.339031   -0.292366    0.490549
     16          6           0        3.231265   -1.200369   -0.044584
     17          6           0        2.027282   -1.280417    0.894464
     18          1           0        4.662912   -0.660190    1.473784
     19          1           0        3.931506    0.715159    0.652454
     20          1           0        3.641106   -2.205532   -0.206739
     21          1           0        2.910117   -0.830452   -1.026745
     22          1           0        1.591688   -0.287777    1.047845
     23          1           0        2.326831   -1.670670    1.872510
     24          1           0        1.247422   -1.934703    0.492485
     25          6           0        5.549407   -0.202135   -0.437123
     26          6           0        6.657174    0.705869    0.098010
     27          6           0        7.861157    0.785916   -0.841039
     28          1           0        5.956933   -1.209659   -0.599028
     29          1           0        5.225527    0.165689   -1.420359
     30          1           0        6.978322    0.335952    1.080171
     31          1           0        6.247333    1.711031    0.260165
     32          1           0        7.561607    1.176170   -1.819085
     33          1           0        8.296750   -0.206724   -0.994419
     34          1           0        8.641017    1.440203   -0.439059
 ---------------------------------------------------------------------

 SCF Done:  E(RHF) =  -669.534881005     A.U. after   15 cycles
 E2 =    -0.2091577261D+01 EUMP2 =    -0.67162645826684D+03

 The electronic state is 1-A.
 Alpha  occ. eigenvalues --  -20.60697 -20.60692 -15.85749 -11.31095 -11.27665
 Alpha  occ. eigenvalues --  -11.27650 -11.27372 -11.26679 -11.26616 -11.22668
 Alpha  occ. eigenvalues --  -11.22541 -11.22270 -11.22188 -11.22063 -11.21552
 Alpha  occ. eigenvalues --   -1.59773  -1.39327  -1.19262  -1.09265  -1.08659
 Alpha  occ. eigenvalues --   -1.04666  -1.04405  -0.96890  -0.95499  -0.87919
 Alpha  occ. eigenvalues --   -0.86055  -0.82337  -0.80483  -0.79022  -0.77386
 Alpha  occ. eigenvalues --   -0.71968  -0.71096  -0.70399  -0.65896  -0.64913
 Alpha  occ. eigenvalues --   -0.64702  -0.62075  -0.61779  -0.60264  -0.58471
 Alpha  occ. eigenvalues --   -0.56235  -0.55138  -0.53660  -0.53295  -0.52993
 Alpha  occ. eigenvalues --   -0.52659  -0.50802  -0.48806  -0.48724  -0.48697
 Alpha  occ. eigenvalues --   -0.47486  -0.46575  -0.46468  -0.44737  -0.44638
 Alpha  occ. eigenvalues --   -0.37240  -0.36268
 Alpha virt. eigenvalues --    0.05147   0.11378   0.16646   0.19555   0.22431
 Alpha virt. eigenvalues --    0.23946   0.24613   0.25844   0.26269   0.27213
 Alpha virt. eigenvalues --    0.29085   0.29504   0.31126   0.31626   0.32324

 Mulliken charges:
               1
     1  C   -0.176206
     2  C   -0.223870
     3  C   -0.172268
     4  C    0.158642
     5  C   -0.171171
     6  C   -0.219045
     7  H    0.230472
     8  H    0.230455
     9  H    0.275588
    10  H    0.275124
    11  H    0.223116
    12  N    0.488004
    13  O   -0.460762
    14  O   -0.460664
    15  C   -0.298941
    16  C   -0.299880
    17  C   -0.482696
    18  H    0.151909
    19  H    0.147496
    20  H    0.156730
    21  H    0.153621
    22  H    0.148252
    23  H    0.163235
    24  H    0.157478
    25  C   -0.299018
    26  C   -0.300149
    27  C   -0.476157
    28  H    0.151440
    29  H    0.150622
    30  H    0.152923
    31  H    0.151788
    32  H    0.155854
    33  H    0.156241
    34  H    0.161838
 Sum of Mulliken charges =  -0.00000

 Dipole moment (field-independent basis, Debye):
    X=              5.3062    Y=              1.0849    Z=              1.0234  Tot=              5.5118
 Quadrupole moment (field-independent basis, Debye-Ang):
   XX=           -135.6722   YY=            -89.0912   ZZ=            -95.7984
   XY=             -5.9971   XZ=             -3.9447   YZ=              0.2437

 Normal termination of Gaussian 16 at Thu May  6 17:39:01 2021.
