 Gaussian 16, Revision A.03,
 Gaussian 16:  EM64L-G16RevA.03 25-Dec-2016

 -------------
 #p 6-31g* mp2
 -------------

 ------------------------------------------------------
 Input file generated by CHIRIPA (05-May-2021 14:57:26)
 ------------------------------------------------------
 Symbolic Z-matrix:
 Charge =  0 Multiplicity = 1

                         Standard orientation:
 ---------------------------------------------------------------------
 Center     Atomic      Atomic             Coordinates (Angstroms)
 Number     Number       Type             X           Y           Z
 ---------------------------------------------------------------------
      1          6           0        1.721443    2.296606    1.035165
      2          6           0        1.742627    1.118392    1.788746
      3          6           0        2.218974   -0.072176    1.231801
      4          6           0        2.668540   -0.048361   -0.087522
      5          6           0        2.660131    1.109378   -0.863963
      6          6           0        2.179455    2.288353   -0.286454
      7          1           0        1.349723    3.216966    1.475800
      8          1           0        1.387554    1.121839    2.815370
      9          1           0        2.246578   -0.998555    1.792584
     10          1           0        3.020676    1.074719   -1.884856
     11          1           0        2.164178    3.201876   -0.874066
     12          7           0        3.175119   -1.302626   -0.688019
     13          8           0        3.565622   -1.255284   -1.852452
     14          8           0        3.172080   -2.309311    0.017114
     15          6           0       -2.694292    2.282054   -0.642622
     16          6           0       -3.590867    1.371210   -1.210985
     17          6           0       -3.539523    0.016698   -0.868627
     18          6           0       -2.574489   -0.394287    0.049572
     19          6           0       -1.667385    0.488889    0.633057
     20          6           0       -1.737100    1.838768    0.275964
     21          1           0       -2.741312    3.332472   -0.914297
     22          1           0       -4.335287    1.712635   -1.924647
     23          1           0       -4.221426   -0.709907   -1.293447
     24          1           0       -0.936383    0.118648    1.341558
     25          1           0       -1.039528    2.543892    0.718953
     26          7           0       -2.510409   -1.825796    0.419810
     27          8           0       -1.650865   -2.162638    1.231203
     28          8           0       -3.320940   -2.583865   -0.108402
 ---------------------------------------------------------------------

 SCF Done:  E(RHF) =  -868.334938583     A.U. after   16 cycles
 E2 =    -0.2604251516D+01 EUMP2 =    -0.87093919009866D+03

 The electronic state is 1-A.
 Alpha  occ. eigenvalues --  -20.60930 -20.60893 -20.60836 -20.60825 -15.85980
 Alpha  occ. eigenvalues --  -15.85887 -11.31676 -11.31309 -11.28307 -11.28256
 Alpha  occ. eigenvalues --  -11.28215 -11.27882 -11.27845 -11.27698 -11.27420
 Alpha  occ. eigenvalues --  -11.27402 -11.26941 -11.26930  -1.59982  -1.59901
 Alpha  occ. eigenvalues --   -1.39525  -1.39456  -1.19932  -1.19497  -1.09299
 Alpha  occ. eigenvalues --   -1.08896  -1.05372  -1.04908  -0.96053  -0.95718
 Alpha  occ. eigenvalues --   -0.86754  -0.86332  -0.82870  -0.82550  -0.77824
 Alpha  occ. eigenvalues --   -0.77585  -0.72196  -0.72109  -0.71310  -0.71222
 Alpha  occ. eigenvalues --   -0.71094  -0.70649  -0.65575  -0.65364  -0.65160
 Alpha  occ. eigenvalues --   -0.64966  -0.62672  -0.62334  -0.55964  -0.55492
 Alpha  occ. eigenvalues --   -0.53751  -0.53440  -0.53076  -0.53029  -0.48985
 Alpha  occ. eigenvalues --   -0.48923  -0.48866  -0.48856  -0.44859  -0.44842
 Alpha  occ. eigenvalues --   -0.38048  -0.37503  -0.36910  -0.36427
 Alpha virt. eigenvalues --    0.04637   0.04958   0.10551   0.11178   0.15863
 Alpha virt. eigenvalues --    0.16441   0.19671   0.22088   0.25987   0.26232
 Alpha virt. eigenvalues --    0.28380   0.29108   0.29974   0.31698   0.32235

 Mulliken charges:
               1
     1  C   -0.179900
     2  C   -0.231712
     3  C   -0.166838
     4  C    0.160719
     5  C   -0.168272
     6  C   -0.215790
     7  H    0.222158
     8  H    0.227048
     9  H    0.285821
    10  H    0.278216
    11  H    0.223255
    12  N    0.487954
    13  O   -0.460171
    14  O   -0.452831
    15  C   -0.172734
    16  C   -0.218564
    17  C   -0.170167
    18  C    0.159028
    19  C   -0.171729
    20  C   -0.214607
    21  H    0.222725
    22  H    0.223615
    23  H    0.276635
    24  H    0.273991
    25  H    0.213181
    26  N    0.488812
    27  O   -0.461481
    28  O   -0.458362
 Sum of Mulliken charges =  -0.00000

 Dipole moment (field-independent basis, Debye):
    X=             -1.7479    Y=              9.1262    Z=              0.7103  Tot=              9.3192
 Quadrupole moment (field-independent basis, Debye-Ang):
   XX=           -110.5816   YY=           -109.3055   ZZ=           -100.4520
   XY=              0.1852   XZ=             11.1640   YZ=             -1.7103

 Normal termination of Gaussian 16 at Thu May  6 18:08:51 2021.
