 Gaussian 16, Revision A.03,
 Gaussian 16:  EM64L-G16RevA.03 25-Dec-2016

 -------------
 #p 6-31g* mp2
 -------------

 ------------------------------------------------------
 Input file generated by CHIRIPA (05-May-2021 14:51:13)
 ------------------------------------------------------
 Symbolic Z-matrix:
 Charge =  0 Multiplicity = 1

                         Standard orientation:
 ---------------------------------------------------------------------
 Center     Atomic      Atomic             Coordinates (Angstroms)
 Number     Number       Type             X           Y           Z
 ---------------------------------------------------------------------
      1          6           0        2.514246   -1.421176   -0.201820
      2          6           0        0.990856   -1.290537   -0.215985
      3          6           0        0.286315   -2.617799   -0.498456
      4          1           0        2.850881   -1.817985   -1.169376
      5          1           0        2.804846   -2.160467    0.557387
      6          1           0        0.703294   -0.550696   -0.973983
      7          1           0        0.657824   -0.893812    0.751649
      8          1           0        0.544311   -3.360646    0.263264
      9          1           0        0.590040   -3.015580   -1.472172
     10          1           0       -0.801935   -2.501434   -0.503994
     11          6           0        3.232763   -0.102675    0.079278
     12          6           0        4.756153   -0.233314    0.093443
     13          6           0        5.460694    1.093948    0.375914
     14          1           0        2.942163    0.636616   -0.679929
     15          1           0        2.896128    0.294134    1.046833
     16          1           0        5.089185   -0.630039   -0.874191
     17          1           0        5.043715   -0.973155    0.851440
     18          1           0        5.156969    1.491729    1.349630
     19          1           0        5.202698    1.836795   -0.385806
     20          1           0        6.548944    0.977583    0.381452
     21          6           0       -3.431193    0.294661   -0.171279
     22          6           0       -3.560592   -0.967100    0.682651
     23          6           0       -4.680559   -1.891912    0.204959
     24          1           0       -4.386499    0.837066   -0.159793
     25          1           0       -3.248644    0.005197   -1.215445
     26          1           0       -3.741466   -0.675322    1.725132
     27          1           0       -2.604808   -1.506465    0.669286
     28          1           0       -4.502437   -2.211553   -0.826885
     29          1           0       -5.645554   -1.375688    0.234960
     30          1           0       -4.755394   -2.787599    0.829463
     31          6           0       -2.315816    1.229189    0.293822
     32          6           0       -2.186417    2.490951   -0.560109
     33          6           0       -1.066449    3.415763   -0.082418
     34          1           0       -2.498365    1.518653    1.337987
     35          1           0       -1.360509    0.686785    0.282335
     36          1           0       -3.142202    3.030315   -0.546744
     37          1           0       -2.005544    2.199173   -1.602590
     38          1           0       -0.101456    2.899539   -0.112418
     39          1           0       -1.244572    3.735403    0.949427
     40          1           0       -0.991614    4.311450   -0.706921
 ---------------------------------------------------------------------

 SCF Done:  E(RHF) =  -470.732890477     A.U. after   11 cycles
 E2 =    -0.1584031332D+01 EUMP2 =    -0.47231692180909D+03

 The electronic state is 1-A.
 Alpha  occ. eigenvalues --  -11.21709 -11.21641 -11.21563 -11.21550 -11.21473
 Alpha  occ. eigenvalues --  -11.21412 -11.21344 -11.21248 -11.21157 -11.21093
 Alpha  occ. eigenvalues --  -11.21057 -11.21026  -1.08510  -1.08374  -1.03605
 Alpha  occ. eigenvalues --   -1.03492  -0.96049  -0.95937  -0.87075  -0.86945
 Alpha  occ. eigenvalues --   -0.79711  -0.79528  -0.78384  -0.78128  -0.65129
 Alpha  occ. eigenvalues --   -0.65051  -0.61014  -0.60914  -0.59428  -0.59285
 Alpha  occ. eigenvalues --   -0.57665  -0.57545  -0.55328  -0.55229  -0.52772
 Alpha  occ. eigenvalues --   -0.52631  -0.52503  -0.52336  -0.49983  -0.49897
 Alpha  occ. eigenvalues --   -0.48118  -0.47768  -0.46703  -0.46584  -0.46052
 Alpha  occ. eigenvalues --   -0.45778  -0.45701  -0.45370  -0.43833  -0.43735
 Alpha virt. eigenvalues --    0.20264   0.22805   0.23500   0.24538   0.25937
 Alpha virt. eigenvalues --    0.26433   0.27158   0.27319   0.28238   0.29582
 Alpha virt. eigenvalues --    0.30698   0.31217   0.31734   0.31877   0.32449

 Mulliken charges:
               1
     1  C   -0.297624
     2  C   -0.303677
     3  C   -0.481852
     4  H    0.149933
     5  H    0.149949
     6  H    0.152331
     7  H    0.154498
     8  H    0.155900
     9  H    0.155760
    10  H    0.165535
    11  C   -0.298814
    12  C   -0.299690
    13  C   -0.475798
    14  H    0.149347
    15  H    0.150071
    16  H    0.152037
    17  H    0.152101
    18  H    0.155415
    19  H    0.155344
    20  H    0.160392
    21  C   -0.297525
    22  C   -0.307067
    23  C   -0.475629
    24  H    0.149563
    25  H    0.148857
    26  H    0.152059
    27  H    0.158029
    28  H    0.154955
    29  H    0.155395
    30  H    0.160239
    31  C   -0.307873
    32  C   -0.299063
    33  C   -0.476232
    34  H    0.148600
    35  H    0.161049
    36  H    0.151650
    37  H    0.151155
    38  H    0.155797
    39  H    0.155001
    40  H    0.159881
 Sum of Mulliken charges =  -0.00000

 Dipole moment (field-independent basis, Debye):
    X=              0.0576    Y=             -0.0318    Z=              0.0109  Tot=              0.0667
 Quadrupole moment (field-independent basis, Debye-Ang):
   XX=            -85.4424   YY=            -85.9252   ZZ=            -83.4763
   XY=             -1.4588   XZ=             -0.7287   YZ=             -0.2384

 Normal termination of Gaussian 16 at Thu May  6 03:58:41 2021.
