 Gaussian 16, Revision A.03,
 Gaussian 16:  EM64L-G16RevA.03 25-Dec-2016

 -------------
 #p 6-31g* mp2
 -------------

 ------------------------------------------------------
 Input file generated by CHIRIPA (05-May-2021 14:55:19)
 ------------------------------------------------------
 Symbolic Z-matrix:
 Charge =  0 Multiplicity = 1

                         Standard orientation:
 ---------------------------------------------------------------------
 Center     Atomic      Atomic             Coordinates (Angstroms)
 Number     Number       Type             X           Y           Z
 ---------------------------------------------------------------------
      1          6           0       -2.776574    2.629009   -0.259264
      2          6           0       -2.761458    1.751324   -1.348282
      3          6           0       -2.830266    0.369477   -1.147502
      4          6           0       -2.913739   -0.102358    0.161579
      5          6           0       -2.930885    0.746575    1.267159
      6          6           0       -2.861090    2.124722    1.042686
      7          1           0       -2.722739    3.701023   -0.424437
      8          1           0       -2.695890    2.140130   -2.360496
      9          1           0       -2.820404   -0.332519   -1.972439
     10          1           0       -2.996961    0.329176    2.264570
     11          1           0       -2.873022    2.803983    1.890335
     12          7           0       -2.987105   -1.563299    0.386678
     13          8           0       -3.060042   -1.953812    1.549784
     14          8           0       -2.970283   -2.290209   -0.604259
     15          6           0        4.221764    0.218057    0.252376
     16          6           0        5.672853   -0.151159   -0.057470
     17          6           0        6.676663    0.647990    0.774108
     18          1           0        4.076828    1.292028    0.072029
     19          1           0        4.028623    0.051740    1.321221
     20          1           0        5.862804    0.014494   -1.125689
     21          1           0        5.814300   -1.224413    0.123453
     22          1           0        6.515704    0.474868    1.843090
     23          1           0        6.564484    1.720814    0.586850
     24          1           0        7.707739    0.368133    0.536580
     25          6           0        3.206454   -0.572418   -0.571045
     26          6           0        1.755364   -0.203202   -0.261200
     27          6           0        0.751554   -1.002351   -1.092777
     28          1           0        3.399593   -0.406101   -1.639890
     29          1           0        3.351388   -1.646389   -0.390698
     30          1           0        1.613916    0.870052   -0.442122
     31          1           0        1.565412   -0.368855    0.807020
     32          1           0        0.863733   -2.075175   -0.905519
     33          1           0        0.912512   -0.829229   -2.161759
     34          1           0       -0.279523   -0.722494   -0.855249
 ---------------------------------------------------------------------

 SCF Done:  E(RHF) =  -669.534550771     A.U. after   15 cycles
 E2 =    -0.2093042326D+01 EUMP2 =    -0.67162759309653D+03

 The electronic state is 1-A.
 Alpha  occ. eigenvalues --  -20.60817 -20.60797 -15.85846 -11.31211 -11.27806
 Alpha  occ. eigenvalues --  -11.27785 -11.27552 -11.26815 -11.26805 -11.21562
 Alpha  occ. eigenvalues --  -11.21465 -11.21341 -11.21252 -11.21062 -11.20750
 Alpha  occ. eigenvalues --   -1.59876  -1.39429  -1.19420  -1.08806  -1.08343
 Alpha  occ. eigenvalues --   -1.04818  -1.03424  -0.95875  -0.95630  -0.86898
 Alpha  occ. eigenvalues --   -0.86207  -0.82461  -0.79494  -0.78160  -0.77505
 Alpha  occ. eigenvalues --   -0.72071  -0.71220  -0.70518  -0.65063  -0.64974
 Alpha  occ. eigenvalues --   -0.64810  -0.62161  -0.60819  -0.59291  -0.57529
 Alpha  occ. eigenvalues --   -0.55314  -0.55149  -0.53408  -0.52902  -0.52416
 Alpha  occ. eigenvalues --   -0.52158  -0.49801  -0.48833  -0.48826  -0.47808
 Alpha  occ. eigenvalues --   -0.46528  -0.45697  -0.45629  -0.44841  -0.43671
 Alpha  occ. eigenvalues --   -0.37351  -0.36375
 Alpha virt. eigenvalues --    0.05008   0.11180   0.16503   0.21373   0.22945
 Alpha virt. eigenvalues --    0.24426   0.26725   0.27208   0.27578   0.27942
 Alpha virt. eigenvalues --    0.28460   0.30757   0.31521   0.31888   0.32031

 Mulliken charges:
               1
     1  C   -0.170924
     2  C   -0.216102
     3  C   -0.175488
     4  C    0.158162
     5  C   -0.171261
     6  C   -0.218074
     7  H    0.225847
     8  H    0.223856
     9  H    0.276697
    10  H    0.275848
    11  H    0.223699
    12  N    0.491026
    13  O   -0.460265
    14  O   -0.459252
    15  C   -0.297907
    16  C   -0.299600
    17  C   -0.475592
    18  H    0.147333
    19  H    0.149825
    20  H    0.151411
    21  H    0.153101
    22  H    0.155333
    23  H    0.153995
    24  H    0.160307
    25  C   -0.298472
    26  C   -0.298707
    27  C   -0.479914
    28  H    0.148226
    29  H    0.152008
    30  H    0.147469
    31  H    0.152574
    32  H    0.162991
    33  H    0.150410
    34  H    0.161443
 Sum of Mulliken charges =  -0.00000

 Dipole moment (field-independent basis, Debye):
    X=              0.1741    Y=              5.1065    Z=             -0.7770  Tot=              5.1682
 Quadrupole moment (field-independent basis, Debye-Ang):
   XX=            -97.9743   YY=            -95.8691   ZZ=            -89.9122
   XY=            -15.7973   XZ=              1.7518   YZ=              1.0019

 Normal termination of Gaussian 16 at Wed May  5 17:22:18 2021.
