 Gaussian 16, Revision A.03,
 Gaussian 16:  EM64L-G16RevA.03 25-Dec-2016

 -------------
 #p 6-31g* mp2
 -------------

 ------------------------------------------------------
 Input file generated by CHIRIPA (05-May-2021 14:51:13)
 ------------------------------------------------------
 Symbolic Z-matrix:
 Charge =  0 Multiplicity = 1

                         Standard orientation:
 ---------------------------------------------------------------------
 Center     Atomic      Atomic             Coordinates (Angstroms)
 Number     Number       Type             X           Y           Z
 ---------------------------------------------------------------------
      1          6           0       -4.788195   -0.432648    0.394237
      2          6           0       -5.680178   -1.236573   -0.552364
      3          6           0       -6.692110   -2.110889    0.188825
      4          1           0       -4.257282   -1.123869    1.063035
      5          1           0       -5.419907    0.198483    1.034557
      6          1           0       -5.046897   -1.864971   -1.191651
      7          1           0       -6.208884   -0.543369   -1.219113
      8          1           0       -7.347895   -1.495920    0.813613
      9          1           0       -6.179306   -2.825031    0.841231
     10          1           0       -7.319355   -2.676838   -0.506966
     11          6           0       -3.771347    0.446304   -0.331842
     12          6           0       -2.879363    1.250230    0.614760
     13          6           0       -1.867432    2.124545   -0.126429
     14          1           0       -3.139635   -0.184826   -0.972161
     15          1           0       -4.302260    1.137525   -1.000639
     16          1           0       -2.350657    0.557025    1.281509
     17          1           0       -3.512645    1.878627    1.254047
     18          1           0       -2.380236    2.838687   -0.778835
     19          1           0       -1.211646    1.509576   -0.751217
     20          1           0       -1.240187    2.690494    0.569362
     21          6           0        4.675867   -0.592900   -0.319399
     22          6           0        5.907645   -0.958320    0.509563
     23          6           0        6.689694   -2.132589   -0.079746
     24          1           0        4.019727   -1.470712   -0.396015
     25          1           0        4.990981   -0.347894   -1.343152
     26          1           0        5.590450   -1.201223    1.531816
     27          1           0        6.560837   -0.079481    0.584375
     28          1           0        7.034144   -1.896861   -1.091866
     29          1           0        6.058244   -3.024976   -0.139042
     30          1           0        7.566101   -2.376940    0.528583
     31          6           0        3.883674    0.579243    0.257003
     32          6           0        2.651897    0.944665   -0.571958
     33          6           0        1.869847    2.118933    0.017350
     34          1           0        3.568561    0.334239    1.280757
     35          1           0        4.539815    1.457055    0.333619
     36          1           0        1.998705    0.065825   -0.646771
     37          1           0        2.969092    1.187567   -1.594213
     38          1           0        2.501299    3.011320    0.076646
     39          1           0        1.525398    1.883205    1.029470
     40          1           0        0.993440    2.363284   -0.590978
 ---------------------------------------------------------------------

 SCF Done:  E(RHF) =  -470.732209561     A.U. after   11 cycles
 E2 =    -0.1582722218D+01 EUMP2 =    -0.47231493177848D+03

 The electronic state is 1-A.
 Alpha  occ. eigenvalues --  -11.21602 -11.21588 -11.21583 -11.21556 -11.21401
 Alpha  occ. eigenvalues --  -11.21379 -11.21342 -11.21318 -11.21073 -11.21063
 Alpha  occ. eigenvalues --  -11.21002 -11.20895  -1.08428  -1.08396  -1.03551
 Alpha  occ. eigenvalues --   -1.03461  -0.96055  -0.95859  -0.87127  -0.86827
 Alpha  occ. eigenvalues --   -0.79671  -0.79479  -0.78240  -0.78214  -0.65073
 Alpha  occ. eigenvalues --   -0.65019  -0.61012  -0.60839  -0.59521  -0.59151
 Alpha  occ. eigenvalues --   -0.57616  -0.57538  -0.55361  -0.55126  -0.53023
 Alpha  occ. eigenvalues --   -0.52481  -0.52344  -0.52185  -0.49965  -0.49775
 Alpha  occ. eigenvalues --   -0.47962  -0.47807  -0.46626  -0.46568  -0.45783
 Alpha  occ. eigenvalues --   -0.45752  -0.45704  -0.45684  -0.43948  -0.43505
 Alpha virt. eigenvalues --    0.22197   0.23055   0.23621   0.24904   0.26533
 Alpha virt. eigenvalues --    0.26747   0.27080   0.27202   0.27671   0.29300
 Alpha virt. eigenvalues --    0.29943   0.30894   0.31369   0.31828   0.32347

 Mulliken charges:
               1
     1  C   -0.298254
     2  C   -0.299629
     3  C   -0.475694
     4  H    0.149508
     5  H    0.149553
     6  H    0.151873
     7  H    0.151957
     8  H    0.155195
     9  H    0.155127
    10  H    0.160251
    11  C   -0.298588
    12  C   -0.299866
    13  C   -0.478573
    14  H    0.149471
    15  H    0.149651
    16  H    0.151631
    17  H    0.151775
    18  H    0.154300
    19  H    0.156397
    20  H    0.164461
    21  C   -0.298205
    22  C   -0.299607
    23  C   -0.475672
    24  H    0.149355
    25  H    0.149461
    26  H    0.151841
    27  H    0.151946
    28  H    0.155166
    29  H    0.155077
    30  H    0.160201
    31  C   -0.298223
    32  C   -0.300266
    33  C   -0.480146
    34  H    0.149313
    35  H    0.149709
    36  H    0.150877
    37  H    0.151613
    38  H    0.153721
    39  H    0.153860
    40  H    0.169434
 Sum of Mulliken charges =  -0.00000

 Dipole moment (field-independent basis, Debye):
    X=             -0.0263    Y=              0.0259    Z=             -0.0049  Tot=              0.0372
 Quadrupole moment (field-independent basis, Debye-Ang):
   XX=            -85.2935   YY=            -84.8927   ZZ=            -84.7504
   XY=             -0.1605   XZ=              0.1856   YZ=             -0.3812

 Normal termination of Gaussian 16 at Thu May  6 02:22:56 2021.
