 Gaussian 16, Revision A.03,
 Gaussian 16:  EM64L-G16RevA.03 25-Dec-2016

 -------------
 #p 6-31g* mp2
 -------------

 ------------------------------------------------------
 Input file generated by CHIRIPA (05-May-2021 14:57:26)
 ------------------------------------------------------
 Symbolic Z-matrix:
 Charge =  0 Multiplicity = 1

                         Standard orientation:
 ---------------------------------------------------------------------
 Center     Atomic      Atomic             Coordinates (Angstroms)
 Number     Number       Type             X           Y           Z
 ---------------------------------------------------------------------
      1          6           0       -4.378322   -1.783089    0.601892
      2          6           0       -3.592865   -1.743410   -0.554829
      3          6           0       -2.898364   -0.580767   -0.901930
      4          6           0       -3.012354    0.528770   -0.065735
      5          6           0       -3.786866    0.520394    1.093295
      6          6           0       -4.472649   -0.653053    1.420819
      7          1           0       -4.914441   -2.690454    0.863924
      8          1           0       -3.517758   -2.619499   -1.192694
      9          1           0       -2.283179   -0.522557   -1.791636
     10          1           0       -3.842235    1.409653    1.709388
     11          1           0       -5.081900   -0.680987    2.319750
     12          7           0       -2.281731    1.765327   -0.422832
     13          8           0       -2.398620    2.729382    0.330542
     14          8           0       -1.606015    1.747071   -1.449336
     15          6           0        5.262812    0.901754    0.576076
     16          6           0        5.244324   -0.496742    0.556392
     17          6           0        4.069772   -1.186938    0.242379
     18          6           0        2.926845   -0.443566   -0.048147
     19          6           0        2.913488    0.950343   -0.036826
     20          6           0        4.099386    1.619568    0.279927
     21          1           0        6.179640    1.429770    0.821073
     22          1           0        6.146356   -1.056814    0.785965
     23          1           0        4.027422   -2.269119    0.219824
     24          1           0        1.998489    1.481171   -0.270096
     25          1           0        4.110805    2.705709    0.294447
     26          7           0        1.677393   -1.163145   -0.382028
     27          8           0        0.683820   -0.485035   -0.634250
     28          8           0        1.715304   -2.391636   -0.385180
 ---------------------------------------------------------------------

 SCF Done:  E(RHF) =  -868.339702609     A.U. after   16 cycles
 E2 =    -0.2599727065D+01 EUMP2 =    -0.87093942967381D+03

 The electronic state is 1-A.
 Alpha  occ. eigenvalues --  -20.60639 -20.60600 -20.59882 -20.59796 -15.85649
 Alpha  occ. eigenvalues --  -15.84869 -11.30863 -11.30030 -11.27479 -11.27322
 Alpha  occ. eigenvalues --  -11.27183 -11.26726 -11.26512 -11.26464 -11.26441
 Alpha  occ. eigenvalues --  -11.26365 -11.25711 -11.25558  -1.59699  -1.58902
 Alpha  occ. eigenvalues --   -1.39249  -1.38456  -1.19036  -1.18230  -1.08473
 Alpha  occ. eigenvalues --   -1.07682  -1.04408  -1.03615  -0.95327  -0.94539
 Alpha  occ. eigenvalues --   -0.85817  -0.85031  -0.82156  -0.81383  -0.77209
 Alpha  occ. eigenvalues --   -0.76423  -0.71928  -0.71116  -0.71004  -0.70191
 Alpha  occ. eigenvalues --   -0.70101  -0.69385  -0.64690  -0.64414  -0.63906
 Alpha  occ. eigenvalues --   -0.63652  -0.61737  -0.60962  -0.54943  -0.54194
 Alpha  occ. eigenvalues --   -0.52764  -0.52494  -0.51954  -0.51730  -0.48662
 Alpha  occ. eigenvalues --   -0.48627  -0.47881  -0.47846  -0.44688  -0.43886
 Alpha  occ. eigenvalues --   -0.37036  -0.36232  -0.36008  -0.35177
 Alpha virt. eigenvalues --    0.05292   0.06116   0.11644   0.12467   0.16807
 Alpha virt. eigenvalues --    0.17590   0.21796   0.22463   0.27740   0.28375
 Alpha virt. eigenvalues --    0.28685   0.29389   0.31325   0.31933   0.33007

 Mulliken charges:
               1
     1  C   -0.170484
     2  C   -0.219631
     3  C   -0.152885
     4  C    0.157077
     5  C   -0.172429
     6  C   -0.220208
     7  H    0.221804
     8  H    0.223049
     9  H    0.282281
    10  H    0.270636
    11  H    0.218333
    12  N    0.489004
    13  O   -0.470276
    14  O   -0.456522
    15  C   -0.170542
    16  C   -0.219237
    17  C   -0.171399
    18  C    0.156181
    19  C   -0.172575
    20  C   -0.219550
    21  H    0.224868
    22  H    0.221765
    23  H    0.273288
    24  H    0.287854
    25  H    0.226083
    26  N    0.490024
    27  O   -0.460703
    28  O   -0.465805
 Sum of Mulliken charges =  -0.00000

 Dipole moment (field-independent basis, Debye):
    X=              2.0203    Y=             -1.7992    Z=              2.2124  Tot=              3.4948
 Quadrupole moment (field-independent basis, Debye-Ang):
   XX=            -64.3959   YY=           -108.0058   ZZ=           -102.9118
   XY=             14.9234   XZ=             -1.2240   YZ=              1.8561

 Normal termination of Gaussian 16 at Fri May  7 08:08:52 2021.
