 Gaussian 16, Revision A.03,
 Gaussian 16:  EM64L-G16RevA.03 25-Dec-2016

 -------------
 #p 6-31g* mp2
 -------------

 ------------------------------------------------------
 Input file generated by CHIRIPA (05-May-2021 14:53:15)
 ------------------------------------------------------
 Symbolic Z-matrix:
 Charge =  0 Multiplicity = 1

                         Standard orientation:
 ---------------------------------------------------------------------
 Center     Atomic      Atomic             Coordinates (Angstroms)
 Number     Number       Type             X           Y           Z
 ---------------------------------------------------------------------
      1          6           0        3.536211    0.830556   -0.376847
      2          6           0        2.168224    1.480506   -0.166698
      3          6           0        2.163313    2.971044   -0.507382
      4          1           0        4.281251    1.351568    0.239925
      5          1           0        3.843722    0.969631   -1.422548
      6          1           0        1.862762    1.339043    0.877954
      7          1           0        1.426319    0.957765   -0.783896
      8          1           0        2.443163    3.127889   -1.554131
      9          1           0        2.882086    3.511334    0.117160
     10          1           0        1.175653    3.415585   -0.349989
     11          6           0        3.557095   -0.659459   -0.040477
     12          6           0        4.925082   -1.309409   -0.250626
     13          6           0        4.929993   -2.799947    0.090058
     14          1           0        3.249584   -0.798534    1.005224
     15          1           0        2.812055   -1.180470   -0.657249
     16          1           0        5.666987   -0.786668    0.366572
     17          1           0        5.230544   -1.167946   -1.295278
     18          1           0        4.211220   -3.340237   -0.534484
     19          1           0        4.650143   -2.956792    1.136808
     20          1           0        5.917653   -3.244487   -0.067335
     21          6           0       -1.254471    1.763806    1.008803
     22          6           0       -1.273467    0.519608    1.647654
     23          6           0       -2.109675   -0.502020    1.187672
     24          6           0       -2.917418   -0.243815    0.081250
     25          6           0       -2.921032    0.985188   -0.576649
     26          6           0       -2.076864    1.992223   -0.099356
     27          1           0       -0.601792    2.551763    1.372851
     28          1           0       -0.635861    0.339384    2.508480
     29          1           0       -2.144271   -1.474610    1.663370
     30          1           0       -3.567962    1.134995   -1.432486
     31          1           0       -2.064196    2.957501   -0.597475
     32          7           0       -3.806888   -1.317641   -0.414876
     33          8           0       -4.508943   -1.064962   -1.391558
     34          8           0       -3.785156   -2.391653    0.182338
 ---------------------------------------------------------------------

 SCF Done:  E(RHF) =  -669.534930414     A.U. after   15 cycles
 E2 =    -0.2092695641D+01 EUMP2 =    -0.67162762605429D+03

 The electronic state is 1-A.
 Alpha  occ. eigenvalues --  -20.60756 -20.60750 -15.85811 -11.31168 -11.27757
 Alpha  occ. eigenvalues --  -11.27745 -11.27475 -11.26757 -11.26741 -11.22308
 Alpha  occ. eigenvalues --  -11.21989 -11.21959 -11.21939 -11.21824 -11.21342
 Alpha  occ. eigenvalues --   -1.59832  -1.39386  -1.19353  -1.08980  -1.08735
 Alpha  occ. eigenvalues --   -1.04755  -1.04092  -0.96554  -0.95575  -0.87562
 Alpha  occ. eigenvalues --   -0.86154  -0.82414  -0.80155  -0.78755  -0.77458
 Alpha  occ. eigenvalues --   -0.72029  -0.71157  -0.70483  -0.65598  -0.65004
 Alpha  occ. eigenvalues --   -0.64765  -0.62106  -0.61477  -0.59981  -0.58184
 Alpha  occ. eigenvalues --   -0.55828  -0.55220  -0.53298  -0.53029  -0.52953
 Alpha  occ. eigenvalues --   -0.52847  -0.50472  -0.48787  -0.48784  -0.48468
 Alpha  occ. eigenvalues --   -0.47178  -0.46301  -0.46204  -0.44793  -0.44345
 Alpha  occ. eigenvalues --   -0.37262  -0.36355
 Alpha virt. eigenvalues --    0.05062   0.11200   0.16502   0.19816   0.22677
 Alpha virt. eigenvalues --    0.24057   0.25374   0.26360   0.26734   0.27794
 Alpha virt. eigenvalues --    0.28904   0.30527   0.30854   0.31220   0.31850

 Mulliken charges:
               1
     1  C   -0.299158
     2  C   -0.299016
     3  C   -0.477086
     4  H    0.149431
     5  H    0.151729
     6  H    0.142707
     7  H    0.159444
     8  H    0.160316
     9  H    0.156741
    10  H    0.148852
    11  C   -0.298195
    12  C   -0.300069
    13  C   -0.476084
    14  H    0.146403
    15  H    0.152616
    16  H    0.151774
    17  H    0.153231
    18  H    0.157142
    19  H    0.154540
    20  H    0.161577
    21  C   -0.165532
    22  C   -0.217959
    23  C   -0.171311
    24  C    0.157919
    25  C   -0.171100
    26  C   -0.220970
    27  H    0.227637
    28  H    0.222953
    29  H    0.275583
    30  H    0.275568
    31  H    0.223346
    32  N    0.488115
    33  O   -0.460630
    34  O   -0.460513
 Sum of Mulliken charges =  -0.00000

 Dipole moment (field-independent basis, Debye):
    X=              3.2285    Y=              3.7130    Z=              1.6789  Tot=              5.1989
 Quadrupole moment (field-independent basis, Debye-Ang):
   XX=           -112.9894   YY=            -96.4720   ZZ=            -91.3131
   XY=            -12.9573   XZ=             -3.5078   YZ=             -2.2557

 Normal termination of Gaussian 16 at Thu May  6 09:01:41 2021.
