 Gaussian 16, Revision A.03,
 Gaussian 16:  EM64L-G16RevA.03 25-Dec-2016

 -------------
 #p 6-31g* mp2
 -------------

 ------------------------------------------------------
 Input file generated by CHIRIPA (05-May-2021 14:57:26)
 ------------------------------------------------------
 Symbolic Z-matrix:
 Charge =  0 Multiplicity = 1

                         Standard orientation:
 ---------------------------------------------------------------------
 Center     Atomic      Atomic             Coordinates (Angstroms)
 Number     Number       Type             X           Y           Z
 ---------------------------------------------------------------------
      1          6           0        2.228922    2.741707   -0.128227
      2          6           0        2.943300    1.876546   -0.963502
      3          6           0        2.970687    0.502678   -0.706042
      4          6           0        2.269318    0.025964    0.400356
      5          6           0        1.548416    0.862464    1.251154
      6          6           0        1.534984    2.232802    0.974490
      7          1           0        2.213068    3.807589   -0.335687
      8          1           0        3.483144    2.268964   -1.820602
      9          1           0        3.515660   -0.189584   -1.336277
     10          1           0        1.019999    0.441733    2.098018
     11          1           0        0.979343    2.902340    1.624895
     12          7           0        2.290925   -1.426620    0.683081
     13          8           0        1.664807   -1.821658    1.664182
     14          8           0        2.933570   -2.142612   -0.081772
     15          6           0       -4.033233    1.272663    0.582412
     16          6           0       -3.069714    1.769590   -0.301452
     17          6           0       -2.085693    0.926543   -0.826355
     18          6           0       -2.094884   -0.414059   -0.444265
     19          6           0       -3.041376   -0.939035    0.434281
     20          6           0       -4.016019   -0.077683    0.946816
     21          1           0       -4.794001    1.934672    0.985365
     22          1           0       -3.080646    2.817844   -0.586212
     23          1           0       -1.327869    1.284886   -1.512438
     24          1           0       -3.004807   -1.988647    0.699602
     25          1           0       -4.763054   -0.466367    1.633044
     26          7           0       -1.058109   -1.316244   -0.993408
     27          8           0       -1.087880   -2.493382   -0.641132
     28          8           0       -0.235346   -0.829157   -1.765706
 ---------------------------------------------------------------------

 SCF Done:  E(RHF) =  -868.336652880     A.U. after   16 cycles
 E2 =    -0.2603646090D+01 EUMP2 =    -0.87094029896925D+03

 The electronic state is 1-A.
 Alpha  occ. eigenvalues --  -20.60673 -20.60579 -20.59823 -20.59769 -15.85653
 Alpha  occ. eigenvalues --  -15.84856 -11.31164 -11.30469 -11.27794 -11.27722
 Alpha  occ. eigenvalues --  -11.27563 -11.27167 -11.27019 -11.26983 -11.26847
 Alpha  occ. eigenvalues --  -11.26776 -11.26301 -11.26179  -1.59698  -1.58842
 Alpha  occ. eigenvalues --   -1.39240  -1.38402  -1.19367  -1.18699  -1.08739
 Alpha  occ. eigenvalues --   -1.08067  -1.04789  -1.04162  -0.95544  -0.94854
 Alpha  occ. eigenvalues --   -0.86176  -0.85558  -0.82375  -0.81697  -0.77394
 Alpha  occ. eigenvalues --   -0.76678  -0.71880  -0.71268  -0.71094  -0.70472
 Alpha  occ. eigenvalues --   -0.69915  -0.69861  -0.65016  -0.64794  -0.64376
 Alpha  occ. eigenvalues --   -0.64204  -0.62125  -0.61516  -0.55297  -0.54713
 Alpha  occ. eigenvalues --   -0.53136  -0.52887  -0.52453  -0.52283  -0.48660
 Alpha  occ. eigenvalues --   -0.48612  -0.47867  -0.47817  -0.44663  -0.43692
 Alpha  occ. eigenvalues --   -0.37402  -0.36679  -0.36458  -0.35651
 Alpha virt. eigenvalues --    0.05101   0.05897   0.11244   0.11892   0.16541
 Alpha virt. eigenvalues --    0.17340   0.21356   0.21858   0.27248   0.27752
 Alpha virt. eigenvalues --    0.28278   0.28781   0.30821   0.31366   0.32533

 Mulliken charges:
               1
     1  C   -0.175722
     2  C   -0.219150
     3  C   -0.158778
     4  C    0.168234
     5  C   -0.177754
     6  C   -0.220223
     7  H    0.220342
     8  H    0.221468
     9  H    0.278223
    10  H    0.272266
    11  H    0.217610
    12  N    0.490231
    13  O   -0.465253
    14  O   -0.452756
    15  C   -0.171686
    16  C   -0.221289
    17  C   -0.169948
    18  C    0.157322
    19  C   -0.169146
    20  C   -0.219598
    21  H    0.224560
    22  H    0.220099
    23  H    0.274787
    24  H    0.280016
    25  H    0.224227
    26  N    0.484633
    27  O   -0.446773
    28  O   -0.465940
 Sum of Mulliken charges =  -0.00000

 Dipole moment (field-independent basis, Debye):
    X=             -3.6759    Y=              7.7915    Z=              0.7847  Tot=              8.6507
 Quadrupole moment (field-independent basis, Debye-Ang):
   XX=            -88.2780   YY=           -105.3011   ZZ=           -103.9682
   XY=              7.5026   XZ=             -9.1799   YZ=             -1.8038

 Normal termination of Gaussian 16 at Thu May  6 13:07:09 2021.
