 Gaussian 16, Revision A.03,
 Gaussian 16:  EM64L-G16RevA.03 25-Dec-2016

 -------------
 #p 6-31g* mp2
 -------------

 ------------------------------------------------------
 Input file generated by CHIRIPA (05-May-2021 14:53:15)
 ------------------------------------------------------
 Symbolic Z-matrix:
 Charge =  0 Multiplicity = 1

                         Standard orientation:
 ---------------------------------------------------------------------
 Center     Atomic      Atomic             Coordinates (Angstroms)
 Number     Number       Type             X           Y           Z
 ---------------------------------------------------------------------
      1          6           0        3.129177    1.093384    0.369482
      2          6           0        2.277193    2.029376   -0.488440
      3          6           0        2.025361    3.380300    0.181916
      4          1           0        2.631084    0.937437    1.336192
      5          1           0        4.089789    1.580190    0.587746
      6          1           0        1.319021    1.540385   -0.706178
      7          1           0        2.777278    2.182961   -1.453293
      8          1           0        2.971680    3.892216    0.384458
      9          1           0        1.505137    3.245990    1.135818
     10          1           0        1.414376    4.033693   -0.448668
     11          6           0        3.389601   -0.261124   -0.287187
     12          6           0        4.241585   -1.197116    0.570734
     13          6           0        4.493417   -2.548041   -0.099622
     14          1           0        2.428989   -0.747930   -0.505452
     15          1           0        3.887694   -0.105177   -1.253898
     16          1           0        3.741499   -1.350701    1.535588
     17          1           0        5.199757   -0.708126    0.788472
     18          1           0        5.013641   -2.413730   -1.053524
     19          1           0        3.547098   -3.059956   -0.302163
     20          1           0        5.104402   -3.201433    0.530962
     21          6           0       -3.041910    2.148429    0.013028
     22          6           0       -1.750809    1.698437   -0.282075
     23          6           0       -1.464821    0.330232   -0.309907
     24          6           0       -2.498493   -0.564233   -0.036514
     25          6           0       -3.794938   -0.146974    0.260836
     26          6           0       -4.058062    1.225913    0.283066
     27          1           0       -3.255192    3.213101    0.032473
     28          1           0       -0.959686    2.412594   -0.492193
     29          1           0       -0.474195   -0.045558   -0.535428
     30          1           0       -4.562854   -0.882914    0.466054
     31          1           0       -5.061682    1.572508    0.512557
     32          7           0       -2.207833   -2.015169   -0.063012
     33          8           0       -3.135987   -2.782904    0.181424
     34          8           0       -1.057363   -2.357204   -0.327717
 ---------------------------------------------------------------------

 SCF Done:  E(RHF) =  -669.535060833     A.U. after   15 cycles
 E2 =    -0.2092810881D+01 EUMP2 =    -0.67162787171489D+03

 The electronic state is 1-A.
 Alpha  occ. eigenvalues --  -20.60794 -20.60788 -15.85843 -11.31175 -11.27739
 Alpha  occ. eigenvalues --  -11.27719 -11.27467 -11.26752 -11.26692 -11.22449
 Alpha  occ. eigenvalues --  -11.21971 -11.21800 -11.21531 -11.21469 -11.20764
 Alpha  occ. eigenvalues --   -1.59866  -1.39421  -1.19341  -1.08783  -1.08734
 Alpha  occ. eigenvalues --   -1.04750  -1.03856  -0.96289  -0.95585  -0.87310
 Alpha  occ. eigenvalues --   -0.86137  -0.82431  -0.80001  -0.78496  -0.77465
 Alpha  occ. eigenvalues --   -0.72064  -0.71186  -0.70468  -0.65480  -0.64978
 Alpha  occ. eigenvalues --   -0.64756  -0.62231  -0.61106  -0.59725  -0.57874
 Alpha  occ. eigenvalues --   -0.55566  -0.55230  -0.53070  -0.53020  -0.52845
 Alpha  occ. eigenvalues --   -0.52664  -0.50234  -0.48821  -0.48814  -0.48267
 Alpha  occ. eigenvalues --   -0.47033  -0.46024  -0.45888  -0.44833  -0.44092
 Alpha  occ. eigenvalues --   -0.37320  -0.36339
 Alpha virt. eigenvalues --    0.05056   0.11301   0.16537   0.19203   0.22741
 Alpha virt. eigenvalues --    0.23510   0.24644   0.26510   0.26927   0.28520
 Alpha virt. eigenvalues --    0.30223   0.30866   0.31095   0.31406   0.32170

 Mulliken charges:
               1
     1  C   -0.298813
     2  C   -0.305573
     3  C   -0.480063
     4  H    0.151589
     5  H    0.151889
     6  H    0.142596
     7  H    0.157288
     8  H    0.162261
     9  H    0.156870
    10  H    0.154523
    11  C   -0.303821
    12  C   -0.299450
    13  C   -0.478055
    14  H    0.156961
    15  H    0.149978
    16  H    0.154212
    17  H    0.150265
    18  H    0.153573
    19  H    0.164533
    20  H    0.160312
    21  C   -0.171382
    22  C   -0.225548
    23  C   -0.180059
    24  C    0.159778
    25  C   -0.170697
    26  C   -0.218740
    27  H    0.225885
    28  H    0.232852
    29  H    0.281758
    30  H    0.275400
    31  H    0.223383
    32  N    0.488695
    33  O   -0.460067
    34  O   -0.462335
 Sum of Mulliken charges =  -0.00000

 Dipole moment (field-independent basis, Debye):
    X=             -0.8713    Y=              5.0361    Z=              0.1346  Tot=              5.1127
 Quadrupole moment (field-independent basis, Debye-Ang):
   XX=            -83.9412   YY=           -101.6610   ZZ=            -95.2901
   XY=            -10.7407   XZ=             -1.7285   YZ=             -0.9452

 Normal termination of Gaussian 16 at Thu May  6 13:50:20 2021.
