 Gaussian 16, Revision A.03,
 Gaussian 16:  EM64L-G16RevA.03 25-Dec-2016

 -------------
 #p 6-31g* mp2
 -------------

 ------------------------------------------------------
 Input file generated by CHIRIPA (05-May-2021 14:55:19)
 ------------------------------------------------------
 Symbolic Z-matrix:
 Charge =  0 Multiplicity = 1

                         Standard orientation:
 ---------------------------------------------------------------------
 Center     Atomic      Atomic             Coordinates (Angstroms)
 Number     Number       Type             X           Y           Z
 ---------------------------------------------------------------------
      1          6           0        2.949358    2.451713   -0.103350
      2          6           0        4.251554    2.076566    0.243164
      3          6           0        4.620779    0.728284    0.261994
      4          6           0        3.658127   -0.222796   -0.072727
      5          6           0        2.352745    0.119399   -0.422255
      6          6           0        2.005773    1.473656   -0.434371
      7          1           0        2.671178    3.501412   -0.115370
      8          1           0        4.986438    2.833975    0.500694
      9          1           0        5.621861    0.409999    0.526471
     10          1           0        1.642138   -0.658411   -0.674182
     11          1           0        0.993734    1.762080   -0.703875
     12          7           0        4.037230   -1.653325   -0.056347
     13          8           0        3.170590   -2.471989   -0.355281
     14          8           0        5.193832   -1.928822    0.255116
     15          6           0       -3.952326    0.325380   -0.112852
     16          6           0       -2.724332   -0.198116    0.632778
     17          6           0       -1.431447    0.495758    0.202917
     18          1           0       -3.803174    0.189544   -1.192782
     19          1           0       -4.041922    1.407339    0.056657
     20          1           0       -2.637869   -1.279009    0.463039
     21          1           0       -2.876507   -0.061193    1.711068
     22          1           0       -1.492479    1.573067    0.388067
     23          1           0       -1.252485    0.348332   -0.867055
     24          1           0       -0.566253    0.106251    0.748431
     25          6           0       -5.252527   -0.358589    0.305944
     26          6           0       -6.480522    0.164907   -0.439687
     27          6           0       -7.773407   -0.528967   -0.009827
     28          1           0       -5.162932   -1.440548    0.136434
     29          1           0       -5.401680   -0.222753    1.385873
     30          1           0       -6.328347    0.027984   -1.517977
     31          1           0       -6.566985    1.245800   -0.269948
     32          1           0       -7.952369   -0.381541    1.060145
     33          1           0       -7.712375   -1.606276   -0.194975
     34          1           0       -8.638601   -0.139460   -0.555339
 ---------------------------------------------------------------------

 SCF Done:  E(RHF) =  -669.535111533     A.U. after   15 cycles
 E2 =    -0.2091853603D+01 EUMP2 =    -0.67162696513608D+03

 The electronic state is 1-A.
 Alpha  occ. eigenvalues --  -20.60707 -20.60702 -15.85758 -11.31098 -11.27663
 Alpha  occ. eigenvalues --  -11.27618 -11.27382 -11.26688 -11.26581 -11.22187
 Alpha  occ. eigenvalues --  -11.22037 -11.21881 -11.21857 -11.21701 -11.21280
 Alpha  occ. eigenvalues --   -1.59783  -1.39337  -1.19263  -1.08871  -1.08662
 Alpha  occ. eigenvalues --   -1.04668  -1.04015  -0.96516  -0.95503  -0.87565
 Alpha  occ. eigenvalues --   -0.86050  -0.82338  -0.80111  -0.78652  -0.77368
 Alpha  occ. eigenvalues --   -0.71977  -0.71106  -0.70376  -0.65495  -0.64913
 Alpha  occ. eigenvalues --   -0.64658  -0.62056  -0.61408  -0.59848  -0.58092
 Alpha  occ. eigenvalues --   -0.55805  -0.55171  -0.53358  -0.53104  -0.52832
 Alpha  occ. eigenvalues --   -0.52555  -0.50453  -0.48739  -0.48733  -0.48392
 Alpha  occ. eigenvalues --   -0.47102  -0.46202  -0.46100  -0.44748  -0.44255
 Alpha  occ. eigenvalues --   -0.37248  -0.36229
 Alpha virt. eigenvalues --    0.05110   0.11371   0.16554   0.20771   0.22506
 Alpha virt. eigenvalues --    0.23836   0.25734   0.26192   0.27158   0.28142
 Alpha virt. eigenvalues --    0.29459   0.30089   0.30798   0.31450   0.32091

 Mulliken charges:
               1
     1  C   -0.172218
     2  C   -0.218374
     3  C   -0.171565
     4  C    0.158526
     5  C   -0.175139
     6  C   -0.220967
     7  H    0.225167
     8  H    0.222925
     9  H    0.275141
    10  H    0.276326
    11  H    0.233999
    12  N    0.488166
    13  O   -0.460786
    14  O   -0.460735
    15  C   -0.299139
    16  C   -0.300265
    17  C   -0.487198
    18  H    0.149991
    19  H    0.148555
    20  H    0.157338
    21  H    0.155244
    22  H    0.152717
    23  H    0.151114
    24  H    0.167164
    25  C   -0.298955
    26  C   -0.299928
    27  C   -0.476010
    28  H    0.151668
    29  H    0.150561
    30  H    0.152336
    31  H    0.151507
    32  H    0.155603
    33  H    0.156308
    34  H    0.160923
 Sum of Mulliken charges =  -0.00000

 Dipole moment (field-independent basis, Debye):
    X=             -1.5313    Y=              5.0042    Z=             -0.0138  Tot=              5.2332
 Quadrupole moment (field-independent basis, Debye-Ang):
   XX=           -100.9152   YY=            -96.9997   ZZ=            -94.6913
   XY=             19.9160   XZ=              1.3864   YZ=              0.6400

 Normal termination of Gaussian 16 at Wed May  5 20:28:54 2021.
