 Gaussian 16, Revision A.03,
 Gaussian 16:  EM64L-G16RevA.03 25-Dec-2016

 -------------
 #p 6-31g* mp2
 -------------

 ------------------------------------------------------
 Input file generated by CHIRIPA (05-May-2021 14:53:14)
 ------------------------------------------------------
 Symbolic Z-matrix:
 Charge =  0 Multiplicity = 1

                         Standard orientation:
 ---------------------------------------------------------------------
 Center     Atomic      Atomic             Coordinates (Angstroms)
 Number     Number       Type             X           Y           Z
 ---------------------------------------------------------------------
      1          6           0       -3.491381    1.105777   -0.500174
      2          6           0       -2.047786    1.609782   -0.500436
      3          6           0       -1.848433    2.831751   -1.397566
      4          1           0       -3.787138    0.859200   -1.529092
      5          1           0       -4.155405    1.916556   -0.169864
      6          1           0       -1.386536    0.797872   -0.829323
      7          1           0       -1.755368    1.855006    0.528628
      8          1           0       -2.484374    3.659649   -1.067771
      9          1           0       -2.113446    2.596509   -2.433437
     10          1           0       -0.809410    3.175373   -1.382859
     11          6           0       -3.706531   -0.115427    0.392069
     12          6           0       -5.150126   -0.619431    0.392331
     13          6           0       -5.349480   -1.841401    1.289461
     14          1           0       -3.042507   -0.926205    0.061759
     15          1           0       -3.410774    0.131150    1.420987
     16          1           0       -5.442544   -0.864656   -0.636733
     17          1           0       -5.811376    0.192478    0.721218
     18          1           0       -5.084466   -1.606158    2.325332
     19          1           0       -4.713538   -2.669299    0.959666
     20          1           0       -6.388502   -2.185022    1.274754
     21          6           0        4.384845    1.240593    1.156901
     22          6           0        3.001658    1.405115    1.284358
     23          6           0        2.120612    0.509474    0.671062
     24          6           0        2.659597   -0.544191   -0.065534
     25          6           0        4.032837   -0.734813   -0.211014
     26          6           0        4.895122    0.173037    0.410938
     27          1           0        5.061976    1.941091    1.636686
     28          1           0        2.602542    2.233272    1.863070
     29          1           0        1.045502    0.613278    0.753418
     30          1           0        4.400887   -1.570075   -0.794360
     31          1           0        5.968873    0.042797    0.310244
     32          7           0        1.736804   -1.498829   -0.719384
     33          8           0        2.236816   -2.418908   -1.362874
     34          8           0        0.530980   -1.308918   -0.576002
 ---------------------------------------------------------------------

 SCF Done:  E(RHF) =  -669.536351963     A.U. after   15 cycles
 E2 =    -0.2091600891D+01 EUMP2 =    -0.67162795285431D+03

 The electronic state is 1-A.
 Alpha  occ. eigenvalues --  -20.60930 -20.60913 -15.85960 -11.31244 -11.27815
 Alpha  occ. eigenvalues --  -11.27782 -11.27550 -11.26817 -11.26801 -11.21100
 Alpha  occ. eigenvalues --  -11.21050 -11.20868 -11.20810 -11.20692 -11.20543
 Alpha  occ. eigenvalues --   -1.59987  -1.39543  -1.19415  -1.08828  -1.07883
 Alpha  occ. eigenvalues --   -1.04806  -1.03056  -0.95674  -0.95509  -0.86527
 Alpha  occ. eigenvalues --   -0.86208  -0.82511  -0.79129  -0.77749  -0.77490
 Alpha  occ. eigenvalues --   -0.72186  -0.71298  -0.70524  -0.65077  -0.64811
 Alpha  occ. eigenvalues --   -0.64493  -0.62155  -0.60442  -0.58892  -0.57126
 Alpha  occ. eigenvalues --   -0.55316  -0.54786  -0.53142  -0.52898  -0.52234
 Alpha  occ. eigenvalues --   -0.51937  -0.49451  -0.48954  -0.48934  -0.47431
 Alpha  occ. eigenvalues --   -0.46135  -0.45263  -0.45158  -0.44832  -0.43289
 Alpha  occ. eigenvalues --   -0.37398  -0.36407
 Alpha virt. eigenvalues --    0.04935   0.11235   0.16425   0.20930   0.23381
 Alpha virt. eigenvalues --    0.24372   0.26284   0.27204   0.27650   0.28418
 Alpha virt. eigenvalues --    0.29225   0.30808   0.31597   0.31877   0.32262

 Mulliken charges:
               1
     1  C   -0.296478
     2  C   -0.314908
     3  C   -0.474419
     4  H    0.151168
     5  H    0.145482
     6  H    0.179033
     7  H    0.139912
     8  H    0.152595
     9  H    0.157779
    10  H    0.153939
    11  C   -0.301903
    12  C   -0.299305
    13  C   -0.475776
    14  H    0.164638
    15  H    0.144553
    16  H    0.152325
    17  H    0.148731
    18  H    0.153018
    19  H    0.158848
    20  H    0.158173
    21  C   -0.170338
    22  C   -0.219874
    23  C   -0.173793
    24  C    0.156993
    25  C   -0.170560
    26  C   -0.218846
    27  H    0.225827
    28  H    0.224019
    29  H    0.282372
    30  H    0.275554
    31  H    0.223602
    32  N    0.491217
    33  O   -0.459170
    34  O   -0.464410
 Sum of Mulliken charges =  -0.00000

 Dipole moment (field-independent basis, Debye):
    X=              3.3844    Y=              3.1699    Z=              2.2105  Tot=              5.1370
 Quadrupole moment (field-independent basis, Debye-Ang):
   XX=            -75.0866   YY=            -98.5265   ZZ=            -94.9126
   XY=              5.0275   XZ=              4.7736   YZ=              0.7786

 Normal termination of Gaussian 16 at Thu May  6 05:49:22 2021.
