 Gaussian 16, Revision A.03,
 Gaussian 16:  EM64L-G16RevA.03 25-Dec-2016

 -------------
 #p 6-31g* mp2
 -------------

 ------------------------------------------------------
 Input file generated by CHIRIPA (05-May-2021 14:51:07)
 ------------------------------------------------------
 Symbolic Z-matrix:
 Charge =  0 Multiplicity = 1

                         Standard orientation:
 ---------------------------------------------------------------------
 Center     Atomic      Atomic             Coordinates (Angstroms)
 Number     Number       Type             X           Y           Z
 ---------------------------------------------------------------------
      1          6           0       -2.400600   -0.217315    0.736079
      2          6           0       -2.135224   -1.621521    1.279923
      3          6           0       -0.855033   -1.700974    2.112145
      4          1           0       -1.544333    0.100395    0.125496
      5          1           0       -2.464072    0.487842    1.576388
      6          1           0       -2.073649   -2.324047    0.438923
      7          1           0       -2.992307   -1.936002    1.889126
      8          1           0       -0.910291   -1.022608    2.969680
      9          1           0        0.013587   -1.412858    1.511237
     10          1           0       -0.684678   -2.713548    2.491004
     11          6           0       -3.676918   -0.121872   -0.097967
     12          6           0       -3.942293    1.282333   -0.641811
     13          6           0       -5.222484    1.361787   -1.474032
     14          1           0       -3.613446   -0.827030   -0.938276
     15          1           0       -4.533185   -0.439583    0.512616
     16          1           0       -3.085211    1.596814   -1.251013
     17          1           0       -4.003869    1.984859    0.199189
     18          1           0       -6.091104    1.073670   -0.873125
     19          1           0       -5.167226    0.683420   -2.331568
     20          1           0       -5.392840    2.374360   -1.852891
     21          6           0        2.917338    0.708032    0.208933
     22          6           0        3.575569    2.046523   -0.127464
     23          6           0        3.323657    3.113562    0.938257
     24          1           0        1.835928    0.858762    0.330493
     25          1           0        3.294720    0.355249    1.178738
     26          1           0        3.198095    2.396002   -1.096996
     27          1           0        4.655513    1.892554   -0.248425
     28          1           0        3.716164    2.789984    1.907710
     29          1           0        2.250466    3.296294    1.054317
     30          1           0        3.803109    4.062286    0.677670
     31          6           0        3.160179   -0.368845   -0.847045
     32          6           0        2.501948   -1.707335   -0.510649
     33          6           0        2.753860   -2.774374   -1.576370
     34          1           0        2.782797   -0.016061   -1.816850
     35          1           0        4.241590   -0.519574   -0.968605
     36          1           0        1.422005   -1.553366   -0.389687
     37          1           0        2.879423   -2.056815    0.458884
     38          1           0        3.827052   -2.957106   -1.692429
     39          1           0        2.361353   -2.450797   -2.545822
     40          1           0        2.274409   -3.723099   -1.315783
 ---------------------------------------------------------------------

 SCF Done:  E(RHF) =  -470.733239679     A.U. after   11 cycles
 E2 =    -0.1583024320D+01 EUMP2 =    -0.47231626399871D+03

 The electronic state is 1-A.
 Alpha  occ. eigenvalues --  -11.21638 -11.21625 -11.21617 -11.21591 -11.21435
 Alpha  occ. eigenvalues --  -11.21430 -11.21375 -11.21370 -11.21106 -11.21089
 Alpha  occ. eigenvalues --  -11.21070 -11.20972  -1.08470  -1.08436  -1.03568
 Alpha  occ. eigenvalues --   -1.03516  -0.96003  -0.95972  -0.87031  -0.86977
 Alpha  occ. eigenvalues --   -0.79673  -0.79548  -0.78325  -0.78210  -0.65170
 Alpha  occ. eigenvalues --   -0.65007  -0.61052  -0.60843  -0.59377  -0.59338
 Alpha  occ. eigenvalues --   -0.57616  -0.57582  -0.55316  -0.55244  -0.52706
 Alpha  occ. eigenvalues --   -0.52660  -0.52448  -0.52372  -0.50014  -0.49881
 Alpha  occ. eigenvalues --   -0.48044  -0.47820  -0.46774  -0.46557  -0.45986
 Alpha  occ. eigenvalues --   -0.45757  -0.45751  -0.45422  -0.43809  -0.43787
 Alpha virt. eigenvalues --    0.20389   0.23277   0.23720   0.24483   0.25610
 Alpha virt. eigenvalues --    0.26685   0.27089   0.27807   0.28011   0.29360
 Alpha virt. eigenvalues --    0.30822   0.31484   0.31719   0.31890   0.31939

 Mulliken charges:
               1
     1  C   -0.298904
     2  C   -0.299650
     3  C   -0.483085
     4  H    0.148511
     5  H    0.149863
     6  H    0.151542
     7  H    0.152022
     8  H    0.154779
     9  H    0.163655
    10  H    0.159819
    11  C   -0.298272
    12  C   -0.299628
    13  C   -0.475717
    14  H    0.149533
    15  H    0.149951
    16  H    0.151579
    17  H    0.152015
    18  H    0.155293
    19  H    0.155199
    20  H    0.160293
    21  C   -0.300183
    22  C   -0.299621
    23  C   -0.475792
    24  H    0.150680
    25  H    0.150120
    26  H    0.151822
    27  H    0.152086
    28  H    0.155324
    29  H    0.155548
    30  H    0.160227
    31  C   -0.298009
    32  C   -0.304841
    33  C   -0.475304
    34  H    0.149154
    35  H    0.149931
    36  H    0.156240
    37  H    0.152930
    38  H    0.155418
    39  H    0.154911
    40  H    0.160560
 Sum of Mulliken charges =  -0.00000

 Dipole moment (field-independent basis, Debye):
    X=              0.0295    Y=             -0.0019    Z=              0.0006  Tot=              0.0295
 Quadrupole moment (field-independent basis, Debye-Ang):
   XX=            -84.4945   YY=            -85.4621   ZZ=            -84.7160
   XY=             -0.1424   XZ=             -0.4968   YZ=             -0.3877

 Normal termination of Gaussian 16 at Thu May  6 05:15:31 2021.
