 Gaussian 16, Revision A.03,
 Gaussian 16:  EM64L-G16RevA.03 25-Dec-2016

 -------------
 #p 6-31g* mp2
 -------------

 ------------------------------------------------------
 Input file generated by CHIRIPA (05-May-2021 14:53:14)
 ------------------------------------------------------
 Symbolic Z-matrix:
 Charge =  0 Multiplicity = 1

                         Standard orientation:
 ---------------------------------------------------------------------
 Center     Atomic      Atomic             Coordinates (Angstroms)
 Number     Number       Type             X           Y           Z
 ---------------------------------------------------------------------
      1          6           0        4.969949   -0.371346   -0.256720
      2          6           0        5.835107    0.770746    0.277240
      3          6           0        7.152656    0.920043   -0.484054
      4          1           0        5.537052   -1.310479   -0.198695
      5          1           0        4.761585   -0.197307   -1.321469
      6          1           0        6.040624    0.595317    1.341008
      7          1           0        5.265808    1.707239    0.218115
      8          1           0        6.964667    1.119456   -1.544004
      9          1           0        7.743885    0.001216   -0.414731
     10          1           0        7.755458    1.742200   -0.085873
     11          6           0        3.649462   -0.533186    0.494179
     12          6           0        2.784304   -1.675278   -0.039781
     13          6           0        1.466755   -1.824576    0.721513
     14          1           0        3.857826   -0.707225    1.558928
     15          1           0        3.082359    0.405947    0.436154
     16          1           0        3.353603   -2.611772    0.019344
     17          1           0        2.578787   -1.499849   -1.103549
     18          1           0        0.875526   -0.905748    0.652190
     19          1           0        1.654744   -2.023988    1.781463
     20          1           0        0.863953   -2.646733    0.323331
     21          6           0       -1.665339    2.215813   -0.052929
     22          6           0       -1.281258    0.924681   -0.429733
     23          6           0       -2.215615   -0.114965   -0.455426
     24          6           0       -3.531463    0.173275   -0.096608
     25          6           0       -3.944936    1.449197    0.283331
     26          6           0       -2.993611    2.473496    0.301776
     27          1           0       -0.932917    3.017474   -0.035785
     28          1           0       -0.250402    0.721648   -0.705702
     29          1           0       -1.945451   -1.123750   -0.743147
     30          1           0       -4.979893    1.620889    0.553151
     31          1           0       -3.294742    3.475238    0.594825
     32          7           0       -4.529608   -0.919228   -0.119971
     33          8           0       -5.682667   -0.639366    0.200606
     34          8           0       -4.139994   -2.034706   -0.458416
 ---------------------------------------------------------------------

 SCF Done:  E(RHF) =  -669.535264580     A.U. after   15 cycles
 E2 =    -0.2091496093D+01 EUMP2 =    -0.67162676067304D+03

 The electronic state is 1-A.
 Alpha  occ. eigenvalues --  -20.60749 -20.60744 -15.85804 -11.31175 -11.27761
 Alpha  occ. eigenvalues --  -11.27745 -11.27508 -11.26772 -11.26751 -11.22274
 Alpha  occ. eigenvalues --  -11.22109 -11.22063 -11.21924 -11.21758 -11.21494
 Alpha  occ. eigenvalues --   -1.59824  -1.39377  -1.19359  -1.09041  -1.08752
 Alpha  occ. eigenvalues --   -1.04768  -1.04120  -0.96570  -0.95583  -0.87585
 Alpha  occ. eigenvalues --   -0.86162  -0.82420  -0.80179  -0.78844  -0.77460
 Alpha  occ. eigenvalues --   -0.72022  -0.71147  -0.70465  -0.65706  -0.65012
 Alpha  occ. eigenvalues --   -0.64779  -0.62201  -0.61450  -0.59930  -0.58168
 Alpha  occ. eigenvalues --   -0.55892  -0.55255  -0.53258  -0.53155  -0.52986
 Alpha  occ. eigenvalues --   -0.52773  -0.50497  -0.48784  -0.48775  -0.48481
 Alpha  occ. eigenvalues --   -0.47220  -0.46384  -0.46311  -0.44781  -0.44371
 Alpha  occ. eigenvalues --   -0.37340  -0.36342
 Alpha virt. eigenvalues --    0.05060   0.11237   0.16425   0.19632   0.22629
 Alpha virt. eigenvalues --    0.23740   0.25695   0.26628   0.26820   0.28204
 Alpha virt. eigenvalues --    0.29277   0.29642   0.31223   0.31474   0.32166

 Mulliken charges:
               1
     1  C   -0.298617
     2  C   -0.299648
     3  C   -0.475995
     4  H    0.152207
     5  H    0.149070
     6  H    0.153229
     7  H    0.149859
     8  H    0.155307
     9  H    0.156629
    10  H    0.161269
    11  C   -0.297125
    12  C   -0.301286
    13  C   -0.482184
    14  H    0.152566
    15  H    0.142479
    16  H    0.156706
    17  H    0.149072
    18  H    0.149582
    19  H    0.160904
    20  H    0.164206
    21  C   -0.171505
    22  C   -0.220107
    23  C   -0.169853
    24  C    0.158175
    25  C   -0.170572
    26  C   -0.218719
    27  H    0.225532
    28  H    0.225330
    29  H    0.277018
    30  H    0.275692
    31  H    0.223436
    32  N    0.488147
    33  O   -0.460552
    34  O   -0.460252
 Sum of Mulliken charges =  -0.00000

 Dipole moment (field-independent basis, Debye):
    X=              3.6294    Y=              3.7859    Z=              0.1275  Tot=              5.2461
 Quadrupole moment (field-independent basis, Debye-Ang):
   XX=           -117.5434   YY=            -91.1579   ZZ=            -94.8807
   XY=            -16.4419   XZ=             -1.0160   YZ=              0.3631

 Normal termination of Gaussian 16 at Thu May  6 18:47:59 2021.
