 Gaussian 16, Revision A.03,
 Gaussian 16:  EM64L-G16RevA.03 25-Dec-2016

 -------------
 #p 6-31g* mp2
 -------------

 ------------------------------------------------------
 Input file generated by CHIRIPA (05-May-2021 14:51:08)
 ------------------------------------------------------
 Symbolic Z-matrix:
 Charge =  0 Multiplicity = 1

                         Standard orientation:
 ---------------------------------------------------------------------
 Center     Atomic      Atomic             Coordinates (Angstroms)
 Number     Number       Type             X           Y           Z
 ---------------------------------------------------------------------
      1          6           0        2.824216    0.655831   -0.151589
      2          6           0        3.224804    2.009813   -0.738314
      3          6           0        2.242109    3.124339   -0.377849
      4          1           0        1.819858    0.390986   -0.509454
      5          1           0        2.753385    0.744172    0.941376
      6          1           0        3.296207    1.918594   -1.829734
      7          1           0        4.228403    2.271376   -0.379163
      8          1           0        2.177261    3.244326    0.708428
      9          1           0        1.239768    2.889540   -0.750384
     10          1           0        2.547666    4.083463   -0.807474
     11          6           0        3.796870   -0.468457   -0.503228
     12          6           0        3.396282   -1.822439    0.083497
     13          6           0        4.378977   -2.936965   -0.276968
     14          1           0        3.867702   -0.556797   -1.596194
     15          1           0        4.801228   -0.203612   -0.145363
     16          1           0        2.392683   -2.084001   -0.275654
     17          1           0        3.324879   -1.731220    1.174917
     18          1           0        5.381318   -2.702166    0.095567
     19          1           0        4.443825   -3.056952   -1.363245
     20          1           0        4.073420   -3.896089    0.152657
     21          6           0       -3.914371   -0.530103    0.158989
     22          6           0       -4.834002    0.087716   -0.894843
     23          6           0       -6.037461   -0.797165   -1.221136
     24          1           0       -3.565613   -1.509318   -0.196613
     25          1           0       -4.491791   -0.717673    1.074848
     26          1           0       -4.254693    0.275340   -1.807978
     27          1           0       -5.180457    1.065658   -0.536775
     28          1           0       -6.639724   -0.974449   -0.324224
     29          1           0       -5.708699   -1.769257   -1.602651
     30          1           0       -6.681488   -0.336382   -1.976627
     31          6           0       -2.706715    0.342729    0.495827
     32          6           0       -1.787085   -0.275090    1.549661
     33          6           0       -0.583625    0.609791    1.875953
     34          1           0       -2.129295    0.530298   -0.420032
     35          1           0       -3.055473    1.321944    0.851430
     36          1           0       -1.440629   -1.253032    1.191591
     37          1           0       -2.366393   -0.462715    2.462795
     38          1           0       -0.912387    1.581883    2.257468
     39          1           0        0.018638    0.787075    0.979042
     40          1           0        0.060402    0.149008    2.631444
 ---------------------------------------------------------------------

 SCF Done:  E(RHF) =  -470.732735774     A.U. after   11 cycles
 E2 =    -0.1583309143D+01 EUMP2 =    -0.47231604491673D+03

 The electronic state is 1-A.
 Alpha  occ. eigenvalues --  -11.21614 -11.21603 -11.21594 -11.21535 -11.21405
 Alpha  occ. eigenvalues --  -11.21386 -11.21344 -11.21327 -11.21082 -11.21066
 Alpha  occ. eigenvalues --  -11.21058 -11.20891  -1.08451  -1.08393  -1.03546
 Alpha  occ. eigenvalues --   -1.03475  -0.95992  -0.95923  -0.87018  -0.86935
 Alpha  occ. eigenvalues --   -0.79662  -0.79505  -0.78314  -0.78155  -0.65103
 Alpha  occ. eigenvalues --   -0.65008  -0.60958  -0.60871  -0.59368  -0.59296
 Alpha  occ. eigenvalues --   -0.57602  -0.57539  -0.55294  -0.55213  -0.52695
 Alpha  occ. eigenvalues --   -0.52623  -0.52429  -0.52336  -0.49954  -0.49884
 Alpha  occ. eigenvalues --   -0.48052  -0.47751  -0.46718  -0.46591  -0.45895
 Alpha  occ. eigenvalues --   -0.45728  -0.45715  -0.45367  -0.43792  -0.43736
 Alpha virt. eigenvalues --    0.21495   0.23182   0.23590   0.24525   0.25794
 Alpha virt. eigenvalues --    0.26525   0.27127   0.27659   0.28032   0.29535
 Alpha virt. eigenvalues --    0.30712   0.31510   0.31582   0.31682   0.32098

 Mulliken charges:
               1
     1  C   -0.301584
     2  C   -0.299580
     3  C   -0.476761
     4  H    0.150415
     5  H    0.152939
     6  H    0.151516
     7  H    0.151949
     8  H    0.156677
     9  H    0.155315
    10  H    0.160192
    11  C   -0.297650
    12  C   -0.299481
    13  C   -0.475708
    14  H    0.149222
    15  H    0.149698
    16  H    0.151424
    17  H    0.152148
    18  H    0.155263
    19  H    0.155125
    20  H    0.160269
    21  C   -0.298205
    22  C   -0.299604
    23  C   -0.475683
    24  H    0.149441
    25  H    0.149639
    26  H    0.151673
    27  H    0.152003
    28  H    0.155219
    29  H    0.155101
    30  H    0.160206
    31  C   -0.297978
    32  C   -0.299770
    33  C   -0.482360
    34  H    0.148114
    35  H    0.149848
    36  H    0.151343
    37  H    0.151466
    38  H    0.154063
    39  H    0.165308
    40  H    0.158789
 Sum of Mulliken charges =  -0.00000

 Dipole moment (field-independent basis, Debye):
    X=              0.0451    Y=              0.0166    Z=              0.0003  Tot=              0.0480
 Quadrupole moment (field-independent basis, Debye-Ang):
   XX=            -85.4358   YY=            -85.6447   ZZ=            -83.7415
   XY=             -0.0294   XZ=             -0.0746   YZ=              0.1995

 Normal termination of Gaussian 16 at Wed May  5 19:40:43 2021.
