 Gaussian 16, Revision A.03,
 Gaussian 16:  EM64L-G16RevA.03 25-Dec-2016

 -------------
 #p 6-31g* mp2
 -------------

 ------------------------------------------------------
 Input file generated by CHIRIPA (05-May-2021 14:55:25)
 ------------------------------------------------------
 Symbolic Z-matrix:
 Charge =  0 Multiplicity = 1

                         Standard orientation:
 ---------------------------------------------------------------------
 Center     Atomic      Atomic             Coordinates (Angstroms)
 Number     Number       Type             X           Y           Z
 ---------------------------------------------------------------------
      1          6           0       -0.636813   -2.091137    0.549845
      2          6           0       -1.413577   -1.551715    1.580468
      3          6           0       -2.377918   -0.577086    1.307168
      4          6           0       -2.539698   -0.163110   -0.014097
      5          6           0       -1.781326   -0.681443   -1.062664
      6          6           0       -0.822839   -1.655048   -0.766112
      7          1           0        0.110037   -2.847854    0.771182
      8          1           0       -1.271286   -1.888491    2.603395
      9          1           0       -2.992972   -0.142625    2.085866
     10          1           0       -1.946132   -0.325740   -2.072482
     11          1           0       -0.221031   -2.072202   -1.568517
     12          7           0       -3.557504    0.868144   -0.315735
     13          8           0       -3.680646    1.215983   -1.488118
     14          8           0       -4.212846    1.309076    0.625935
     15          6           0        3.144997   -0.273190    0.241185
     16          6           0        3.033692   -1.381885   -0.805902
     17          6           0        3.253993   -2.775561   -0.216896
     18          1           0        4.136116   -0.321069    0.712709
     19          1           0        2.410660   -0.455824    1.037922
     20          1           0        3.767076   -1.196458   -1.601127
     21          1           0        2.042792   -1.331240   -1.275123
     22          1           0        2.514453   -2.985686    0.562545
     23          1           0        4.248534   -2.850137    0.234689
     24          1           0        3.169969   -3.552942   -0.982715
     25          6           0        2.927198    1.125856   -0.332364
     26          6           0        3.038502    2.234551    0.714723
     27          6           0        2.818201    3.628227    0.125717
     28          1           0        3.661535    1.308491   -1.129101
     29          1           0        1.936078    1.173735   -0.803888
     30          1           0        4.029403    2.183907    1.183943
     31          1           0        2.305119    2.049124    1.509947
     32          1           0        1.823661    3.702803   -0.325868
     33          1           0        3.557742    3.838352   -0.653724
     34          1           0        2.902225    4.405608    0.891536
 ---------------------------------------------------------------------

 SCF Done:  E(RHF) =  -669.534737820     A.U. after   15 cycles
 E2 =    -0.2093577967D+01 EUMP2 =    -0.67162831578774D+03

 The electronic state is 1-A.
 Alpha  occ. eigenvalues --  -20.60827 -20.60822 -15.85882 -11.31272 -11.27842
 Alpha  occ. eigenvalues --  -11.27838 -11.27564 -11.26858 -11.26844 -11.22431
 Alpha  occ. eigenvalues --  -11.22178 -11.21974 -11.21867 -11.21749 -11.21198
 Alpha  occ. eigenvalues --   -1.59903  -1.39455  -1.19450  -1.09000  -1.08812
 Alpha  occ. eigenvalues --   -1.04858  -1.04106  -0.96557  -0.95664  -0.87573
 Alpha  occ. eigenvalues --   -0.86254  -0.82503  -0.80195  -0.78736  -0.77542
 Alpha  occ. eigenvalues --   -0.72099  -0.71227  -0.70581  -0.65714  -0.65090
 Alpha  occ. eigenvalues --   -0.64807  -0.62248  -0.61447  -0.59962  -0.58149
 Alpha  occ. eigenvalues --   -0.55977  -0.55238  -0.53267  -0.53170  -0.52997
 Alpha  occ. eigenvalues --   -0.52924  -0.50486  -0.48866  -0.48852  -0.48486
 Alpha  occ. eigenvalues --   -0.47204  -0.46282  -0.46166  -0.44855  -0.44322
 Alpha  occ. eigenvalues --   -0.37394  -0.36434
 Alpha virt. eigenvalues --    0.04961   0.11067   0.16334   0.19571   0.22884
 Alpha virt. eigenvalues --    0.24117   0.25270   0.25927   0.26941   0.28101
 Alpha virt. eigenvalues --    0.29076   0.29719   0.31067   0.31784   0.32155

 Mulliken charges:
               1
     1  C   -0.172490
     2  C   -0.220334
     3  C   -0.170480
     4  C    0.158476
     5  C   -0.172742
     6  C   -0.220026
     7  H    0.232174
     8  H    0.224135
     9  H    0.275943
    10  H    0.276076
    11  H    0.225815
    12  N    0.488008
    13  O   -0.460171
    14  O   -0.460138
    15  C   -0.297868
    16  C   -0.304127
    17  C   -0.479232
    18  H    0.150859
    19  H    0.148771
    20  H    0.156009
    21  H    0.148409
    22  H    0.145420
    23  H    0.162047
    24  H    0.160443
    25  C   -0.299232
    26  C   -0.300117
    27  C   -0.476449
    28  H    0.150003
    29  H    0.151739
    30  H    0.151537
    31  H    0.152535
    32  H    0.158217
    33  H    0.155167
    34  H    0.161623
 Sum of Mulliken charges =  -0.00000

 Dipole moment (field-independent basis, Debye):
    X=              3.6207    Y=             -3.5388    Z=              1.0646  Tot=              5.1736
 Quadrupole moment (field-independent basis, Debye-Ang):
   XX=           -112.1549   YY=            -95.4025   ZZ=            -90.1660
   XY=              8.9670   XZ=             -4.4053   YZ=              0.3754

 Normal termination of Gaussian 16 at Wed May  5 17:40:13 2021.
