 Gaussian 16, Revision A.03,
 Gaussian 16:  EM64L-G16RevA.03 25-Dec-2016

 -------------
 #p 6-31g* mp2
 -------------

 ------------------------------------------------------
 Input file generated by CHIRIPA (05-May-2021 14:53:18)
 ------------------------------------------------------
 Symbolic Z-matrix:
 Charge =  0 Multiplicity = 1

                         Standard orientation:
 ---------------------------------------------------------------------
 Center     Atomic      Atomic             Coordinates (Angstroms)
 Number     Number       Type             X           Y           Z
 ---------------------------------------------------------------------
      1          6           0       -2.743573   -0.489300   -0.222505
      2          6           0       -3.716990   -1.250811    0.677798
      3          6           0       -3.489680   -2.762528    0.648893
      4          1           0       -2.843125   -0.856859   -1.253007
      5          1           0       -1.714260   -0.712307    0.090827
      6          1           0       -4.744195   -1.025348    0.363740
      7          1           0       -3.615245   -0.881264    1.706243
      8          1           0       -2.475853   -3.006103    0.982699
      9          1           0       -3.611216   -3.151007   -0.367431
     10          1           0       -4.196300   -3.287269    1.299428
     11          6           0       -2.958260    1.023084   -0.204286
     12          6           0       -1.984844    1.784596   -1.104590
     13          6           0       -2.212153    3.296313   -1.075684
     14          1           0       -3.987573    1.246092   -0.517619
     15          1           0       -2.858709    1.390643    0.826216
     16          1           0       -2.086588    1.415048   -2.133034
     17          1           0       -0.957639    1.559133   -0.790532
     18          1           0       -2.090617    3.684791   -0.059360
     19          1           0       -3.225981    3.539887   -1.409490
     20          1           0       -1.505534    3.821054   -1.726219
     21          6           0        2.195216    2.053162    1.284632
     22          6           0        3.217037    1.731266    0.385307
     23          6           0        3.244840    0.481136   -0.239952
     24          6           0        2.230379   -0.427159    0.058640
     25          6           0        1.198914   -0.136081    0.950067
     26          6           0        1.191186    1.120106    1.563650
     27          1           0        2.181415    3.026646    1.765813
     28          1           0        3.998086    2.453917    0.166713
     29          1           0        4.024077    0.205788   -0.940232
     30          1           0        0.434088   -0.877243    1.147898
     31          1           0        0.396386    1.367353    2.261654
     32          7           0        2.249186   -1.753822   -0.597114
     33          8           0        1.343825   -2.536481   -0.317106
     34          8           0        3.168932   -1.985881   -1.378685
 ---------------------------------------------------------------------

 SCF Done:  E(RHF) =  -669.535199756     A.U. after   15 cycles
 E2 =    -0.2093361273D+01 EUMP2 =    -0.67162856102943D+03

 The electronic state is 1-A.
 Alpha  occ. eigenvalues --  -20.60839 -20.60834 -15.85891 -11.31288 -11.27869
 Alpha  occ. eigenvalues --  -11.27852 -11.27604 -11.26899 -11.26867 -11.21722
 Alpha  occ. eigenvalues --  -11.21650 -11.21608 -11.21462 -11.21358 -11.20875
 Alpha  occ. eigenvalues --   -1.59910  -1.39463  -1.19472  -1.08853  -1.08572
 Alpha  occ. eigenvalues --   -1.04883  -1.03620  -0.96074  -0.95683  -0.87082
 Alpha  occ. eigenvalues --   -0.86272  -0.82516  -0.79680  -0.78390  -0.77550
 Alpha  occ. eigenvalues --   -0.72109  -0.71231  -0.70580  -0.65282  -0.65108
 Alpha  occ. eigenvalues --   -0.64867  -0.62224  -0.61031  -0.59445  -0.57670
 Alpha  occ. eigenvalues --   -0.55446  -0.55299  -0.53227  -0.52990  -0.52740
 Alpha  occ. eigenvalues --   -0.52462  -0.50007  -0.48871  -0.48863  -0.47983
 Alpha  occ. eigenvalues --   -0.46721  -0.45900  -0.45854  -0.44845  -0.43891
 Alpha  occ. eigenvalues --   -0.37439  -0.36425
 Alpha virt. eigenvalues --    0.04935   0.11090   0.16408   0.19958   0.23106
 Alpha virt. eigenvalues --    0.23585   0.25736   0.26636   0.27713   0.28155
 Alpha virt. eigenvalues --    0.29474   0.30317   0.31438   0.31783   0.31837

 Mulliken charges:
               1
     1  C   -0.302210
     2  C   -0.300064
     3  C   -0.476255
     4  H    0.155676
     5  H    0.148076
     6  H    0.152468
     7  H    0.146330
     8  H    0.159942
     9  H    0.159034
    10  H    0.159116
    11  C   -0.297261
    12  C   -0.305393
    13  C   -0.474550
    14  H    0.151219
    15  H    0.141561
    16  H    0.154788
    17  H    0.156022
    18  H    0.149444
    19  H    0.156499
    20  H    0.160096
    21  C   -0.170708
    22  C   -0.218196
    23  C   -0.170646
    24  C    0.158829
    25  C   -0.172120
    26  C   -0.219118
    27  H    0.226426
    28  H    0.224053
    29  H    0.276087
    30  H    0.278716
    31  H    0.224529
    32  N    0.488311
    33  O   -0.460834
    34  O   -0.459865
 Sum of Mulliken charges =  -0.00000

 Dipole moment (field-independent basis, Debye):
    X=              0.0208    Y=              4.5695    Z=              2.2214  Tot=              5.0809
 Quadrupole moment (field-independent basis, Debye-Ang):
   XX=            -91.2797   YY=           -100.2562   ZZ=            -93.2660
   XY=             12.2956   XZ=              3.6898   YZ=             -1.1383

 Normal termination of Gaussian 16 at Thu May  6 02:50:25 2021.
