 Gaussian 16, Revision A.03,
 Gaussian 16:  EM64L-G16RevA.03 25-Dec-2016

 -------------
 #p 6-31g* mp2
 -------------

 ------------------------------------------------------
 Input file generated by CHIRIPA (05-May-2021 14:51:11)
 ------------------------------------------------------
 Symbolic Z-matrix:
 Charge =  0 Multiplicity = 1

                         Standard orientation:
 ---------------------------------------------------------------------
 Center     Atomic      Atomic             Coordinates (Angstroms)
 Number     Number       Type             X           Y           Z
 ---------------------------------------------------------------------
      1          6           0        2.462821    1.238407    0.405283
      2          6           0        1.391712    2.287366    0.104625
      3          6           0        1.559330    3.558845    0.937114
      4          1           0        2.429772    0.985715    1.473927
      5          1           0        3.454483    1.672775    0.217328
      6          1           0        0.402307    1.850707    0.291765
      7          1           0        1.427188    2.537449   -0.963465
      8          1           0        2.533127    4.020306    0.743787
      9          1           0        1.502422    3.329662    2.006150
     10          1           0        0.783164    4.295124    0.706204
     11          6           0        2.308644   -0.038411   -0.419153
     12          6           0        3.379752   -1.087370   -0.118495
     13          6           0        3.212135   -2.358850   -0.950985
     14          1           0        1.316982   -0.472779   -0.231199
     15          1           0        2.341693    0.214281   -1.487797
     16          1           0        3.344276   -1.337453    0.949595
     17          1           0        4.369158   -0.650711   -0.305636
     18          1           0        3.269042   -2.129666   -2.020021
     19          1           0        2.238338   -2.820310   -0.757658
     20          1           0        3.988301   -3.095128   -0.720075
     21          6           0       -2.750120    0.050595    0.172415
     22          6           0       -2.733672    1.063109   -0.973241
     23          6           0       -3.466634    2.359517   -0.626997
     24          1           0       -3.791751   -0.175320    0.438711
     25          1           0       -2.291908    0.505771    1.061375
     26          1           0       -3.190527    0.605681   -1.860179
     27          1           0       -1.691959    1.286494   -1.236969
     28          1           0       -3.007634    2.841162    0.242450
     29          1           0       -4.514715    2.156481   -0.384300
     30          1           0       -3.442587    3.069068   -1.459956
     31          6           0       -2.021344   -1.250590   -0.158544
     32          6           0       -2.037794   -2.263105    0.987112
     33          6           0       -1.304831   -3.559513    0.640867
     34          1           0       -2.479557   -1.705767   -1.047504
     35          1           0       -0.979714   -1.024676   -0.424840
     36          1           0       -3.079505   -2.486490    1.250841
     37          1           0       -1.580937   -1.805677    1.874050
     38          1           0       -0.256749   -3.356477    0.398171
     39          1           0       -1.763831   -4.041158   -0.228579
     40          1           0       -1.328877   -4.269063    1.473826
 ---------------------------------------------------------------------

 SCF Done:  E(RHF) =  -470.733103075     A.U. after   11 cycles
 E2 =    -0.1584738591D+01 EUMP2 =    -0.47231784166580D+03

 The electronic state is 1-A.
 Alpha  occ. eigenvalues --  -11.21682 -11.21657 -11.21642 -11.21563 -11.21476
 Alpha  occ. eigenvalues --  -11.21416 -11.21416 -11.21356 -11.21132 -11.21126
 Alpha  occ. eigenvalues --  -11.21115 -11.21058  -1.08525  -1.08431  -1.03608
 Alpha  occ. eigenvalues --   -1.03532  -0.96052  -0.95988  -0.87077  -0.86995
 Alpha  occ. eigenvalues --   -0.79704  -0.79561  -0.78441  -0.78155  -0.65390
 Alpha  occ. eigenvalues --   -0.64850  -0.61165  -0.60796  -0.59422  -0.59337
 Alpha  occ. eigenvalues --   -0.57711  -0.57560  -0.55470  -0.55160  -0.52736
 Alpha  occ. eigenvalues --   -0.52684  -0.52539  -0.52353  -0.50142  -0.49769
 Alpha  occ. eigenvalues --   -0.48138  -0.47806  -0.46844  -0.46480  -0.46442
 Alpha  occ. eigenvalues --   -0.45814  -0.45757  -0.45080  -0.43848  -0.43795
 Alpha virt. eigenvalues --    0.19140   0.21259   0.23828   0.25138   0.25426
 Alpha virt. eigenvalues --    0.26059   0.26776   0.27212   0.28812   0.29696
 Alpha virt. eigenvalues --    0.31158   0.31305   0.31611   0.31876   0.32016

 Mulliken charges:
               1
     1  C   -0.297518
     2  C   -0.305318
     3  C   -0.475755
     4  H    0.149484
     5  H    0.150101
     6  H    0.156665
     7  H    0.152305
     8  H    0.155601
     9  H    0.155128
    10  H    0.160749
    11  C   -0.308195
    12  C   -0.298892
    13  C   -0.479638
    14  H    0.157700
    15  H    0.149943
    16  H    0.151899
    17  H    0.152359
    18  H    0.155640
    19  H    0.158170
    20  H    0.160811
    21  C   -0.298544
    22  C   -0.303672
    23  C   -0.475791
    24  H    0.149949
    25  H    0.148986
    26  H    0.151959
    27  H    0.156451
    28  H    0.155058
    29  H    0.155084
    30  H    0.160264
    31  C   -0.308105
    32  C   -0.299159
    33  C   -0.479620
    34  H    0.150145
    35  H    0.158066
    36  H    0.152415
    37  H    0.151251
    38  H    0.157436
    39  H    0.155893
    40  H    0.160694
 Sum of Mulliken charges =  -0.00000

 Dipole moment (field-independent basis, Debye):
    X=              0.0247    Y=              0.0062    Z=             -0.0154  Tot=              0.0298
 Quadrupole moment (field-independent basis, Debye-Ang):
   XX=            -83.8663   YY=            -86.3674   ZZ=            -84.3955
   XY=              1.1383   XZ=             -0.0685   YZ=             -0.7611

 Normal termination of Gaussian 16 at Thu May  6 07:02:51 2021.
