 Gaussian 16, Revision A.03,
 Gaussian 16:  EM64L-G16RevA.03 25-Dec-2016

 -------------
 #p 6-31g* mp2
 -------------

 ------------------------------------------------------
 Input file generated by CHIRIPA (05-May-2021 14:57:22)
 ------------------------------------------------------
 Symbolic Z-matrix:
 Charge =  0 Multiplicity = 1

                         Standard orientation:
 ---------------------------------------------------------------------
 Center     Atomic      Atomic             Coordinates (Angstroms)
 Number     Number       Type             X           Y           Z
 ---------------------------------------------------------------------
      1          6           0        1.077289   -1.724775    1.058962
      2          6           0        2.070593   -2.178267    0.184769
      3          6           0        3.072757   -1.311894   -0.262011
      4          6           0        3.051141    0.007489    0.187491
      5          6           0        2.075056    0.489225    1.058398
      6          6           0        1.082682   -0.394821    1.492223
      7          1           0        0.302587   -2.404659    1.401000
      8          1           0        2.068901   -3.210601   -0.153356
      9          1           0        3.853712   -1.636581   -0.938847
     10          1           0        2.103045    1.523845    1.378078
     11          1           0        0.312524   -0.039867    2.171126
     12          7           0        4.106905    0.934034   -0.278638
     13          8           0        4.065655    2.091735    0.132047
     14          8           0        4.955672    0.485014   -1.045849
     15          6           0       -3.237633    2.625413    0.026535
     16          6           0       -2.108323    2.157156   -0.653110
     17          6           0       -1.898379    0.785095   -0.820200
     18          6           0       -2.842287   -0.094559   -0.292432
     19          6           0       -3.977366    0.341046    0.389573
     20          6           0       -4.166912    1.717465    0.544793
     21          1           0       -3.392800    3.692956    0.151724
     22          1           0       -1.384965    2.859972   -1.056651
     23          1           0       -1.032859    0.395293   -1.342069
     24          1           0       -4.680861   -0.383878    0.780720
     25          1           0       -5.044866    2.078259    1.073062
     26          7           0       -2.630825   -1.549405   -0.463040
     27          8           0       -3.477256   -2.303846    0.011314
     28          8           0       -1.622656   -1.907725   -1.067886
 ---------------------------------------------------------------------

 SCF Done:  E(RHF) =  -868.339510642     A.U. after   16 cycles
 E2 =    -0.2600728186D+01 EUMP2 =    -0.87094023882881D+03

 The electronic state is 1-A.
 Alpha  occ. eigenvalues --  -20.61598 -20.61577 -20.60663 -20.60641 -15.86606
 Alpha  occ. eigenvalues --  -15.85705 -11.31777 -11.30892 -11.28346 -11.28282
 Alpha  occ. eigenvalues --  -11.28019 -11.27527 -11.27404 -11.27292 -11.27233
 Alpha  occ. eigenvalues --  -11.27036 -11.26432 -11.26266  -1.60671  -1.59738
 Alpha  occ. eigenvalues --   -1.40221  -1.39296  -1.19940  -1.19047  -1.09369
 Alpha  occ. eigenvalues --   -1.08434  -1.05295  -1.04427  -0.96232  -0.95304
 Alpha  occ. eigenvalues --   -0.86697  -0.85810  -0.83060  -0.82150  -0.78132
 Alpha  occ. eigenvalues --   -0.77253  -0.72837  -0.72030  -0.71921  -0.71070
 Alpha  occ. eigenvalues --   -0.71015  -0.70050  -0.65577  -0.65272  -0.64678
 Alpha  occ. eigenvalues --   -0.64399  -0.62626  -0.61785  -0.55793  -0.54827
 Alpha  occ. eigenvalues --   -0.53673  -0.53375  -0.52739  -0.52493  -0.49603
 Alpha  occ. eigenvalues --   -0.49584  -0.48691  -0.48662  -0.45667  -0.44743
 Alpha  occ. eigenvalues --   -0.37934  -0.37062  -0.36796  -0.35962
 Alpha virt. eigenvalues --    0.04338   0.05302   0.10613   0.11748   0.15798
 Alpha virt. eigenvalues --    0.16961   0.20985   0.21841   0.26911   0.27656
 Alpha virt. eigenvalues --    0.27849   0.28716   0.30608   0.31455   0.32036

 Mulliken charges:
               1
     1  C   -0.159358
     2  C   -0.215431
     3  C   -0.172593
     4  C    0.155578
     5  C   -0.176444
     6  C   -0.225359
     7  H    0.233977
     8  H    0.228540
     9  H    0.274920
    10  H    0.270924
    11  H    0.220971
    12  N    0.488114
    13  O   -0.464669
    14  O   -0.460272
    15  C   -0.170587
    16  C   -0.221877
    17  C   -0.169792
    18  C    0.152932
    19  C   -0.172243
    20  C   -0.219452
    21  H    0.228554
    22  H    0.228794
    23  H    0.280036
    24  H    0.275655
    25  H    0.225080
    26  N    0.485480
    27  O   -0.460701
    28  O   -0.460777
 Sum of Mulliken charges =  -0.00000

 Dipole moment (field-independent basis, Debye):
    X=             -4.6437    Y=              1.6901    Z=              2.1626  Tot=              5.3942
 Quadrupole moment (field-independent basis, Debye-Ang):
   XX=           -120.1800   YY=           -103.1463   ZZ=           -103.1178
   XY=            -26.3373   XZ=             -0.9508   YZ=             -0.5757

 Normal termination of Gaussian 16 at Fri May  7 00:12:21 2021.
