 Gaussian 16, Revision A.03,
 Gaussian 16:  EM64L-G16RevA.03 25-Dec-2016

 -------------
 #p 6-31g* mp2
 -------------

 ------------------------------------------------------
 Input file generated by CHIRIPA (05-May-2021 14:53:15)
 ------------------------------------------------------
 Symbolic Z-matrix:
 Charge =  0 Multiplicity = 1

                         Standard orientation:
 ---------------------------------------------------------------------
 Center     Atomic      Atomic             Coordinates (Angstroms)
 Number     Number       Type             X           Y           Z
 ---------------------------------------------------------------------
      1          6           0        3.539483    0.988087   -0.343256
      2          6           0        3.141211    1.829684    0.869624
      3          6           0        2.755101    3.260895    0.494995
      4          1           0        4.379946    1.473273   -0.858195
      5          1           0        2.704603    0.968626   -1.057394
      6          1           0        3.976088    1.846409    1.581887
      7          1           0        2.301723    1.342338    1.381845
      8          1           0        1.907109    3.262421   -0.197471
      9          1           0        3.590987    3.769355    0.003708
     10          1           0        2.473944    3.844798    1.376964
     11          6           0        3.928147   -0.445166    0.015146
     12          6           0        4.326418   -1.286763   -1.197735
     13          6           0        4.712529   -2.717974   -0.823106
     14          1           0        4.763027   -0.425705    0.729283
     15          1           0        3.087684   -0.930352    0.530084
     16          1           0        5.165906   -0.799418   -1.709955
     17          1           0        3.491542   -1.303488   -1.909997
     18          1           0        3.876643   -3.226435   -0.331818
     19          1           0        5.560520   -2.719500   -0.130640
     20          1           0        4.993686   -3.301877   -1.705074
     21          6           0       -0.970342   -0.990196    1.532025
     22          6           0       -2.182690   -1.686882    1.568937
     23          6           0       -3.267989   -1.264781    0.795306
     24          6           0       -3.105242   -0.136853   -0.007551
     25          6           0       -1.910152    0.578437   -0.065937
     26          6           0       -0.838176    0.138251    0.716144
     27          1           0       -0.132430   -1.325118    2.136282
     28          1           0       -2.288206   -2.563584    2.201634
     29          1           0       -4.217843   -1.785459    0.804815
     30          1           0       -1.835244    1.448840   -0.706411
     31          1           0        0.102165    0.681264    0.685480
     32          7           0       -4.247148    0.319579   -0.831033
     33          8           0       -4.078207    1.316272   -1.530104
     34          8           0       -5.289492   -0.328006   -0.761815
 ---------------------------------------------------------------------

 SCF Done:  E(RHF) =  -669.535485025     A.U. after   15 cycles
 E2 =    -0.2091526489D+01 EUMP2 =    -0.67162701151441D+03

 The electronic state is 1-A.
 Alpha  occ. eigenvalues --  -20.60761 -20.60756 -15.85814 -11.31184 -11.27753
 Alpha  occ. eigenvalues --  -11.27748 -11.27498 -11.26771 -11.26740 -11.22686
 Alpha  occ. eigenvalues --  -11.22315 -11.22273 -11.22219 -11.21966 -11.21661
 Alpha  occ. eigenvalues --   -1.59836  -1.39390  -1.19356  -1.09317  -1.08751
 Alpha  occ. eigenvalues --   -1.04761  -1.04360  -0.96786  -0.95586  -0.87801
 Alpha  occ. eigenvalues --   -0.86162  -0.82418  -0.80432  -0.79115  -0.77466
 Alpha  occ. eigenvalues --   -0.72033  -0.71159  -0.70468  -0.66056  -0.65008
 Alpha  occ. eigenvalues --   -0.64723  -0.62207  -0.61651  -0.60155  -0.58392
 Alpha  occ. eigenvalues --   -0.56081  -0.55260  -0.53465  -0.53200  -0.53087
 Alpha  occ. eigenvalues --   -0.52857  -0.50734  -0.48815  -0.48787  -0.48706
 Alpha  occ. eigenvalues --   -0.47487  -0.46650  -0.46573  -0.44794  -0.44615
 Alpha  occ. eigenvalues --   -0.37339  -0.36362
 Alpha virt. eigenvalues --    0.05069   0.11262   0.16553   0.18188   0.22974
 Alpha virt. eigenvalues --    0.23235   0.25092   0.25950   0.27161   0.28261
 Alpha virt. eigenvalues --    0.29622   0.30157   0.30947   0.31073   0.31948

 Mulliken charges:
               1
     1  C   -0.300491
     2  C   -0.303720
     3  C   -0.476610
     4  H    0.154967
     5  H    0.148748
     6  H    0.157739
     7  H    0.140860
     8  H    0.152810
     9  H    0.160641
    10  H    0.163621
    11  C   -0.296825
    12  C   -0.300522
    13  C   -0.475933
    14  H    0.151899
    15  H    0.141760
    16  H    0.154475
    17  H    0.154054
    18  H    0.153671
    19  H    0.155934
    20  H    0.163237
    21  C   -0.173548
    22  C   -0.218440
    23  C   -0.171244
    24  C    0.159063
    25  C   -0.172700
    26  C   -0.227212
    27  H    0.225625
    28  H    0.223450
    29  H    0.275613
    30  H    0.275860
    31  H    0.236079
    32  N    0.487982
    33  O   -0.460377
    34  O   -0.460469
 Sum of Mulliken charges =  -0.00000

 Dipole moment (field-independent basis, Debye):
    X=              4.2451    Y=             -1.5640    Z=              2.8378  Tot=              5.3404
 Quadrupole moment (field-independent basis, Debye-Ang):
   XX=           -116.8219   YY=            -92.4456   ZZ=            -94.8492
   XY=              7.7738   XZ=            -10.3549   YZ=             -1.7686

 Normal termination of Gaussian 16 at Thu May  6 20:26:17 2021.
