 Gaussian 16, Revision A.03,
 Gaussian 16:  EM64L-G16RevA.03 25-Dec-2016

 -------------
 #p 6-31g* mp2
 -------------

 ------------------------------------------------------
 Input file generated by CHIRIPA (05-May-2021 14:55:21)
 ------------------------------------------------------
 Symbolic Z-matrix:
 Charge =  0 Multiplicity = 1

                         Standard orientation:
 ---------------------------------------------------------------------
 Center     Atomic      Atomic             Coordinates (Angstroms)
 Number     Number       Type             X           Y           Z
 ---------------------------------------------------------------------
      1          6           0       -2.078281    2.252052   -0.038431
      2          6           0       -2.530438    1.640083   -1.212130
      3          6           0       -2.994394    0.321415   -1.191994
      4          6           0       -2.992235   -0.358884    0.024755
      5          6           0       -2.548128    0.223352    1.210951
      6          6           0       -2.088551    1.542983    1.167238
      7          1           0       -1.719569    3.276799   -0.063230
      8          1           0       -2.523608    2.188335   -2.149903
      9          1           0       -3.350076   -0.176602   -2.085800
     10          1           0       -2.567013   -0.348672    2.130652
     11          1           0       -1.737991    2.015704    2.080303
     12          7           0       -3.481087   -1.755408    0.058552
     13          8           0       -3.468990   -2.333224    1.143273
     14          8           0       -3.867090   -2.245746   -1.000319
     15          6           0        4.431081   -0.123453    0.042832
     16          6           0        4.497465   -1.628891   -0.216462
     17          6           0        5.912697   -2.190774   -0.077896
     18          1           0        5.102226    0.392700   -0.657236
     19          1           0        4.812094    0.084860    1.052203
     20          1           0        4.115148   -1.834447   -1.224528
     21          1           0        3.825938   -2.141505    0.484178
     22          1           0        6.300020   -2.014738    0.930862
     23          1           0        6.590873   -1.705936   -0.787551
     24          1           0        5.937129   -3.268431   -0.267417
     25          6           0        3.022786    0.452974   -0.091947
     26          6           0        2.956402    1.958413    0.167348
     27          6           0        1.541170    2.520295    0.028781
     28          1           0        2.641772    0.244662   -1.101317
     29          1           0        2.351641   -0.063178    0.608121
     30          1           0        3.627929    2.471027   -0.533291
     31          1           0        3.338719    2.163969    1.175414
     32          1           0        0.862995    2.035458    0.738436
     33          1           0        1.153848    2.344260   -0.979977
     34          1           0        1.516737    3.597953    0.218303
 ---------------------------------------------------------------------

 SCF Done:  E(RHF) =  -669.535020686     A.U. after   15 cycles
 E2 =    -0.2092082958D+01 EUMP2 =    -0.67162710364411D+03

 The electronic state is 1-A.
 Alpha  occ. eigenvalues --  -20.60750 -20.60745 -15.85806 -11.31160 -11.27761
 Alpha  occ. eigenvalues --  -11.27757 -11.27472 -11.26740 -11.26730 -11.22062
 Alpha  occ. eigenvalues --  -11.21719 -11.21706 -11.21690 -11.21582 -11.21154
 Alpha  occ. eigenvalues --   -1.59827  -1.39380  -1.19351  -1.08760  -1.08699
 Alpha  occ. eigenvalues --   -1.04760  -1.03847  -0.96325  -0.95566  -0.87348
 Alpha  occ. eigenvalues --   -0.86153  -0.82408  -0.79924  -0.78502  -0.77458
 Alpha  occ. eigenvalues --   -0.72025  -0.71151  -0.70444  -0.65353  -0.65001
 Alpha  occ. eigenvalues --   -0.64761  -0.62112  -0.61243  -0.59702  -0.57922
 Alpha  occ. eigenvalues --   -0.55615  -0.55247  -0.53338  -0.52998  -0.52849
 Alpha  occ. eigenvalues --   -0.52517  -0.50257  -0.48782  -0.48779  -0.48221
 Alpha  occ. eigenvalues --   -0.46942  -0.46052  -0.45961  -0.44789  -0.44102
 Alpha  occ. eigenvalues --   -0.37238  -0.36355
 Alpha virt. eigenvalues --    0.05079   0.11163   0.16524   0.21007   0.22640
 Alpha virt. eigenvalues --    0.24070   0.26256   0.26842   0.27198   0.27423
 Alpha virt. eigenvalues --    0.28782   0.30097   0.31040   0.31777   0.32223

 Mulliken charges:
               1
     1  C   -0.163002
     2  C   -0.220824
     3  C   -0.170301
     4  C    0.158139
     5  C   -0.171712
     6  C   -0.220986
     7  H    0.228032
     8  H    0.223269
     9  H    0.275568
    10  H    0.275437
    11  H    0.223499
    12  N    0.488177
    13  O   -0.460719
    14  O   -0.460600
    15  C   -0.298610
    16  C   -0.300109
    17  C   -0.475942
    18  H    0.149560
    19  H    0.149398
    20  H    0.152788
    21  H    0.153619
    22  H    0.155089
    23  H    0.154861
    24  H    0.161789
    25  C   -0.298252
    26  C   -0.299975
    27  C   -0.480086
    28  H    0.150415
    29  H    0.150855
    30  H    0.152611
    31  H    0.151906
    32  H    0.157195
    33  H    0.154674
    34  H    0.154238
 Sum of Mulliken charges =  -0.00000

 Dipole moment (field-independent basis, Debye):
    X=              1.7494    Y=              4.8750    Z=             -0.1389  Tot=              5.1813
 Quadrupole moment (field-independent basis, Debye-Ang):
   XX=           -106.5536   YY=            -99.4307   ZZ=            -88.9778
   XY=            -15.2504   XZ=              1.2130   YZ=             -0.2414

 Normal termination of Gaussian 16 at Wed May  5 23:50:20 2021.
