 Gaussian 16, Revision A.03,
 Gaussian 16:  EM64L-G16RevA.03 25-Dec-2016

 -------------
 #p 6-31g* mp2
 -------------

 ------------------------------------------------------
 Input file generated by CHIRIPA (05-May-2021 14:53:17)
 ------------------------------------------------------
 Symbolic Z-matrix:
 Charge =  0 Multiplicity = 1

                         Standard orientation:
 ---------------------------------------------------------------------
 Center     Atomic      Atomic             Coordinates (Angstroms)
 Number     Number       Type             X           Y           Z
 ---------------------------------------------------------------------
      1          6           0        4.107968    0.305657   -0.312779
      2          6           0        5.123556   -0.589242    0.398364
      3          6           0        6.144941   -1.202004   -0.560327
      4          1           0        3.585947   -0.281393   -1.080770
      5          1           0        4.642630    1.106881   -0.841525
      6          1           0        4.587050   -1.387732    0.926749
      7          1           0        5.643086   -0.000043    1.164881
      8          1           0        6.705881   -0.417515   -1.078522
      9          1           0        5.643845   -1.813090   -1.318007
     10          1           0        6.861276   -1.837982   -0.030936
     11          6           0        3.080272    0.925546    0.632370
     12          6           0        2.064685    1.820444   -0.078772
     13          6           0        1.043300    2.433207    0.879919
     14          1           0        2.545611    0.124322    1.161117
     15          1           0        3.602294    1.512596    1.400362
     16          1           0        1.545155    1.231245   -0.845290
     17          1           0        2.601191    2.618935   -0.607158
     18          1           0        1.544396    3.044293    1.637599
     19          1           0        0.482360    1.648718    1.398113
     20          1           0        0.326965    3.069185    0.350527
     21          6           0       -0.797906   -2.005377   -0.081194
     22          6           0       -1.933892   -2.323114    0.670536
     23          6           0       -3.053334   -1.485785    0.653922
     24          6           0       -3.002226   -0.333561   -0.129060
     25          6           0       -1.885204    0.010245   -0.888896
     26          6           0       -0.777224   -0.841764   -0.857143
     27          1           0        0.067252   -2.661537   -0.062407
     28          1           0       -1.952775   -3.226133    1.274063
     29          1           0       -3.945827   -1.707731    1.226297
     30          1           0       -1.896109    0.917352   -1.480888
     31          1           0        0.103630   -0.592487   -1.441952
     32          7           0       -4.181263    0.560651   -0.154662
     33          8           0       -4.111139    1.569909   -0.852603
     34          8           0       -5.153190    0.235347    0.523697
 ---------------------------------------------------------------------

 SCF Done:  E(RHF) =  -669.535340323     A.U. after   15 cycles
 E2 =    -0.2092279420D+01 EUMP2 =    -0.67162761974235D+03

 The electronic state is 1-A.
 Alpha  occ. eigenvalues --  -20.60784 -20.60779 -15.85839 -11.31225 -11.27802
 Alpha  occ. eigenvalues --  -11.27797 -11.27553 -11.26820 -11.26808 -11.22256
 Alpha  occ. eigenvalues --  -11.22244 -11.22103 -11.22016 -11.21646 -11.21429
 Alpha  occ. eigenvalues --   -1.59858  -1.39411  -1.19405  -1.09089  -1.08794
 Alpha  occ. eigenvalues --   -1.04816  -1.04114  -0.96541  -0.95625  -0.87551
 Alpha  occ. eigenvalues --   -0.86208  -0.82461  -0.80191  -0.78913  -0.77500
 Alpha  occ. eigenvalues --   -0.72057  -0.71181  -0.70511  -0.65797  -0.65057
 Alpha  occ. eigenvalues --   -0.64789  -0.62229  -0.61452  -0.59908  -0.58158
 Alpha  occ. eigenvalues --   -0.55840  -0.55311  -0.53219  -0.53110  -0.52993
 Alpha  occ. eigenvalues --   -0.52881  -0.50471  -0.48823  -0.48810  -0.48486
 Alpha  occ. eigenvalues --   -0.47231  -0.46441  -0.46373  -0.44812  -0.44383
 Alpha  occ. eigenvalues --   -0.37385  -0.36387
 Alpha virt. eigenvalues --    0.05020   0.11176   0.16420   0.19500   0.22824
 Alpha virt. eigenvalues --    0.23833   0.24944   0.26249   0.26902   0.28516
 Alpha virt. eigenvalues --    0.28996   0.30136   0.31116   0.31416   0.32097

 Mulliken charges:
               1
     1  C   -0.297475
     2  C   -0.299561
     3  C   -0.475797
     4  H    0.141916
     5  H    0.152694
     6  H    0.149345
     7  H    0.154762
     8  H    0.157156
     9  H    0.153467
    10  H    0.161927
    11  C   -0.299194
    12  C   -0.299794
    13  C   -0.478103
    14  H    0.147358
    15  H    0.153578
    16  H    0.140676
    17  H    0.154991
    18  H    0.157397
    19  H    0.158721
    20  H    0.163269
    21  C   -0.172601
    22  C   -0.218602
    23  C   -0.170802
    24  C    0.158236
    25  C   -0.170254
    26  C   -0.218529
    27  H    0.225710
    28  H    0.223620
    29  H    0.275848
    30  H    0.276055
    31  H    0.226344
    32  N    0.488189
    33  O   -0.460195
    34  O   -0.460350
 Sum of Mulliken charges =  -0.00000

 Dipole moment (field-independent basis, Debye):
    X=              4.2071    Y=             -3.0801    Z=              0.1720  Tot=              5.2169
 Quadrupole moment (field-independent basis, Debye-Ang):
   XX=           -118.8825   YY=            -90.6152   ZZ=            -93.6254
   XY=             10.8950   XZ=             -1.8516   YZ=             -1.9774

 Normal termination of Gaussian 16 at Thu May  6 17:18:26 2021.
