 Gaussian 16, Revision A.03,
 Gaussian 16:  EM64L-G16RevA.03 25-Dec-2016

 -------------
 #p 6-31g* mp2
 -------------

 ------------------------------------------------------
 Input file generated by CHIRIPA (05-May-2021 14:53:12)
 ------------------------------------------------------
 Symbolic Z-matrix:
 Charge =  0 Multiplicity = 1

                         Standard orientation:
 ---------------------------------------------------------------------
 Center     Atomic      Atomic             Coordinates (Angstroms)
 Number     Number       Type             X           Y           Z
 ---------------------------------------------------------------------
      1          6           0       -3.793401   -0.633642   -0.026179
      2          6           0       -2.875063   -1.856094   -0.041974
      3          6           0       -3.644756   -3.174762    0.038546
      4          1           0       -4.399989   -0.650458    0.889634
      5          1           0       -4.496397   -0.700931   -0.868001
      6          1           0       -2.173103   -1.785827    0.798817
      7          1           0       -2.270455   -1.836264   -0.957764
      8          1           0       -4.333169   -3.271266   -0.807253
      9          1           0       -4.235264   -3.220543    0.959309
     10          1           0       -2.968899   -4.035526    0.025804
     11          6           0       -3.038643    0.692136   -0.106076
     12          6           0       -3.956981    1.914589   -0.090281
     13          6           0       -3.187289    3.233256   -0.170801
     14          1           0       -2.335647    0.759425    0.735746
     15          1           0       -2.432056    0.708952   -1.021889
     16          1           0       -4.561590    1.894758    0.825509
     17          1           0       -4.658941    1.844321   -0.931073
     18          1           0       -2.596780    3.279037   -1.091564
     19          1           0       -2.498876    3.329761    0.674998
     20          1           0       -3.863145    4.094020   -0.158060
     21          6           0        5.165177    0.053705   -0.306112
     22          6           0        4.306226   -0.109476   -1.397944
     23          6           0        2.921354   -0.153299   -1.211509
     24          6           0        2.427424   -0.030250    0.086251
     25          6           0        3.257351    0.133395    1.194281
     26          6           0        4.638925    0.174406    0.984241
     27          1           0        6.239698    0.086655   -0.460108
     28          1           0        4.712109   -0.203471   -2.401174
     29          1           0        2.233559   -0.278687   -2.038936
     30          1           0        2.823132    0.224377    2.182509
     31          1           0        5.303605    0.301232    1.834041
     32          7           0        0.963067   -0.075155    0.296116
     33          8           0        0.552916    0.035547    1.449440
     34          8           0        0.253184   -0.220204   -0.696691
 ---------------------------------------------------------------------

 SCF Done:  E(RHF) =  -669.536191445     A.U. after   15 cycles
 E2 =    -0.2093231269D+01 EUMP2 =    -0.67162942271387D+03

 The electronic state is 1-A.
 Alpha  occ. eigenvalues --  -20.61146 -20.61127 -15.86132 -11.31406 -11.27957
 Alpha  occ. eigenvalues --  -11.27953 -11.27682 -11.26948 -11.26939 -11.20098
 Alpha  occ. eigenvalues --  -11.19861 -11.19721 -11.19677 -11.19623 -11.19191
 Alpha  occ. eigenvalues --   -1.60165  -1.39728  -1.19562  -1.08978  -1.06647
 Alpha  occ. eigenvalues --   -1.04949  -1.01968  -0.95830  -0.94440  -0.86353
 Alpha  occ. eigenvalues --   -0.85472  -0.82671  -0.77985  -0.77727  -0.76382
 Alpha  occ. eigenvalues --   -0.72342  -0.71465  -0.70671  -0.65221  -0.64950
 Alpha  occ. eigenvalues --   -0.63292  -0.62297  -0.59388  -0.57820  -0.56052
 Alpha  occ. eigenvalues --   -0.55451  -0.53753  -0.53284  -0.53040  -0.51244
 Alpha  occ. eigenvalues --   -0.50871  -0.49185  -0.49115  -0.48409  -0.46342
 Alpha  occ. eigenvalues --   -0.45235  -0.44873  -0.43814  -0.43741  -0.42137
 Alpha  occ. eigenvalues --   -0.37536  -0.36546
 Alpha virt. eigenvalues --    0.04776   0.11110   0.16282   0.21240   0.24543
 Alpha virt. eigenvalues --    0.25699   0.27172   0.28045   0.28370   0.29143
 Alpha virt. eigenvalues --    0.29784   0.30916   0.32348   0.32777   0.33161

 Mulliken charges:
               1
     1  C   -0.298674
     2  C   -0.298299
     3  C   -0.475298
     4  H    0.142523
     5  H    0.140743
     6  H    0.161397
     7  H    0.158674
     8  H    0.149458
     9  H    0.150521
    10  H    0.154200
    11  C   -0.300895
    12  C   -0.298929
    13  C   -0.473734
    14  H    0.166172
    15  H    0.158813
    16  H    0.146525
    17  H    0.145179
    18  H    0.152527
    19  H    0.155359
    20  H    0.153529
    21  C   -0.170339
    22  C   -0.218552
    23  C   -0.170616
    24  C    0.158979
    25  C   -0.170346
    26  C   -0.218581
    27  H    0.226417
    28  H    0.224201
    29  H    0.275683
    30  H    0.275948
    31  H    0.224207
    32  N    0.490249
    33  O   -0.460100
    34  O   -0.456941
 Sum of Mulliken charges =  -0.00000

 Dipole moment (field-independent basis, Debye):
    X=              5.7551    Y=              0.1603    Z=             -0.7230  Tot=              5.8026
 Quadrupole moment (field-independent basis, Debye-Ang):
   XX=            -72.4677   YY=            -98.0454   ZZ=            -88.9763
   XY=             -0.1399   XZ=             -0.6517   YZ=              0.8762

 Normal termination of Gaussian 16 at Wed May  5 20:06:56 2021.
