 Gaussian 16, Revision A.03,
 Gaussian 16:  EM64L-G16RevA.03 25-Dec-2016

 -------------
 #p 6-31g* mp2
 -------------

 ------------------------------------------------------
 Input file generated by CHIRIPA (05-May-2021 14:51:10)
 ------------------------------------------------------
 Symbolic Z-matrix:
 Charge =  0 Multiplicity = 1

                         Standard orientation:
 ---------------------------------------------------------------------
 Center     Atomic      Atomic             Coordinates (Angstroms)
 Number     Number       Type             X           Y           Z
 ---------------------------------------------------------------------
      1          6           0       -5.226854   -0.122670    0.350087
      2          6           0       -6.111402   -0.579244   -0.810560
      3          6           0       -7.603342   -0.483006   -0.490174
      4          1           0       -5.452985   -0.731073    1.236459
      5          1           0       -5.480932    0.914371    0.609676
      6          1           0       -5.854774   -1.614654   -1.068791
      7          1           0       -5.883003    0.030190   -1.694325
      8          1           0       -7.880697    0.549264   -0.253333
      9          1           0       -7.852307   -1.104926    0.375755
     10          1           0       -8.217248   -0.814269   -1.333527
     11          6           0       -3.732700   -0.213043    0.045022
     12          6           0       -2.848153    0.243531    1.205669
     13          6           0       -1.356212    0.147294    0.885284
     14          1           0       -3.478622   -1.250083   -0.214567
     15          1           0       -3.506569    0.395360   -0.841350
     16          1           0       -3.076551   -0.365902    2.089434
     17          1           0       -3.104780    1.278942    1.463901
     18          1           0       -1.107247    0.769213    0.019355
     19          1           0       -1.078858   -0.884976    0.648442
     20          1           0       -0.742306    0.478557    1.728637
     21          6           0        4.960665   -0.393027   -0.391432
     22          6           0        6.275072   -0.361678    0.389166
     23          6           0        7.226661   -1.489962   -0.009893
     24          1           0        4.469567   -1.362641   -0.231376
     25          1           0        5.178970   -0.326877   -1.466310
     26          1           0        6.054276   -0.426474    1.462324
     27          1           0        6.763006    0.608046    0.227387
     28          1           0        7.475997   -1.425373   -1.073970
     29          1           0        6.763241   -2.465770    0.167985
     30          1           0        8.159915   -1.448593    0.560357
     31          6           0        3.998889    0.728740   -0.003677
     32          6           0        2.684482    0.697391   -0.784276
     33          6           0        1.732893    1.825674   -0.385217
     34          1           0        3.780585    0.662590    1.071200
     35          1           0        4.489988    1.698353   -0.163734
     36          1           0        2.196548   -0.272333   -0.622495
     37          1           0        2.905278    0.762187   -1.857433
     38          1           0        2.196313    2.801483   -0.563093
     39          1           0        1.483558    1.761085    0.678861
     40          1           0        0.799639    1.784304   -0.955466
 ---------------------------------------------------------------------

 SCF Done:  E(RHF) =  -470.732507293     A.U. after   11 cycles
 E2 =    -0.1582737054D+01 EUMP2 =    -0.47231524434766D+03

 The electronic state is 1-A.
 Alpha  occ. eigenvalues --  -11.21595 -11.21576 -11.21563 -11.21530 -11.21393
 Alpha  occ. eigenvalues --  -11.21365 -11.21334 -11.21305 -11.21066 -11.21052
 Alpha  occ. eigenvalues --  -11.20988 -11.20955  -1.08417  -1.08382  -1.03537
 Alpha  occ. eigenvalues --   -1.03452  -0.96034  -0.95860  -0.87089  -0.86842
 Alpha  occ. eigenvalues --   -0.79639  -0.79480  -0.78229  -0.78197  -0.65057
 Alpha  occ. eigenvalues --   -0.65006  -0.60989  -0.60830  -0.59337  -0.59320
 Alpha  occ. eigenvalues --   -0.57687  -0.57438  -0.55391  -0.55104  -0.52793
 Alpha  occ. eigenvalues --   -0.52626  -0.52389  -0.52208  -0.50022  -0.49700
 Alpha  occ. eigenvalues --   -0.47950  -0.47789  -0.46672  -0.46490  -0.45767
 Alpha  occ. eigenvalues --   -0.45739  -0.45702  -0.45653  -0.43763  -0.43696
 Alpha virt. eigenvalues --    0.22071   0.22970   0.23547   0.24857   0.26267
 Alpha virt. eigenvalues --    0.26583   0.26941   0.27389   0.27697   0.28918
 Alpha virt. eigenvalues --    0.29305   0.31047   0.31427   0.32126   0.32398

 Mulliken charges:
               1
     1  C   -0.298228
     2  C   -0.299631
     3  C   -0.475695
     4  H    0.149630
     5  H    0.149545
     6  H    0.151879
     7  H    0.151901
     8  H    0.155190
     9  H    0.155159
    10  H    0.160221
    11  C   -0.298371
    12  C   -0.300167
    13  C   -0.477286
    14  H    0.149386
    15  H    0.149356
    16  H    0.151371
    17  H    0.151876
    18  H    0.160205
    19  H    0.153944
    20  H    0.159636
    21  C   -0.298235
    22  C   -0.299615
    23  C   -0.475674
    24  H    0.149615
    25  H    0.149424
    26  H    0.151862
    27  H    0.151872
    28  H    0.155136
    29  H    0.155129
    30  H    0.160152
    31  C   -0.298402
    32  C   -0.300733
    33  C   -0.475972
    34  H    0.149426
    35  H    0.149484
    36  H    0.153320
    37  H    0.151346
    38  H    0.153675
    39  H    0.157475
    40  H    0.160793
 Sum of Mulliken charges =  -0.00000

 Dipole moment (field-independent basis, Debye):
    X=             -0.0043    Y=              0.0057    Z=              0.0002  Tot=              0.0072
 Quadrupole moment (field-independent basis, Debye-Ang):
   XX=            -86.7018   YY=            -84.1123   ZZ=            -84.2128
   XY=              0.8032   XZ=             -0.0208   YZ=             -0.9162

 Normal termination of Gaussian 16 at Thu May  6 03:46:59 2021.
