 Gaussian 16, Revision A.03,
 Gaussian 16:  EM64L-G16RevA.03 25-Dec-2016

 -------------
 #p 6-31g* mp2
 -------------

 ------------------------------------------------------
 Input file generated by CHIRIPA (05-May-2021 14:55:24)
 ------------------------------------------------------
 Symbolic Z-matrix:
 Charge =  0 Multiplicity = 1

                         Standard orientation:
 ---------------------------------------------------------------------
 Center     Atomic      Atomic             Coordinates (Angstroms)
 Number     Number       Type             X           Y           Z
 ---------------------------------------------------------------------
      1          6           0       -4.171317   -2.354717    0.160766
      2          6           0       -4.809243   -1.195909    0.615447
      3          6           0       -4.190734    0.051436    0.488462
      4          6           0       -2.928450    0.103567   -0.100786
      5          6           0       -2.267162   -1.033020   -0.563558
      6          6           0       -2.904546   -2.269724   -0.426251
      7          1           0       -4.659121   -3.319552    0.263420
      8          1           0       -5.793050   -1.258906    1.071738
      9          1           0       -4.661913    0.964395    0.831847
     10          1           0       -1.286619   -0.938500   -1.014134
     11          1           0       -2.406746   -3.168008   -0.780265
     12          7           0       -2.263672    1.418443   -0.240683
     13          8           0       -1.151460    1.437590   -0.763421
     14          8           0       -2.867417    2.404998    0.175053
     15          6           0        4.554488   -0.229257    0.112524
     16          6           0        4.397443   -1.749023    0.052250
     17          6           0        5.738248   -2.483402    0.079163
     18          1           0        5.173104    0.102860   -0.732436
     19          1           0        5.102691    0.039785    1.026024
     20          1           0        3.848491   -2.015019   -0.860172
     21          1           0        3.778970   -2.077539    0.897344
     22          1           0        6.288610   -2.247053    0.995592
     23          1           0        6.358525   -2.184178   -0.771909
     24          1           0        5.602593   -3.568541    0.035196
     25          6           0        3.222828    0.518895    0.086462
     26          6           0        3.379871    2.038661    0.146736
     27          6           0        2.039067    2.773041    0.119823
     28          1           0        2.674624    0.249853   -0.827039
     29          1           0        2.604211    0.186779    0.931422
     30          1           0        3.998345    2.367177   -0.698358
     31          1           0        3.928824    2.304658    1.059157
     32          1           0        1.418790    2.473817    0.970895
     33          1           0        1.488706    2.536691   -0.796607
     34          1           0        2.174722    3.858179    0.163790
 ---------------------------------------------------------------------

 SCF Done:  E(RHF) =  -669.535655971     A.U. after   15 cycles
 E2 =    -0.2091080078D+01 EUMP2 =    -0.67162673604840D+03

 The electronic state is 1-A.
 Alpha  occ. eigenvalues --  -20.60860 -20.60846 -15.85896 -11.31244 -11.27811
 Alpha  occ. eigenvalues --  -11.27807 -11.27554 -11.26825 -11.26815 -11.21358
 Alpha  occ. eigenvalues --  -11.20917 -11.20891 -11.20688 -11.20597 -11.19481
 Alpha  occ. eigenvalues --   -1.59921  -1.39477  -1.19416  -1.08815  -1.07828
 Alpha  occ. eigenvalues --   -1.04816  -1.02820  -0.95658  -0.95226  -0.86246
 Alpha  occ. eigenvalues --   -0.86206  -0.82488  -0.78935  -0.77610  -0.77503
 Alpha  occ. eigenvalues --   -0.72122  -0.71239  -0.70525  -0.65072  -0.64819
 Alpha  occ. eigenvalues --   -0.64471  -0.62163  -0.60223  -0.58704  -0.56831
 Alpha  occ. eigenvalues --   -0.55320  -0.54507  -0.53148  -0.52909  -0.51930
 Alpha  occ. eigenvalues --   -0.51640  -0.49199  -0.48870  -0.48851  -0.47181
 Alpha  occ. eigenvalues --   -0.45992  -0.45180  -0.45018  -0.44775  -0.43093
 Alpha  occ. eigenvalues --   -0.37397  -0.36419
 Alpha virt. eigenvalues --    0.04992   0.11235   0.16481   0.21320   0.23365
 Alpha virt. eigenvalues --    0.25027   0.26984   0.27323   0.27759   0.28525
 Alpha virt. eigenvalues --    0.28921   0.30939   0.32054   0.32204   0.32579

 Mulliken charges:
               1
     1  C   -0.170727
     2  C   -0.218605
     3  C   -0.170716
     4  C    0.157710
     5  C   -0.170855
     6  C   -0.218572
     7  H    0.225804
     8  H    0.223619
     9  H    0.275758
    10  H    0.275825
    11  H    0.223781
    12  N    0.491309
    13  O   -0.462119
    14  O   -0.459550
    15  C   -0.297541
    16  C   -0.298672
    17  C   -0.475121
    18  H    0.149015
    19  H    0.148646
    20  H    0.149005
    21  H    0.149666
    22  H    0.155266
    23  H    0.155293
    24  H    0.157653
    25  C   -0.296103
    26  C   -0.301214
    27  C   -0.474142
    28  H    0.149379
    29  H    0.147234
    30  H    0.148131
    31  H    0.147020
    32  H    0.154891
    33  H    0.174510
    34  H    0.154423
 Sum of Mulliken charges =  -0.00000

 Dipole moment (field-independent basis, Debye):
    X=             -2.5975    Y=             -4.5576    Z=              0.4323  Tot=              5.2636
 Quadrupole moment (field-independent basis, Debye-Ang):
   XX=            -79.9296   YY=            -95.8336   ZZ=            -93.6619
   XY=             12.1631   XZ=             -3.4494   YZ=              1.4514

 Normal termination of Gaussian 16 at Wed May  5 23:58:49 2021.
