 Gaussian 16, Revision A.03,
 Gaussian 16:  EM64L-G16RevA.03 25-Dec-2016

 -------------
 #p 6-31g* mp2
 -------------

 ------------------------------------------------------
 Input file generated by CHIRIPA (05-May-2021 14:57:24)
 ------------------------------------------------------
 Symbolic Z-matrix:
 Charge =  0 Multiplicity = 1

                         Standard orientation:
 ---------------------------------------------------------------------
 Center     Atomic      Atomic             Coordinates (Angstroms)
 Number     Number       Type             X           Y           Z
 ---------------------------------------------------------------------
      1          6           0        2.055498    2.305513    0.516748
      2          6           0        2.339503    1.952053   -0.806479
      3          6           0        3.033985    0.773011   -1.093014
      4          6           0        3.431311   -0.032783   -0.027126
      5          6           0        3.163354    0.292120    1.301756
      6          6           0        2.467603    1.475881    1.564794
      7          1           0        1.515514    3.223254    0.730209
      8          1           0        2.020683    2.594434   -1.622411
      9          1           0        3.267092    0.475324   -2.108131
     10          1           0        3.494097   -0.368496    2.093976
     11          1           0        2.248429    1.747861    2.593402
     12          7           0        4.167200   -1.283479   -0.318031
     13          8           0        4.506331   -1.976280    0.638867
     14          8           0        4.390924   -1.547293   -1.497432
     15          6           0       -0.801444    0.087374    0.049587
     16          6           0       -1.389278   -1.128824    0.412677
     17          6           0       -2.778175   -1.284621    0.377458
     18          6           0       -3.552548   -0.198553   -0.027625
     19          6           0       -2.996608    1.025777   -0.395371
     20          6           0       -1.605569    1.158905   -0.352569
     21          1           0        0.278317    0.199596    0.079892
     22          1           0       -0.767263   -1.962697    0.725404
     23          1           0       -3.259491   -2.215042    0.653263
     24          1           0       -3.642778    1.839017   -0.702820
     25          1           0       -1.151800    2.104586   -0.635103
     26          7           0       -5.024046   -0.351489   -0.068924
     27          8           0       -5.684224    0.620541   -0.429426
     28          8           0       -5.489365   -1.440493    0.259991
 ---------------------------------------------------------------------

 SCF Done:  E(RHF) =  -868.336475433     A.U. after   16 cycles
 E2 =    -0.2603506446D+01 EUMP2 =    -0.87093998187923D+03

 The electronic state is 1-A.
 Alpha  occ. eigenvalues --  -20.61896 -20.61889 -20.60881 -20.60871 -15.86957
 Alpha  occ. eigenvalues --  -15.85937 -11.32622 -11.31290 -11.29158 -11.29152
 Alpha  occ. eigenvalues --  -11.28890 -11.28204 -11.28157 -11.27942 -11.27861
 Alpha  occ. eigenvalues --  -11.27409 -11.26936 -11.26785  -1.60968  -1.59956
 Alpha  occ. eigenvalues --   -1.40510  -1.39510  -1.20837  -1.19471  -1.10150
 Alpha  occ. eigenvalues --   -1.08838  -1.06202  -1.04893  -0.96915  -0.95681
 Alpha  occ. eigenvalues --   -0.87560  -0.86280  -0.83703  -0.82535  -0.78722
 Alpha  occ. eigenvalues --   -0.77599  -0.73152  -0.72318  -0.72152  -0.71823
 Alpha  occ. eigenvalues --   -0.71283  -0.70589  -0.66398  -0.66127  -0.65115
 Alpha  occ. eigenvalues --   -0.64932  -0.63483  -0.62256  -0.56644  -0.56165
 Alpha  occ. eigenvalues --   -0.54216  -0.53621  -0.53211  -0.52981  -0.49940
 Alpha  occ. eigenvalues --   -0.49900  -0.48909  -0.48907  -0.45848  -0.44918
 Alpha  occ. eigenvalues --   -0.38860  -0.38024  -0.37220  -0.36525
 Alpha virt. eigenvalues --    0.03741   0.04974   0.09726   0.11120   0.15206
 Alpha virt. eigenvalues --    0.16460   0.19561   0.21869   0.25450   0.26541
 Alpha virt. eigenvalues --    0.28019   0.28939   0.29900   0.30799   0.31976

 Mulliken charges:
               1
     1  C   -0.181244
     2  C   -0.226107
     3  C   -0.173032
     4  C    0.157010
     5  C   -0.176066
     6  C   -0.218866
     7  H    0.230241
     8  H    0.228315
     9  H    0.281408
    10  H    0.280564
    11  H    0.230776
    12  N    0.487871
    13  O   -0.457030
    14  O   -0.455732
    15  C   -0.173807
    16  C   -0.223479
    17  C   -0.169694
    18  C    0.157145
    19  C   -0.170214
    20  C   -0.225227
    21  H    0.242277
    22  H    0.225888
    23  H    0.276475
    24  H    0.274070
    25  H    0.211499
    26  N    0.488113
    27  O   -0.461508
    28  O   -0.459646
 Sum of Mulliken charges =  -0.00000

 Dipole moment (field-independent basis, Debye):
    X=              3.0224    Y=              4.8566    Z=              1.2252  Tot=              5.8500
 Quadrupole moment (field-independent basis, Debye-Ang):
   XX=           -160.0423   YY=           -101.2104   ZZ=           -100.0037
   XY=             11.9457   XZ=              3.3771   YZ=             -2.9142

 Normal termination of Gaussian 16 at Fri May  7 08:04:01 2021.
