 Gaussian 16, Revision A.03,
 Gaussian 16:  EM64L-G16RevA.03 25-Dec-2016

 -------------
 #p 6-31g* mp2
 -------------

 ------------------------------------------------------
 Input file generated by CHIRIPA (05-May-2021 14:57:26)
 ------------------------------------------------------
 Symbolic Z-matrix:
 Charge =  0 Multiplicity = 1

                         Standard orientation:
 ---------------------------------------------------------------------
 Center     Atomic      Atomic             Coordinates (Angstroms)
 Number     Number       Type             X           Y           Z
 ---------------------------------------------------------------------
      1          6           0        3.654958    2.515644    0.238424
      2          6           0        4.261528    1.597918    1.102353
      3          6           0        4.066528    0.224340    0.929706
      4          6           0        3.255122   -0.198485   -0.122021
      5          6           0        2.637060    0.691123   -0.999453
      6          6           0        2.846086    2.060121   -0.807877
      7          1           0        3.811886    3.580894    0.379893
      8          1           0        4.890218    1.948815    1.915781
      9          1           0        4.524006   -0.507966    1.583814
     10          1           0        2.015716    0.311098   -1.801283
     11          1           0        2.373746    2.770550   -1.480358
     12          7           0        3.041260   -1.650206   -0.314815
     13          8           0        2.321880   -1.997191   -1.249016
     14          8           0        3.597064   -2.413593    0.471926
     15          6           0       -5.765323    0.445954    0.030082
     16          6           0       -5.155270    0.067779    1.230639
     17          6           0       -3.784694   -0.204320    1.275707
     18          6           0       -3.051100   -0.087831    0.096064
     19          6           0       -3.629986    0.286773   -1.115487
     20          6           0       -5.002080    0.554053   -1.137092
     21          1           0       -6.830610    0.655456    0.004185
     22          1           0       -5.745532   -0.016985    2.138632
     23          1           0       -3.286888   -0.499014    2.191547
     24          1           0       -3.015422    0.362707   -2.004285
     25          1           0       -5.473180    0.847547   -2.070886
     26          7           0       -1.599329   -0.373340    0.131355
     27          8           0       -0.975119   -0.263482   -0.921703
     28          8           0       -1.113129   -0.701571    1.211406
 ---------------------------------------------------------------------

 SCF Done:  E(RHF) =  -868.337880017     A.U. after   16 cycles
 E2 =    -0.2599769678D+01 EUMP2 =    -0.87093764969455D+03

 The electronic state is 1-A.
 Alpha  occ. eigenvalues --  -20.60771 -20.60765 -20.59318 -20.59249 -15.85815
 Alpha  occ. eigenvalues --  -15.84346 -11.31201 -11.29789 -11.27781 -11.27760
 Alpha  occ. eigenvalues --  -11.27520 -11.26798 -11.26782 -11.26490 -11.26327
 Alpha  occ. eigenvalues --  -11.26310 -11.25549 -11.25477  -1.59826  -1.58348
 Alpha  occ. eigenvalues --   -1.39384  -1.37900  -1.19374  -1.18017  -1.08765
 Alpha  occ. eigenvalues --   -1.07419  -1.04782  -1.03453  -0.95597  -0.94229
 Alpha  occ. eigenvalues --   -0.86179  -0.84854  -0.82432  -0.81074  -0.77475
 Alpha  occ. eigenvalues --   -0.76069  -0.72042  -0.71141  -0.70589  -0.70484
 Alpha  occ. eigenvalues --   -0.69642  -0.69178  -0.65030  -0.64786  -0.63698
 Alpha  occ. eigenvalues --   -0.63501  -0.62130  -0.60795  -0.55283  -0.54029
 Alpha  occ. eigenvalues --   -0.53108  -0.52876  -0.51769  -0.51577  -0.48786
 Alpha  occ. eigenvalues --   -0.48783  -0.47361  -0.47304  -0.44779  -0.43284
 Alpha  occ. eigenvalues --   -0.37356  -0.36386  -0.36040  -0.35038
 Alpha virt. eigenvalues --    0.05064   0.06499   0.11268   0.12610   0.16553
 Alpha virt. eigenvalues --    0.17919   0.21394   0.22549   0.27303   0.28230
 Alpha virt. eigenvalues --    0.28471   0.29496   0.30951   0.32017   0.32516

 Mulliken charges:
               1
     1  C   -0.171377
     2  C   -0.219859
     3  C   -0.170258
     4  C    0.160115
     5  C   -0.158091
     6  C   -0.221608
     7  H    0.219539
     8  H    0.217921
     9  H    0.272284
    10  H    0.283675
    11  H    0.218031
    12  N    0.490177
    13  O   -0.454496
    14  O   -0.467669
    15  C   -0.170869
    16  C   -0.218556
    17  C   -0.170672
    18  C    0.158747
    19  C   -0.170983
    20  C   -0.218536
    21  H    0.225553
    22  H    0.223629
    23  H    0.276351
    24  H    0.274462
    25  H    0.223151
    26  N    0.490128
    27  O   -0.462841
    28  O   -0.457948
 Sum of Mulliken charges =  -0.00000

 Dipole moment (field-independent basis, Debye):
    X=             -4.6903    Y=              5.9308    Z=              0.4657  Tot=              7.5756
 Quadrupole moment (field-independent basis, Debye-Ang):
   XX=            -69.5114   YY=           -108.7614   ZZ=            -97.4500
   XY=             12.9850   XZ=              3.9556   YZ=             -2.6600

 Normal termination of Gaussian 16 at Wed May  5 19:34:30 2021.
