 Gaussian 16, Revision A.03,
 Gaussian 16:  EM64L-G16RevA.03 25-Dec-2016

 -------------
 #p 6-31g* mp2
 -------------

 ------------------------------------------------------
 Input file generated by CHIRIPA (05-May-2021 14:55:23)
 ------------------------------------------------------
 Symbolic Z-matrix:
 Charge =  0 Multiplicity = 1

                         Standard orientation:
 ---------------------------------------------------------------------
 Center     Atomic      Atomic             Coordinates (Angstroms)
 Number     Number       Type             X           Y           Z
 ---------------------------------------------------------------------
      1          6           0       -0.963712   -1.796850    0.733162
      2          6           0       -2.239039   -2.033249    1.256783
      3          6           0       -3.327253   -1.252725    0.855384
      4          6           0       -3.103168   -0.239630   -0.075591
      5          6           0       -1.844537    0.020461   -0.615489
      6          6           0       -0.770872   -0.772555   -0.199658
      7          1           0       -0.124013   -2.408032    1.050584
      8          1           0       -2.391757   -2.828042    1.981370
      9          1           0       -4.325163   -1.414065    1.244693
     10          1           0       -1.723440    0.819997   -1.336250
     11          1           0        0.218453   -0.586693   -0.607992
     12          7           0       -4.247511    0.593289   -0.508174
     13          8           0       -4.023802    1.479709   -1.329667
     14          8           0       -5.346486    0.343939   -0.017547
     15          6           0        3.169666    0.995852   -0.066197
     16          6           0        3.344124    2.215114    0.839866
     17          6           0        2.213964    3.233232    0.685034
     18          1           0        3.114828    1.328768   -1.111714
     19          1           0        2.207941    0.514648    0.159462
     20          1           0        4.305861    2.693074    0.613522
     21          1           0        3.398745    1.879241    1.883333
     22          1           0        1.249046    2.778010    0.930608
     23          1           0        2.161317    3.596467   -0.346416
     24          1           0        2.358695    4.096682    1.341817
     25          6           0        4.291624   -0.030975    0.077196
     26          6           0        4.117168   -1.250238   -0.828867
     27          6           0        5.247326   -2.268354   -0.674034
     28          1           0        5.253350    0.450229   -0.148463
     29          1           0        4.346463   -0.363891    1.122713
     30          1           0        4.062547   -0.914365   -1.872333
     31          1           0        3.155430   -1.728196   -0.602524
     32          1           0        5.299975   -2.631590    0.357416
     33          1           0        6.212245   -1.813134   -0.919608
     34          1           0        5.102596   -3.131805   -1.330819
 ---------------------------------------------------------------------

 SCF Done:  E(RHF) =  -669.535612994     A.U. after   15 cycles
 E2 =    -0.2091505694D+01 EUMP2 =    -0.67162711868829D+03

 The electronic state is 1-A.
 Alpha  occ. eigenvalues --  -20.60747 -20.60741 -15.85800 -11.31172 -11.27748
 Alpha  occ. eigenvalues --  -11.27733 -11.27492 -11.26763 -11.26714 -11.22543
 Alpha  occ. eigenvalues --  -11.22312 -11.22228 -11.22195 -11.21828 -11.21559
 Alpha  occ. eigenvalues --   -1.59822  -1.39375  -1.19346  -1.09256  -1.08740
 Alpha  occ. eigenvalues --   -1.04747  -1.04264  -0.96700  -0.95574  -0.87712
 Alpha  occ. eigenvalues --   -0.86148  -0.82405  -0.80338  -0.79107  -0.77444
 Alpha  occ. eigenvalues --   -0.72018  -0.71145  -0.70457  -0.65929  -0.64996
 Alpha  occ. eigenvalues --   -0.64727  -0.62101  -0.61654  -0.60073  -0.58318
 Alpha  occ. eigenvalues --   -0.55986  -0.55252  -0.53366  -0.53168  -0.53073
 Alpha  occ. eigenvalues --   -0.52808  -0.50637  -0.48783  -0.48773  -0.48645
 Alpha  occ. eigenvalues --   -0.47383  -0.46592  -0.46535  -0.44779  -0.44542
 Alpha  occ. eigenvalues --   -0.37329  -0.36344
 Alpha virt. eigenvalues --    0.05080   0.11212   0.16523   0.19303   0.22711
 Alpha virt. eigenvalues --    0.23552   0.24744   0.26183   0.27254   0.27940
 Alpha virt. eigenvalues --    0.29508   0.30776   0.31131   0.31229   0.31515

 Mulliken charges:
               1
     1  C   -0.172410
     2  C   -0.218521
     3  C   -0.170973
     4  C    0.158766
     5  C   -0.172373
     6  C   -0.224711
     7  H    0.225059
     8  H    0.223316
     9  H    0.275603
    10  H    0.276323
    11  H    0.232534
    12  N    0.488037
    13  O   -0.460242
    14  O   -0.460552
    15  C   -0.304073
    16  C   -0.299469
    17  C   -0.477306
    18  H    0.151055
    19  H    0.143816
    20  H    0.154722
    21  H    0.153046
    22  H    0.155713
    23  H    0.156263
    24  H    0.163903
    25  C   -0.298386
    26  C   -0.299554
    27  C   -0.476072
    28  H    0.153812
    29  H    0.150323
    30  H    0.154490
    31  H    0.141872
    32  H    0.155486
    33  H    0.158609
    34  H    0.161894
 Sum of Mulliken charges =  -0.00000

 Dipole moment (field-independent basis, Debye):
    X=              4.2130    Y=             -2.8506    Z=              1.5354  Tot=              5.3134
 Quadrupole moment (field-independent basis, Debye-Ang):
   XX=           -117.7354   YY=            -92.6766   ZZ=            -93.1151
   XY=             11.0202   XZ=             -7.6013   YZ=             -2.2964

 Normal termination of Gaussian 16 at Thu May  6 19:14:11 2021.
