 Gaussian 16, Revision A.03,
 Gaussian 16:  EM64L-G16RevA.03 25-Dec-2016

 -------------
 #p 6-31g* mp2
 -------------

 ------------------------------------------------------
 Input file generated by CHIRIPA (05-May-2021 14:51:08)
 ------------------------------------------------------
 Symbolic Z-matrix:
 Charge =  0 Multiplicity = 1

                         Standard orientation:
 ---------------------------------------------------------------------
 Center     Atomic      Atomic             Coordinates (Angstroms)
 Number     Number       Type             X           Y           Z
 ---------------------------------------------------------------------
      1          6           0        3.607397    0.379253   -0.302892
      2          6           0        2.350184    0.483588    0.561118
      3          6           0        1.256327    1.332883   -0.086933
      4          1           0        3.993609    1.388582   -0.500479
      5          1           0        3.338892   -0.049199   -1.278458
      6          1           0        2.621219    0.910433    1.535263
      7          1           0        1.967029   -0.526117    0.756830
      8          1           0        0.957459    0.906602   -1.050034
      9          1           0        1.615366    2.351315   -0.267178
     10          1           0        0.366732    1.394115    0.547677
     11          6           0        4.709996   -0.466633    0.331522
     12          6           0        5.967209   -0.570967   -0.532488
     13          6           0        7.061066   -1.420262    0.115563
     14          1           0        4.978501   -0.038180    1.307088
     15          1           0        4.323783   -1.475961    0.529109
     16          1           0        6.350364    0.438738   -0.728201
     17          1           0        5.696174   -0.997813   -1.506634
     18          1           0        6.702027   -2.438694    0.295808
     19          1           0        7.359934   -0.993981    1.078664
     20          1           0        7.950661   -1.481494   -0.519048
     21          6           0       -4.831932   -0.314985   -0.053537
     22          6           0       -4.713264   -1.837467    0.023627
     23          6           0       -6.068509   -2.540843   -0.056155
     24          1           0       -5.478317    0.037835    0.761723
     25          1           0       -5.333944   -0.040383   -0.991606
     26          1           0       -4.210386   -2.109050    0.960628
     27          1           0       -4.066931   -2.186686   -0.791797
     28          1           0       -6.573316   -2.298897   -0.997022
     29          1           0       -6.717586   -2.220821    0.765360
     30          1           0       -5.960324   -3.628457    0.000885
     31          6           0       -3.485461    0.402365    0.024907
     32          6           0       -3.604129    1.924846   -0.052255
     33          6           0       -2.248884    2.628223    0.027525
     34          1           0       -2.983450    0.127762    0.962976
     35          1           0       -2.839075    0.049544   -0.790353
     36          1           0       -4.250462    2.274065    0.763167
     37          1           0       -4.107007    2.196429   -0.989258
     38          1           0       -1.599806    2.308200   -0.793988
     39          1           0       -1.744077    2.386276    0.968393
     40          1           0       -2.357069    3.715836   -0.029515
 ---------------------------------------------------------------------

 SCF Done:  E(RHF) =  -470.732264387     A.U. after   11 cycles
 E2 =    -0.1582871140D+01 EUMP2 =    -0.47231513552731D+03

 The electronic state is 1-A.
 Alpha  occ. eigenvalues --  -11.21600 -11.21571 -11.21566 -11.21512 -11.21397
 Alpha  occ. eigenvalues --  -11.21355 -11.21337 -11.21293 -11.21071 -11.21048
 Alpha  occ. eigenvalues --  -11.20981 -11.20894  -1.08420  -1.08373  -1.03537
 Alpha  occ. eigenvalues --   -1.03446  -0.96030  -0.95854  -0.87103  -0.86822
 Alpha  occ. eigenvalues --   -0.79692  -0.79429  -0.78242  -0.78178  -0.65051
 Alpha  occ. eigenvalues --   -0.65006  -0.60926  -0.60853  -0.59478  -0.59218
 Alpha  occ. eigenvalues --   -0.57707  -0.57394  -0.55279  -0.55176  -0.52989
 Alpha  occ. eigenvalues --   -0.52648  -0.52354  -0.52006  -0.49940  -0.49825
 Alpha  occ. eigenvalues --   -0.47950  -0.47762  -0.46632  -0.46543  -0.45785
 Alpha  occ. eigenvalues --   -0.45737  -0.45687  -0.45649  -0.43768  -0.43630
 Alpha virt. eigenvalues --    0.22292   0.23047   0.23597   0.24947   0.26063
 Alpha virt. eigenvalues --    0.26690   0.26787   0.27575   0.27752   0.29103
 Alpha virt. eigenvalues --    0.29677   0.31397   0.31559   0.31945   0.32300

 Mulliken charges:
               1
     1  C   -0.298431
     2  C   -0.300323
     3  C   -0.478790
     4  H    0.149445
     5  H    0.149159
     6  H    0.151284
     7  H    0.151459
     8  H    0.152755
     9  H    0.154533
    10  H    0.167945
    11  C   -0.298147
    12  C   -0.299549
    13  C   -0.475657
    14  H    0.149370
    15  H    0.149481
    16  H    0.151868
    17  H    0.151801
    18  H    0.155106
    19  H    0.155123
    20  H    0.160130
    21  C   -0.298159
    22  C   -0.299613
    23  C   -0.475700
    24  H    0.149643
    25  H    0.149556
    26  H    0.151873
    27  H    0.151847
    28  H    0.155184
    29  H    0.155191
    30  H    0.160201
    31  C   -0.298409
    32  C   -0.299846
    33  C   -0.478919
    34  H    0.148914
    35  H    0.149860
    36  H    0.151503
    37  H    0.151689
    38  H    0.161737
    39  H    0.155103
    40  H    0.159785
 Sum of Mulliken charges =  -0.00000

 Dipole moment (field-independent basis, Debye):
    X=             -0.0359    Y=              0.0252    Z=             -0.0050  Tot=              0.0441
 Quadrupole moment (field-independent basis, Debye-Ang):
   XX=            -86.4967   YY=            -84.8365   ZZ=            -83.6536
   XY=              0.2606   XZ=             -0.2187   YZ=              0.5915

 Normal termination of Gaussian 16 at Thu May  6 00:31:12 2021.
