 Gaussian 16, Revision A.03,
 Gaussian 16:  EM64L-G16RevA.03 25-Dec-2016

 -------------
 #p 6-31g* mp2
 -------------

 ------------------------------------------------------
 Input file generated by CHIRIPA (05-May-2021 14:55:24)
 ------------------------------------------------------
 Symbolic Z-matrix:
 Charge =  0 Multiplicity = 1

                         Standard orientation:
 ---------------------------------------------------------------------
 Center     Atomic      Atomic             Coordinates (Angstroms)
 Number     Number       Type             X           Y           Z
 ---------------------------------------------------------------------
      1          6           0       -5.667883    1.467630    0.187761
      2          6           0       -4.419062    2.094556    0.125068
      3          6           0       -3.252691    1.339706   -0.030905
      4          6           0       -3.372439   -0.046219   -0.121252
      5          6           0       -4.602163   -0.700113   -0.062174
      6          6           0       -5.755294    0.074752    0.094106
      7          1           0       -6.568805    2.061789    0.309044
      8          1           0       -4.348157    3.176114    0.197528
      9          1           0       -2.273095    1.799223   -0.082428
     10          1           0       -4.641017   -1.780051   -0.137295
     11          1           0       -6.723803   -0.414835    0.142482
     12          7           0       -2.144663   -0.855939   -0.286536
     13          8           0       -2.277032   -2.075432   -0.363693
     14          8           0       -1.073210   -0.255773   -0.335799
     15          6           0        4.134986   -0.720168   -0.017106
     16          6           0        2.783893   -0.663900    0.696593
     17          6           0        1.913458   -1.888251    0.411811
     18          1           0        3.967457   -0.809041   -1.099225
     19          1           0        4.667729   -1.629971    0.292469
     20          1           0        2.254445    0.246232    0.386817
     21          1           0        2.954659   -0.574958    1.777122
     22          1           0        2.417982   -2.803733    0.737309
     23          1           0        1.713790   -1.977879   -0.660896
     24          1           0        0.952368   -1.827293    0.931860
     25          6           0        5.016480    0.496852    0.257776
     26          6           0        6.367572    0.440584   -0.455923
     27          6           0        7.238008    1.664935   -0.171142
     28          1           0        4.483737    1.406656   -0.051800
     29          1           0        5.184008    0.585725    1.339894
     30          1           0        6.196807    0.351642   -1.536453
     31          1           0        6.897020   -0.469548   -0.146148
     32          1           0        7.437675    1.754563    0.901565
     33          1           0        6.733484    2.580417   -0.496640
     34          1           0        8.199098    1.603978   -0.691190
 ---------------------------------------------------------------------

 SCF Done:  E(RHF) =  -669.535849061     A.U. after   15 cycles
 E2 =    -0.2091303342D+01 EUMP2 =    -0.67162715240338D+03

 The electronic state is 1-A.
 Alpha  occ. eigenvalues --  -20.60963 -20.60958 -15.85992 -11.31315 -11.27877
 Alpha  occ. eigenvalues --  -11.27872 -11.27613 -11.26882 -11.26872 -11.20935
 Alpha  occ. eigenvalues --  -11.20550 -11.20543 -11.20263 -11.20105 -11.19042
 Alpha  occ. eigenvalues --   -1.60022  -1.39577  -1.19481  -1.08886  -1.07415
 Alpha  occ. eigenvalues --   -1.04877  -1.02385  -0.95731  -0.94808  -0.86278
 Alpha  occ. eigenvalues --   -0.85830  -0.82559  -0.78519  -0.77615  -0.77163
 Alpha  occ. eigenvalues --   -0.72206  -0.71342  -0.70589  -0.65136  -0.64880
 Alpha  occ. eigenvalues --   -0.64056  -0.62224  -0.59785  -0.58286  -0.56406
 Alpha  occ. eigenvalues --   -0.55380  -0.54119  -0.53210  -0.52968  -0.51505
 Alpha  occ. eigenvalues --   -0.51258  -0.49071  -0.48959  -0.48592  -0.46799
 Alpha  occ. eigenvalues --   -0.45581  -0.44986  -0.44704  -0.44595  -0.42611
 Alpha  occ. eigenvalues --   -0.37460  -0.36478
 Alpha virt. eigenvalues --    0.04896   0.11177   0.16394   0.21308   0.23781
 Alpha virt. eigenvalues --    0.25519   0.27231   0.27575   0.28169   0.28469
 Alpha virt. eigenvalues --    0.29243   0.30885   0.32337   0.32538   0.32662

 Mulliken charges:
               1
     1  C   -0.170565
     2  C   -0.218546
     3  C   -0.170797
     4  C    0.158337
     5  C   -0.170734
     6  C   -0.218584
     7  H    0.226067
     8  H    0.223892
     9  H    0.275669
    10  H    0.275963
    11  H    0.223900
    12  N    0.488445
    13  O   -0.458757
    14  O   -0.459391
    15  C   -0.297465
    16  C   -0.300978
    17  C   -0.466758
    18  H    0.149136
    19  H    0.146512
    20  H    0.155786
    21  H    0.143957
    22  H    0.141475
    23  H    0.159199
    24  H    0.172095
    25  C   -0.297054
    26  C   -0.298800
    27  C   -0.475027
    28  H    0.147632
    29  H    0.147250
    30  H    0.151253
    31  H    0.150951
    32  H    0.153963
    33  H    0.153783
    34  H    0.158191
 Sum of Mulliken charges =  -0.00000

 Dipole moment (field-independent basis, Debye):
    X=             -4.7572    Y=              2.8489    Z=              0.5173  Tot=              5.5691
 Quadrupole moment (field-independent basis, Debye-Ang):
   XX=            -66.3541   YY=            -92.3675   ZZ=            -95.3170
   XY=             -7.7191   XZ=             -1.4030   YZ=             -0.6685

 Normal termination of Gaussian 16 at Thu May  6 11:03:43 2021.
