 Gaussian 16, Revision A.03,
 Gaussian 16:  EM64L-G16RevA.03 25-Dec-2016

 -------------
 #p 6-31g* mp2
 -------------

 ------------------------------------------------------
 Input file generated by CHIRIPA (05-May-2021 14:55:25)
 ------------------------------------------------------
 Symbolic Z-matrix:
 Charge =  0 Multiplicity = 1

                         Standard orientation:
 ---------------------------------------------------------------------
 Center     Atomic      Atomic             Coordinates (Angstroms)
 Number     Number       Type             X           Y           Z
 ---------------------------------------------------------------------
      1          6           0       -1.153339    1.322790   -0.690161
      2          6           0       -2.267707    2.016104   -0.206404
      3          6           0       -3.477225    1.350559    0.014191
      4          6           0       -3.537259   -0.014728   -0.260903
      5          6           0       -2.444532   -0.733250   -0.743568
      6          6           0       -1.245146   -0.047259   -0.956729
      7          1           0       -0.217691    1.847742   -0.858637
      8          1           0       -2.199315    3.080127    0.001495
      9          1           0       -4.355414    1.862809    0.388094
     10          1           0       -2.543346   -1.793655   -0.941548
     11          1           0       -0.381336   -0.588263   -1.332484
     12          7           0       -4.812359   -0.730133   -0.031304
     13          8           0       -4.839382   -1.933178   -0.281485
     14          8           0       -5.760615   -0.074276    0.394489
     15          6           0        4.928320   -0.470594    0.239430
     16          6           0        5.759446    0.252935   -0.820626
     17          6           0        7.096258   -0.436333   -1.095653
     18          1           0        5.508119   -0.534093    1.170422
     19          1           0        4.748574   -1.503989   -0.087957
     20          1           0        5.936397    1.285065   -0.491978
     21          1           0        5.177527    0.314888   -1.749145
     22          1           0        6.936338   -1.460601   -1.447650
     23          1           0        7.699520   -0.484911   -0.183339
     24          1           0        7.674168    0.097529   -1.856489
     25          6           0        3.589074    0.206454    0.525355
     26          6           0        2.757946   -0.517074    1.585411
     27          6           0        1.421135    0.172193    1.860438
     28          1           0        3.768819    1.239849    0.852742
     29          1           0        3.009274    0.269953   -0.405636
     30          1           0        3.339866   -0.579027    2.513931
     31          1           0        2.580997   -1.549205    1.256763
     32          1           0        0.817873    0.220770    0.948125
     33          1           0        1.581055    1.196461    2.212435
     34          1           0        0.843225   -0.361668    2.621275
 ---------------------------------------------------------------------

 SCF Done:  E(RHF) =  -669.534221183     A.U. after   15 cycles
 E2 =    -0.2092657911D+01 EUMP2 =    -0.67162687909337D+03

 The electronic state is 1-A.
 Alpha  occ. eigenvalues --  -20.60772 -20.60767 -15.85827 -11.31201 -11.27784
 Alpha  occ. eigenvalues --  -11.27780 -11.27517 -11.26795 -11.26777 -11.22241
 Alpha  occ. eigenvalues --  -11.22178 -11.22161 -11.21990 -11.21600 -11.21541
 Alpha  occ. eigenvalues --   -1.59848  -1.39401  -1.19390  -1.09090  -1.08787
 Alpha  occ. eigenvalues --   -1.04798  -1.04127  -0.96582  -0.95613  -0.87596
 Alpha  occ. eigenvalues --   -0.86198  -0.82444  -0.80195  -0.78915  -0.77486
 Alpha  occ. eigenvalues --   -0.72047  -0.71171  -0.70507  -0.65740  -0.65046
 Alpha  occ. eigenvalues --   -0.64807  -0.62159  -0.61518  -0.59938  -0.58202
 Alpha  occ. eigenvalues --   -0.55929  -0.55296  -0.53401  -0.53197  -0.52888
 Alpha  occ. eigenvalues --   -0.52778  -0.50497  -0.48806  -0.48800  -0.48502
 Alpha  occ. eigenvalues --   -0.47238  -0.46453  -0.46378  -0.44805  -0.44392
 Alpha  occ. eigenvalues --   -0.37273  -0.36374
 Alpha virt. eigenvalues --    0.05037   0.11136   0.16501   0.19893   0.22607
 Alpha virt. eigenvalues --    0.23957   0.25588   0.26570   0.27438   0.27621
 Alpha virt. eigenvalues --    0.29061   0.30528   0.31056   0.31591   0.31743

 Mulliken charges:
               1
     1  C   -0.168680
     2  C   -0.219158
     3  C   -0.170657
     4  C    0.158272
     5  C   -0.171354
     6  C   -0.218412
     7  H    0.227797
     8  H    0.223792
     9  H    0.275813
    10  H    0.275738
    11  H    0.223678
    12  N    0.488106
    13  O   -0.460435
    14  O   -0.460375
    15  C   -0.298401
    16  C   -0.299813
    17  C   -0.476025
    18  H    0.152314
    19  H    0.150227
    20  H    0.152261
    21  H    0.150081
    22  H    0.155919
    23  H    0.156527
    24  H    0.161413
    25  C   -0.296972
    26  C   -0.300249
    27  C   -0.481207
    28  H    0.150074
    29  H    0.139636
    30  H    0.154980
    31  H    0.151631
    32  H    0.155641
    33  H    0.152852
    34  H    0.164986
 Sum of Mulliken charges =  -0.00000

 Dipole moment (field-independent basis, Debye):
    X=              4.5368    Y=              2.5191    Z=             -0.7632  Tot=              5.2451
 Quadrupole moment (field-independent basis, Debye-Ang):
   XX=           -126.5288   YY=            -91.1520   ZZ=            -94.1216
   XY=            -10.6329   XZ=              1.6583   YZ=              1.1482

 Normal termination of Gaussian 16 at Wed May  5 22:29:25 2021.
