 Gaussian 16, Revision A.03,
 Gaussian 16:  EM64L-G16RevA.03 25-Dec-2016

 -------------
 #p 6-31g* mp2
 -------------

 ------------------------------------------------------
 Input file generated by CHIRIPA (05-May-2021 14:55:20)
 ------------------------------------------------------
 Symbolic Z-matrix:
 Charge =  0 Multiplicity = 1

                         Standard orientation:
 ---------------------------------------------------------------------
 Center     Atomic      Atomic             Coordinates (Angstroms)
 Number     Number       Type             X           Y           Z
 ---------------------------------------------------------------------
      1          6           0        1.981173   -2.009915    1.655146
      2          6           0        0.885222   -1.583896    0.897571
      3          6           0        1.047023   -0.628452   -0.110146
      4          6           0        2.324618   -0.117814   -0.334398
      5          6           0        3.436139   -0.522113    0.403406
      6          6           0        3.250895   -1.478601    1.406084
      7          1           0        1.846377   -2.752533    2.436008
      8          1           0       -0.102021   -1.994791    1.088786
      9          1           0        0.215866   -0.280859   -0.711623
     10          1           0        4.408050   -0.094265    0.189507
     11          1           0        4.103838   -1.807588    1.992855
     12          7           0        2.508318    0.894225   -1.398556
     13          8           0        3.644199    1.328692   -1.576463
     14          8           0        1.512944    1.233830   -2.034587
     15          6           0       -3.324871    0.116783   -0.406002
     16          6           0       -3.527232   -1.398734   -0.421591
     17          6           0       -4.305330   -1.878660   -1.647163
     18          1           0       -4.305286    0.611554   -0.436515
     19          1           0       -2.794055    0.418238   -1.319651
     20          1           0       -4.056286   -1.697409    0.492472
     21          1           0       -2.546226   -1.889956   -0.390844
     22          1           0       -3.778144   -1.609090   -2.568036
     23          1           0       -5.296783   -1.415450   -1.679702
     24          1           0       -4.438524   -2.964955   -1.638069
     25          6           0       -2.548646    0.611818    0.813073
     26          6           0       -2.346284    2.127335    0.828662
     27          6           0       -1.568186    2.607262    2.054235
     28          1           0       -3.079461    0.310363    1.726723
     29          1           0       -1.568230    0.117047    0.843586
     30          1           0       -3.327290    2.618557    0.797915
     31          1           0       -1.817231    2.426011   -0.085401
     32          1           0       -0.576733    2.144051    2.086773
     33          1           0       -2.095372    2.337692    2.975108
     34          1           0       -1.434992    3.693556    2.045141
 ---------------------------------------------------------------------

 SCF Done:  E(RHF) =  -669.534891343     A.U. after   15 cycles
 E2 =    -0.2093636936D+01 EUMP2 =    -0.67162852827917D+03

 The electronic state is 1-A.
 Alpha  occ. eigenvalues --  -20.60827 -20.60820 -15.85878 -11.31238 -11.27807
 Alpha  occ. eigenvalues --  -11.27792 -11.27536 -11.26820 -11.26793 -11.22237
 Alpha  occ. eigenvalues --  -11.21840 -11.21776 -11.21702 -11.21466 -11.21143
 Alpha  occ. eigenvalues --   -1.59899  -1.39453  -1.19415  -1.08853  -1.08801
 Alpha  occ. eigenvalues --   -1.04823  -1.03855  -0.96300  -0.95642  -0.87314
 Alpha  occ. eigenvalues --   -0.86209  -0.82490  -0.79941  -0.78693  -0.77508
 Alpha  occ. eigenvalues --   -0.72098  -0.71222  -0.70534  -0.65585  -0.65032
 Alpha  occ. eigenvalues --   -0.64808  -0.62135  -0.61249  -0.59671  -0.57905
 Alpha  occ. eigenvalues --   -0.55608  -0.55280  -0.53164  -0.52993  -0.52882
 Alpha  occ. eigenvalues --   -0.52698  -0.50247  -0.48854  -0.48852  -0.48245
 Alpha  occ. eigenvalues --   -0.46984  -0.46193  -0.46083  -0.44858  -0.44131
 Alpha  occ. eigenvalues --   -0.37388  -0.36370
 Alpha virt. eigenvalues --    0.04959   0.11212   0.16350   0.18998   0.22781
 Alpha virt. eigenvalues --    0.23837   0.24965   0.26067   0.27354   0.28262
 Alpha virt. eigenvalues --    0.30285   0.30941   0.31417   0.31647   0.32580

 Mulliken charges:
               1
     1  C   -0.171351
     2  C   -0.221291
     3  C   -0.172994
     4  C    0.156863
     5  C   -0.170876
     6  C   -0.218495
     7  H    0.226285
     8  H    0.228365
     9  H    0.279159
    10  H    0.275817
    11  H    0.223786
    12  N    0.488275
    13  O   -0.459889
    14  O   -0.461246
    15  C   -0.302459
    16  C   -0.300794
    17  C   -0.476005
    18  H    0.153948
    19  H    0.155353
    20  H    0.152633
    21  H    0.141535
    22  H    0.158966
    23  H    0.157974
    24  H    0.160412
    25  C   -0.305702
    26  C   -0.302262
    27  C   -0.476429
    28  H    0.149363
    29  H    0.143979
    30  H    0.153256
    31  H    0.161813
    32  H    0.155610
    33  H    0.152826
    34  H    0.163575
 Sum of Mulliken charges =  -0.00000

 Dipole moment (field-independent basis, Debye):
    X=             -0.6960    Y=             -3.4646    Z=              3.6847  Tot=              5.1054
 Quadrupole moment (field-independent basis, Debye-Ang):
   XX=            -91.9194   YY=            -94.6402   ZZ=            -98.1417
   XY=             -8.6641   XZ=              9.6788   YZ=              0.3179

 Normal termination of Gaussian 16 at Wed May  5 20:33:48 2021.
