 Gaussian 16, Revision A.03,
 Gaussian 16:  EM64L-G16RevA.03 25-Dec-2016

 -------------
 #p 6-31g* mp2
 -------------

 ------------------------------------------------------
 Input file generated by CHIRIPA (05-May-2021 14:55:23)
 ------------------------------------------------------
 Symbolic Z-matrix:
 Charge =  0 Multiplicity = 1

                         Standard orientation:
 ---------------------------------------------------------------------
 Center     Atomic      Atomic             Coordinates (Angstroms)
 Number     Number       Type             X           Y           Z
 ---------------------------------------------------------------------
      1          6           0       -1.455908    1.703921   -0.705029
      2          6           0       -2.732302    2.178854   -0.386005
      3          6           0       -3.780286    1.287215   -0.138502
      4          6           0       -3.515321   -0.079022   -0.219004
      5          6           0       -2.254513   -0.583105   -0.534526
      6          6           0       -1.221500    0.326885   -0.778143
      7          1           0       -0.647624    2.403696   -0.895786
      8          1           0       -2.917252    3.247748   -0.328516
      9          1           0       -4.778043    1.627630    0.110532
     10          1           0       -2.100767   -1.654224   -0.584372
     11          1           0       -0.231243   -0.044811   -1.025686
     12          7           0       -4.616850   -1.032674    0.040959
     13          8           0       -4.357563   -2.231609   -0.036263
     14          8           0       -5.718658   -0.563155    0.317018
     15          6           0        4.705076   -0.370961   -0.229035
     16          6           0        6.192782   -0.073888   -0.038077
     17          6           0        7.055773   -0.622205   -1.174910
     18          1           0        4.561898   -1.457274   -0.308837
     19          1           0        4.372007    0.059177   -1.183730
     20          1           0        6.522622   -0.503265    0.916625
     21          1           0        6.332412    1.011834    0.041470
     22          1           0        6.754713   -0.185034   -2.132430
     23          1           0        6.946004   -1.708742   -1.252303
     24          1           0        8.115626   -0.398602   -1.018154
     25          6           0        3.829389    0.170893    0.899368
     26          6           0        2.341684   -0.126180    0.708411
     27          6           0        1.478693    0.422137    1.845243
     28          1           0        4.162459   -0.259245    1.854063
     29          1           0        3.972567    1.257207    0.979169
     30          1           0        2.202053   -1.211901    0.628863
     31          1           0        2.011843    0.303197   -0.246292
     32          1           0        1.588462    1.508674    1.922637
     33          1           0        1.779753   -0.015034    2.802763
     34          1           0        0.418839    0.198533    1.688487
 ---------------------------------------------------------------------

 SCF Done:  E(RHF) =  -669.534922624     A.U. after   15 cycles
 E2 =    -0.2092488174D+01 EUMP2 =    -0.67162741079739D+03

 The electronic state is 1-A.
 Alpha  occ. eigenvalues --  -20.60759 -20.60754 -15.85812 -11.31185 -11.27749
 Alpha  occ. eigenvalues --  -11.27740 -11.27487 -11.26770 -11.26710 -11.22574
 Alpha  occ. eigenvalues --  -11.22126 -11.22110 -11.22000 -11.21709 -11.21508
 Alpha  occ. eigenvalues --   -1.59835  -1.39388  -1.19359  -1.09131  -1.08749
 Alpha  occ. eigenvalues --   -1.04771  -1.04194  -0.96608  -0.95582  -0.87619
 Alpha  occ. eigenvalues --   -0.86158  -0.82416  -0.80301  -0.78943  -0.77459
 Alpha  occ. eigenvalues --   -0.72031  -0.71158  -0.70460  -0.65791  -0.65006
 Alpha  occ. eigenvalues --   -0.64780  -0.62176  -0.61558  -0.59970  -0.58233
 Alpha  occ. eigenvalues --   -0.55883  -0.55252  -0.53479  -0.53154  -0.52880
 Alpha  occ. eigenvalues --   -0.52708  -0.50546  -0.48803  -0.48785  -0.48576
 Alpha  occ. eigenvalues --   -0.47337  -0.46464  -0.46389  -0.44792  -0.44441
 Alpha  occ. eigenvalues --   -0.37313  -0.36333
 Alpha virt. eigenvalues --    0.05061   0.11225   0.16520   0.20150   0.22493
 Alpha virt. eigenvalues --    0.24012   0.25484   0.26147   0.27299   0.27966
 Alpha virt. eigenvalues --    0.28611   0.30344   0.30956   0.31403   0.32068

 Mulliken charges:
               1
     1  C   -0.171336
     2  C   -0.218434
     3  C   -0.171117
     4  C    0.159027
     5  C   -0.173889
     6  C   -0.221465
     7  H    0.225497
     8  H    0.223437
     9  H    0.275621
    10  H    0.275972
    11  H    0.232568
    12  N    0.488034
    13  O   -0.460376
    14  O   -0.460423
    15  C   -0.298747
    16  C   -0.300116
    17  C   -0.476069
    18  H    0.151003
    19  H    0.147287
    20  H    0.153605
    21  H    0.152143
    22  H    0.154948
    23  H    0.156210
    24  H    0.161939
    25  C   -0.297342
    26  C   -0.303506
    27  C   -0.481298
    28  H    0.153455
    29  H    0.149912
    30  H    0.153931
    31  H    0.139592
    32  H    0.152840
    33  H    0.159622
    34  H    0.167476
 Sum of Mulliken charges =  -0.00000

 Dipole moment (field-independent basis, Debye):
    X=              3.9939    Y=              3.3416    Z=             -0.8530  Tot=              5.2769
 Quadrupole moment (field-independent basis, Debye-Ang):
   XX=           -120.4893   YY=            -91.9328   ZZ=            -95.2433
   XY=            -14.9604   XZ=              2.5824   YZ=             -0.7068

 Normal termination of Gaussian 16 at Thu May  6 09:27:02 2021.
