 Gaussian 16, Revision A.03,
 Gaussian 16:  EM64L-G16RevA.03 25-Dec-2016

 -------------
 #p 6-31g* mp2
 -------------

 ------------------------------------------------------
 Input file generated by CHIRIPA (05-May-2021 14:57:27)
 ------------------------------------------------------
 Symbolic Z-matrix:
 Charge =  0 Multiplicity = 1

                         Standard orientation:
 ---------------------------------------------------------------------
 Center     Atomic      Atomic             Coordinates (Angstroms)
 Number     Number       Type             X           Y           Z
 ---------------------------------------------------------------------
      1          6           0        1.114063    1.692920   -1.221489
      2          6           0        0.790699    0.357242   -0.960870
      3          6           0        1.763710   -0.530347   -0.491846
      4          6           0        3.055878   -0.046279   -0.293679
      5          6           0        3.409069    1.278789   -0.544160
      6          6           0        2.419914    2.148627   -1.012670
      7          1           0        0.351934    2.375525   -1.585638
      8          1           0       -0.222621    0.000556   -1.122127
      9          1           0        1.540740   -1.569414   -0.281983
     10          1           0        4.427854    1.605080   -0.373778
     11          1           0        2.673911    3.185404   -1.214221
     12          7           0        4.094507   -0.976533    0.202584
     13          8           0        5.225599   -0.525356    0.369037
     14          8           0        3.757826   -2.139229    0.415704
     15          6           0       -4.297512   -1.074009   -1.477867
     16          6           0       -4.434761    0.271870   -1.122487
     17          6           0       -3.657187    0.818332   -0.097155
     18          6           0       -2.748114   -0.013555    0.554642
     19          6           0       -2.588261   -1.358231    0.223607
     20          6           0       -3.376323   -1.883336   -0.804872
     21          1           0       -4.905623   -1.490218   -2.275593
     22          1           0       -5.149361    0.902766   -1.643412
     23          1           0       -3.743053    1.856962    0.198297
     24          1           0       -1.867406   -1.962256    0.761138
     25          1           0       -3.267596   -2.928910   -1.078735
     26          7           0       -1.919379    0.553655    1.641782
     27          8           0       -1.125667   -0.200247    2.200610
     28          8           0       -2.079223    1.741397    1.914468
 ---------------------------------------------------------------------

 SCF Done:  E(RHF) =  -868.337203275     A.U. after   16 cycles
 E2 =    -0.2602086269D+01 EUMP2 =    -0.87093928954395D+03

 The electronic state is 1-A.
 Alpha  occ. eigenvalues --  -20.61511 -20.61480 -20.60315 -20.60309 -15.86543
 Alpha  occ. eigenvalues --  -15.85368 -11.32106 -11.30677 -11.28650 -11.28646
 Alpha  occ. eigenvalues --  -11.28354 -11.27680 -11.27668 -11.27295 -11.27262
 Alpha  occ. eigenvalues --  -11.27031 -11.26265 -11.26252  -1.60564  -1.59388
 Alpha  occ. eigenvalues --   -1.40113  -1.38945  -1.20288  -1.18856  -1.09619
 Alpha  occ. eigenvalues --   -1.08270  -1.05685  -1.04271  -0.96423  -0.95114
 Alpha  occ. eigenvalues --   -0.87060  -0.85690  -0.83236  -0.81962  -0.78277
 Alpha  occ. eigenvalues --   -0.77017  -0.72750  -0.71923  -0.71595  -0.71315
 Alpha  occ. eigenvalues --   -0.70700  -0.70003  -0.65895  -0.65635  -0.64531
 Alpha  occ. eigenvalues --   -0.64328  -0.63005  -0.61659  -0.56114  -0.54829
 Alpha  occ. eigenvalues --   -0.54065  -0.53732  -0.52565  -0.52326  -0.49527
 Alpha  occ. eigenvalues --   -0.49507  -0.48349  -0.48347  -0.45469  -0.44363
 Alpha  occ. eigenvalues --   -0.38247  -0.37316  -0.36824  -0.35824
 Alpha virt. eigenvalues --    0.04208   0.05557   0.10272   0.11783   0.15714
 Alpha virt. eigenvalues --    0.17047   0.20532   0.21781   0.26187   0.27140
 Alpha virt. eigenvalues --    0.27826   0.28712   0.30369   0.31268   0.31736

 Mulliken charges:
               1
     1  C   -0.168236
     2  C   -0.224984
     3  C   -0.162452
     4  C    0.158786
     5  C   -0.170015
     6  C   -0.217224
     7  H    0.223338
     8  H    0.222726
     9  H    0.271092
    10  H    0.274693
    11  H    0.222250
    12  N    0.488600
    13  O   -0.461397
    14  O   -0.461867
    15  C   -0.171565
    16  C   -0.218116
    17  C   -0.174976
    18  C    0.154724
    19  C   -0.182414
    20  C   -0.217610
    21  H    0.229270
    22  H    0.226321
    23  H    0.276944
    24  H    0.278680
    25  H    0.228093
    26  N    0.490108
    27  O   -0.455179
    28  O   -0.459589
 Sum of Mulliken charges =  -0.00000

 Dipole moment (field-independent basis, Debye):
    X=             -6.7700    Y=              1.2668    Z=             -5.4720  Tot=              8.7966
 Quadrupole moment (field-independent basis, Debye-Ang):
   XX=           -108.2248   YY=            -98.6122   ZZ=           -109.4169
   XY=             16.7548   XZ=              5.3208   YZ=             -2.6382

 Normal termination of Gaussian 16 at Thu May  6 21:24:52 2021.
