 Gaussian 16, Revision A.03,
 Gaussian 16:  EM64L-G16RevA.03 25-Dec-2016

 -------------
 #p 6-31g* mp2
 -------------

 ------------------------------------------------------
 Input file generated by CHIRIPA (05-May-2021 14:53:16)
 ------------------------------------------------------
 Symbolic Z-matrix:
 Charge =  0 Multiplicity = 1

                         Standard orientation:
 ---------------------------------------------------------------------
 Center     Atomic      Atomic             Coordinates (Angstroms)
 Number     Number       Type             X           Y           Z
 ---------------------------------------------------------------------
      1          6           0        2.868101    1.319939   -0.480180
      2          6           0        2.147143    2.297410    0.448666
      3          6           0        1.925843    3.667869   -0.192164
      4          1           0        3.835619    1.749334   -0.774245
      5          1           0        2.284000    1.203922   -1.403630
      6          1           0        2.731732    2.410484    1.370667
      7          1           0        1.181312    1.865553    0.740707
      8          1           0        1.323286    3.575149   -1.101520
      9          1           0        2.882515    4.123175   -0.467981
     10          1           0        1.408956    4.350886    0.489140
     11          6           0        3.096627   -0.054482    0.146295
     12          6           0        3.817585   -1.031953   -0.782551
     13          6           0        4.038885   -2.402412   -0.141721
     14          1           0        3.680728    0.061534    1.069745
     15          1           0        2.129109   -0.483878    0.440360
     16          1           0        4.783415   -0.600097   -1.074592
     17          1           0        3.232995   -1.145027   -1.704552
     18          1           0        3.082213   -2.857719    0.134096
     19          1           0        4.641442   -2.309692    0.767635
     20          1           0        4.555771   -3.085430   -0.823025
     21          6           0       -0.301465   -1.762156    0.932717
     22          6           0       -0.894158   -0.797573    1.754188
     23          6           0       -2.018420   -0.089011    1.319995
     24          6           0       -2.526080   -0.371749    0.052861
     25          6           0       -1.958015   -1.326827   -0.788814
     26          6           0       -0.834345   -2.023244   -0.333930
     27          1           0        0.571658   -2.307867    1.278044
     28          1           0       -0.482468   -0.592717    2.738358
     29          1           0       -2.497071    0.662996    1.935461
     30          1           0       -2.391078   -1.509004   -1.764870
     31          1           0       -0.376128   -2.771801   -0.974044
     32          7           0       -3.715972    0.371945   -0.417752
     33          8           0       -4.144083    0.104249   -1.538331
     34          8           0       -4.197968    1.208466    0.342872
 ---------------------------------------------------------------------

 SCF Done:  E(RHF) =  -669.535104883     A.U. after   15 cycles
 E2 =    -0.2093537042D+01 EUMP2 =    -0.67162864192527D+03

 The electronic state is 1-A.
 Alpha  occ. eigenvalues --  -20.60844 -20.60838 -15.85900 -11.31300 -11.27887
 Alpha  occ. eigenvalues --  -11.27877 -11.27611 -11.26902 -11.26887 -11.22290
 Alpha  occ. eigenvalues --  -11.22017 -11.21912 -11.21889 -11.21751 -11.21234
 Alpha  occ. eigenvalues --   -1.59919  -1.39471  -1.19490  -1.08973  -1.08841
 Alpha  occ. eigenvalues --   -1.04890  -1.04045  -0.96499  -0.95706  -0.87515
 Alpha  occ. eigenvalues --   -0.86283  -0.82534  -0.80119  -0.78742  -0.77564
 Alpha  occ. eigenvalues --   -0.72117  -0.71243  -0.70615  -0.65583  -0.65137
 Alpha  occ. eigenvalues --   -0.64869  -0.62230  -0.61443  -0.59888  -0.58105
 Alpha  occ. eigenvalues --   -0.55820  -0.55402  -0.53298  -0.53148  -0.52973
 Alpha  occ. eigenvalues --   -0.52915  -0.50457  -0.48880  -0.48869  -0.48433
 Alpha  occ. eigenvalues --   -0.47155  -0.46273  -0.46169  -0.44869  -0.44272
 Alpha  occ. eigenvalues --   -0.37367  -0.36486
 Alpha virt. eigenvalues --    0.04919   0.11116   0.16289   0.19492   0.22829
 Alpha virt. eigenvalues --    0.23677   0.25728   0.26526   0.26824   0.27820
 Alpha virt. eigenvalues --    0.28876   0.30339   0.31151   0.31474   0.32092

 Mulliken charges:
               1
     1  C   -0.297040
     2  C   -0.302739
     3  C   -0.476008
     4  H    0.150506
     5  H    0.151416
     6  H    0.149693
     7  H    0.153181
     8  H    0.157900
     9  H    0.155204
    10  H    0.161549
    11  C   -0.306222
    12  C   -0.299902
    13  C   -0.475610
    14  H    0.147773
    15  H    0.151818
    16  H    0.155574
    17  H    0.151878
    18  H    0.142792
    19  H    0.157726
    20  H    0.164013
    21  C   -0.173607
    22  C   -0.217999
    23  C   -0.171318
    24  C    0.158667
    25  C   -0.170627
    26  C   -0.220018
    27  H    0.231047
    28  H    0.225558
    29  H    0.276409
    30  H    0.276145
    31  H    0.224313
    32  N    0.488060
    33  O   -0.460150
    34  O   -0.459984
 Sum of Mulliken charges =  -0.00000

 Dipole moment (field-independent basis, Debye):
    X=              4.1536    Y=             -2.5744    Z=              1.6229  Tot=              5.1491
 Quadrupole moment (field-independent basis, Debye-Ang):
   XX=           -115.8120   YY=            -93.0355   ZZ=            -90.9371
   XY=              5.5885   XZ=             -4.0608   YZ=              2.1601

 Normal termination of Gaussian 16 at Wed May  5 21:57:51 2021.
