 Gaussian 16, Revision A.03,
 Gaussian 16:  EM64L-G16RevA.03 25-Dec-2016

 -------------
 #p 6-31g* mp2
 -------------

 ------------------------------------------------------
 Input file generated by CHIRIPA (05-May-2021 14:55:22)
 ------------------------------------------------------
 Symbolic Z-matrix:
 Charge =  0 Multiplicity = 1

                         Standard orientation:
 ---------------------------------------------------------------------
 Center     Atomic      Atomic             Coordinates (Angstroms)
 Number     Number       Type             X           Y           Z
 ---------------------------------------------------------------------
      1          6           0        0.068480   -1.131542    1.073080
      2          6           0        0.974112   -0.434385    1.879507
      3          6           0        2.232380   -0.075086    1.387356
      4          6           0        2.553484   -0.430593    0.078235
      5          6           0        1.672948   -1.125048   -0.749822
      6          6           0        0.420169   -1.474045   -0.236702
      7          1           0       -0.906841   -1.406653    1.463540
      8          1           0        0.703695   -0.167073    2.897084
      9          1           0        2.952697    0.464754    1.989963
     10          1           0        1.971061   -1.377617   -1.760147
     11          1           0       -0.281143   -2.015454   -0.865258
     12          7           0        3.882651   -0.055672   -0.453883
     13          8           0        4.141441   -0.380610   -1.610637
     14          8           0        4.640493    0.556029    0.295873
     15          6           0       -2.829635    1.316679    0.082820
     16          6           0       -1.687627    2.036628   -0.635149
     17          6           0       -1.382473    3.408538   -0.033039
     18          1           0       -3.730909    1.943779    0.045461
     19          1           0       -2.571826    1.202888    1.144884
     20          1           0       -1.946913    2.147794   -1.695822
     21          1           0       -0.789018    1.407657   -0.596243
     22          1           0       -1.098562    3.312589    1.019952
     23          1           0       -2.263036    4.056934   -0.085875
     24          1           0       -0.562965    3.905590   -0.561439
     25          6           0       -3.146483   -0.056175   -0.507611
     26          6           0       -4.288490   -0.776124    0.210356
     27          6           0       -4.593645   -2.148035   -0.391753
     28          1           0       -3.404290    0.057615   -1.569677
     29          1           0       -2.245209   -0.683275   -0.470253
     30          1           0       -5.187098   -0.147153    0.171450
     31          1           0       -4.029204   -0.887292    1.271030
     32          1           0       -3.713081   -2.796430   -0.338918
     33          1           0       -4.877555   -2.052087   -1.444744
     34          1           0       -5.413152   -2.645086    0.136646
 ---------------------------------------------------------------------

 SCF Done:  E(RHF) =  -669.533593127     A.U. after   15 cycles
 E2 =    -0.2095349357D+01 EUMP2 =    -0.67162894248368D+03

 The electronic state is 1-A.
 Alpha  occ. eigenvalues --  -20.60836 -20.60831 -15.85891 -11.31297 -11.27873
 Alpha  occ. eigenvalues --  -11.27866 -11.27605 -11.26889 -11.26867 -11.22529
 Alpha  occ. eigenvalues --  -11.22206 -11.22038 -11.22012 -11.21891 -11.21363
 Alpha  occ. eigenvalues --   -1.59911  -1.39463  -1.19487  -1.09206  -1.08836
 Alpha  occ. eigenvalues --   -1.04890  -1.04175  -0.96651  -0.95696  -0.87659
 Alpha  occ. eigenvalues --   -0.86299  -0.82524  -0.80268  -0.78961  -0.77558
 Alpha  occ. eigenvalues --   -0.72111  -0.71235  -0.70641  -0.65934  -0.65118
 Alpha  occ. eigenvalues --   -0.64820  -0.62243  -0.61580  -0.60020  -0.58233
 Alpha  occ. eigenvalues --   -0.56008  -0.55332  -0.53393  -0.53162  -0.53085
 Alpha  occ. eigenvalues --   -0.52948  -0.50607  -0.48877  -0.48862  -0.48561
 Alpha  occ. eigenvalues --   -0.47326  -0.46462  -0.46379  -0.44860  -0.44438
 Alpha  occ. eigenvalues --   -0.37377  -0.36454
 Alpha virt. eigenvalues --    0.04946   0.11018   0.16350   0.18991   0.22984
 Alpha virt. eigenvalues --    0.23593   0.25338   0.25794   0.27496   0.28284
 Alpha virt. eigenvalues --    0.29501   0.30063   0.31000   0.31430   0.31890

 Mulliken charges:
               1
     1  C   -0.169822
     2  C   -0.219756
     3  C   -0.170496
     4  C    0.158354
     5  C   -0.171924
     6  C   -0.219425
     7  H    0.229283
     8  H    0.224086
     9  H    0.276241
    10  H    0.276472
    11  H    0.225696
    12  N    0.488119
    13  O   -0.459972
    14  O   -0.460057
    15  C   -0.296222
    16  C   -0.306069
    17  C   -0.475434
    18  H    0.152426
    19  H    0.143062
    20  H    0.151987
    21  H    0.161125
    22  H    0.152733
    23  H    0.155040
    24  H    0.163947
    25  C   -0.304978
    26  C   -0.300849
    27  C   -0.474827
    28  H    0.153270
    29  H    0.144387
    30  H    0.157156
    31  H    0.146288
    32  H    0.147173
    33  H    0.158966
    34  H    0.164019
 Sum of Mulliken charges =  -0.00000

 Dipole moment (field-independent basis, Debye):
    X=             -4.6580    Y=             -1.2750    Z=              1.8194  Tot=              5.1607
 Quadrupole moment (field-independent basis, Debye-Ang):
   XX=           -118.4201   YY=            -94.1685   ZZ=            -90.4767
   XY=             -1.4534   XZ=              6.1212   YZ=              0.6175

 Normal termination of Gaussian 16 at Thu May  6 10:58:31 2021.
