 Gaussian 16, Revision A.03,
 Gaussian 16:  EM64L-G16RevA.03 25-Dec-2016

 -------------
 #p 6-31g* mp2
 -------------

 ------------------------------------------------------
 Input file generated by CHIRIPA (05-May-2021 14:51:09)
 ------------------------------------------------------
 Symbolic Z-matrix:
 Charge =  0 Multiplicity = 1

                         Standard orientation:
 ---------------------------------------------------------------------
 Center     Atomic      Atomic             Coordinates (Angstroms)
 Number     Number       Type             X           Y           Z
 ---------------------------------------------------------------------
      1          6           0        3.676319    0.219288    0.121674
      2          6           0        5.197965    0.077412    0.072157
      3          6           0        5.924657    1.369096    0.448009
      4          1           0        3.367395    1.026227   -0.556823
      5          1           0        3.376609    0.528905    1.132469
      6          1           0        5.494602   -0.233187   -0.937868
      7          1           0        5.503286   -0.729411    0.750707
      8          1           0        5.657522    1.680000    1.463183
      9          1           0        5.648789    2.179044   -0.234987
     10          1           0        7.011280    1.245209    0.406014
     11          6           0        2.935791   -1.063697   -0.251550
     12          6           0        1.414146   -0.921822   -0.202032
     13          6           0        0.687454   -2.213506   -0.577884
     14          1           0        3.235502   -1.373315   -1.262344
     15          1           0        3.244716   -1.870637    0.426948
     16          1           0        1.108825   -0.114998   -0.880583
     17          1           0        1.117508   -0.611222    0.807993
     18          1           0        0.963321   -3.023454    0.105111
     19          1           0        0.954589   -2.524410   -1.593058
     20          1           0       -0.399169   -2.089619   -0.535890
     21          6           0       -3.449335    1.140880    0.280364
     22          6           0       -2.681354    2.182547   -0.533958
     23          6           0       -2.978515    3.615526   -0.091169
     24          1           0       -4.526635    1.337419    0.192366
     25          1           0       -3.196195    1.257152    1.343282
     26          1           0       -2.934811    2.063443   -1.595179
     27          1           0       -1.605765    1.983390   -0.444167
     28          1           0       -2.708584    3.757652    0.960277
     29          1           0       -4.045181    3.838160   -0.197275
     30          1           0       -2.419068    4.343857   -0.686493
     31          6           0       -3.162775   -0.296471   -0.150488
     32          6           0       -3.930757   -1.338138    0.663833
     33          6           0       -3.633596   -2.771116    0.221045
     34          1           0       -3.415916   -0.412743   -1.213407
     35          1           0       -2.085476   -0.493009   -0.062490
     36          1           0       -5.006345   -1.138981    0.574042
     37          1           0       -3.677299   -1.219034    1.725054
     38          1           0       -2.566929   -2.993751    0.327151
     39          1           0       -3.903526   -2.913243   -0.830401
     40          1           0       -4.193043   -3.499448    0.816369
 ---------------------------------------------------------------------

 SCF Done:  E(RHF) =  -470.732947254     A.U. after   11 cycles
 E2 =    -0.1583399455D+01 EUMP2 =    -0.47231634670836D+03

 The electronic state is 1-A.
 Alpha  occ. eigenvalues --  -11.21655 -11.21621 -11.21596 -11.21589 -11.21436
 Alpha  occ. eigenvalues --  -11.21394 -11.21376 -11.21334 -11.21086 -11.21063
 Alpha  occ. eigenvalues --  -11.21059 -11.21049  -1.08468  -1.08420  -1.03571
 Alpha  occ. eigenvalues --   -1.03513  -0.96007  -0.95972  -0.87026  -0.86988
 Alpha  occ. eigenvalues --   -0.79655  -0.79553  -0.78291  -0.78234  -0.65091
 Alpha  occ. eigenvalues --   -0.65078  -0.60985  -0.60924  -0.59503  -0.59223
 Alpha  occ. eigenvalues --   -0.57626  -0.57581  -0.55304  -0.55246  -0.52755
 Alpha  occ. eigenvalues --   -0.52648  -0.52465  -0.52373  -0.49967  -0.49891
 Alpha  occ. eigenvalues --   -0.48052  -0.47800  -0.46657  -0.46597  -0.45830
 Alpha  occ. eigenvalues --   -0.45763  -0.45736  -0.45660  -0.43785  -0.43745
 Alpha virt. eigenvalues --    0.20995   0.23117   0.23455   0.24383   0.26133
 Alpha virt. eigenvalues --    0.26612   0.27007   0.27173   0.27994   0.29376
 Alpha virt. eigenvalues --    0.30350   0.31365   0.31658   0.31847   0.32297

 Mulliken charges:
               1
     1  C   -0.298319
     2  C   -0.299678
     3  C   -0.475729
     4  H    0.149721
     5  H    0.149396
     6  H    0.152034
     7  H    0.151988
     8  H    0.155171
     9  H    0.155238
    10  H    0.160340
    11  C   -0.298490
    12  C   -0.300171
    13  C   -0.486632
    14  H    0.149900
    15  H    0.149855
    16  H    0.152723
    17  H    0.151108
    18  H    0.154934
    19  H    0.155870
    20  H    0.170455
    21  C   -0.297485
    22  C   -0.300601
    23  C   -0.475660
    24  H    0.149671
    25  H    0.149415
    26  H    0.151733
    27  H    0.152991
    28  H    0.155223
    29  H    0.155140
    30  H    0.160167
    31  C   -0.306229
    32  C   -0.299507
    33  C   -0.480473
    34  H    0.149286
    35  H    0.157549
    36  H    0.152017
    37  H    0.151646
    38  H    0.159816
    39  H    0.155155
    40  H    0.160431
 Sum of Mulliken charges =  -0.00000

 Dipole moment (field-independent basis, Debye):
    X=              0.0106    Y=             -0.0048    Z=             -0.0078  Tot=              0.0140
 Quadrupole moment (field-independent basis, Debye-Ang):
   XX=            -84.6798   YY=            -86.6433   ZZ=            -83.4500
   XY=             -0.4717   XZ=              0.3760   YZ=             -0.7482

 Normal termination of Gaussian 16 at Thu May  6 06:53:19 2021.
