 Gaussian 16, Revision A.03,
 Gaussian 16:  EM64L-G16RevA.03 25-Dec-2016

 -------------
 #p 6-31g* mp2
 -------------

 ------------------------------------------------------
 Input file generated by CHIRIPA (05-May-2021 14:53:12)
 ------------------------------------------------------
 Symbolic Z-matrix:
 Charge =  0 Multiplicity = 1

                         Standard orientation:
 ---------------------------------------------------------------------
 Center     Atomic      Atomic             Coordinates (Angstroms)
 Number     Number       Type             X           Y           Z
 ---------------------------------------------------------------------
      1          6           0       -4.588011    0.390963    0.134269
      2          6           0       -6.083412    0.328725   -0.178597
      3          6           0       -6.773202    1.686292   -0.040770
      4          1           0       -4.449026    0.772513    1.155076
      5          1           0       -4.109656    1.116314   -0.538367
      6          1           0       -6.558567   -0.397311    0.493502
      7          1           0       -6.218860   -0.052901   -1.198710
      8          1           0       -6.325972    2.416655   -0.722794
      9          1           0       -6.667609    2.070288    0.979033
     10          1           0       -7.841489    1.618812   -0.268960
     11          6           0       -3.884491   -0.958477    0.000852
     12          6           0       -2.389089   -0.896238    0.313718
     13          6           0       -1.699300   -2.253805    0.175891
     14          1           0       -4.362846   -1.683827    0.673488
     15          1           0       -4.023476   -1.340026   -1.019956
     16          1           0       -2.253642   -0.514612    1.333831
     17          1           0       -1.913935   -0.170203   -0.358381
     18          1           0       -1.804892   -2.637802   -0.843912
     19          1           0       -2.146530   -2.984168    0.857915
     20          1           0       -0.631013   -2.186325    0.404081
     21          6           0        3.432406    2.740107    0.038803
     22          6           0        2.208948    2.107340   -0.204665
     23          6           0        2.129100    0.712573   -0.257572
     24          6           0        3.297696   -0.021787   -0.061636
     25          6           0        4.531431    0.579384    0.182868
     26          6           0        4.587706    1.975457    0.231453
     27          1           0        3.485277    3.824102    0.078223
     28          1           0        1.310104    2.698635   -0.354649
     29          1           0        1.194976    0.196879   -0.444353
     30          1           0        5.410348   -0.036829    0.328487
     31          1           0        5.539226    2.464165    0.420711
     32          7           0        3.225643   -1.499056   -0.115358
     33          8           0        4.269609   -2.123418    0.060549
     34          8           0        2.126566   -2.004604   -0.332354
 ---------------------------------------------------------------------

 SCF Done:  E(RHF) =  -669.536082687     A.U. after   15 cycles
 E2 =    -0.2091148106D+01 EUMP2 =    -0.67162723079271D+03

 The electronic state is 1-A.
 Alpha  occ. eigenvalues --  -20.60886 -20.60871 -15.85920 -11.31237 -11.27805
 Alpha  occ. eigenvalues --  -11.27794 -11.27543 -11.26813 -11.26800 -11.21610
 Alpha  occ. eigenvalues --  -11.21463 -11.21394 -11.21247 -11.21128 -11.20329
 Alpha  occ. eigenvalues --   -1.59947  -1.39503  -1.19408  -1.08814  -1.08347
 Alpha  occ. eigenvalues --   -1.04804  -1.03372  -0.95782  -0.95646  -0.86776
 Alpha  occ. eigenvalues --   -0.86205  -0.82490  -0.79449  -0.78179  -0.77543
 Alpha  occ. eigenvalues --   -0.72148  -0.71261  -0.70518  -0.65065  -0.64987
 Alpha  occ. eigenvalues --   -0.64806  -0.62157  -0.60777  -0.59148  -0.57389
 Alpha  occ. eigenvalues --   -0.55311  -0.55065  -0.53138  -0.52897  -0.52405
 Alpha  occ. eigenvalues --   -0.52188  -0.49720  -0.48898  -0.48893  -0.47742
 Alpha  occ. eigenvalues --   -0.46514  -0.45706  -0.45650  -0.44917  -0.43580
 Alpha  occ. eigenvalues --   -0.37390  -0.36405
 Alpha virt. eigenvalues --    0.04965   0.11244   0.16453   0.20406   0.22893
 Alpha virt. eigenvalues --    0.23794   0.26100   0.26952   0.27618   0.27865
 Alpha virt. eigenvalues --    0.29107   0.30671   0.31471   0.31716   0.32116

 Mulliken charges:
               1
     1  C   -0.297610
     2  C   -0.299544
     3  C   -0.475538
     4  H    0.148541
     5  H    0.145938
     6  H    0.152811
     7  H    0.152412
     8  H    0.153803
     9  H    0.154676
    10  H    0.160591
    11  C   -0.297427
    12  C   -0.300414
    13  C   -0.485652
    14  H    0.151032
    15  H    0.150497
    16  H    0.149689
    17  H    0.140884
    18  H    0.155713
    19  H    0.153364
    20  H    0.183678
    21  C   -0.170531
    22  C   -0.219370
    23  C   -0.173439
    24  C    0.157677
    25  C   -0.170659
    26  C   -0.218747
    27  H    0.225822
    28  H    0.224092
    29  H    0.280268
    30  H    0.275635
    31  H    0.223607
    32  N    0.492006
    33  O   -0.459194
    34  O   -0.464611
 Sum of Mulliken charges =  -0.00000

 Dipole moment (field-independent basis, Debye):
    X=              0.3912    Y=              5.1043    Z=              0.2039  Tot=              5.1233
 Quadrupole moment (field-independent basis, Debye-Ang):
   XX=            -88.7547   YY=            -96.1165   ZZ=            -94.5781
   XY=             17.8399   XZ=              1.5008   YZ=             -0.6408

 Normal termination of Gaussian 16 at Thu May  6 07:18:26 2021.
