 Gaussian 16, Revision A.03,
 Gaussian 16:  EM64L-G16RevA.03 25-Dec-2016

 -------------
 #p 6-31g* mp2
 -------------

 ------------------------------------------------------
 Input file generated by CHIRIPA (05-May-2021 14:55:21)
 ------------------------------------------------------
 Symbolic Z-matrix:
 Charge =  0 Multiplicity = 1

                         Standard orientation:
 ---------------------------------------------------------------------
 Center     Atomic      Atomic             Coordinates (Angstroms)
 Number     Number       Type             X           Y           Z
 ---------------------------------------------------------------------
      1          6           0       -0.807787   -1.720982    1.249998
      2          6           0       -1.843057   -2.172358    0.424772
      3          6           0       -2.739906   -1.266353   -0.149132
      4          6           0       -2.571326    0.090072    0.124697
      5          6           0       -1.549976    0.570751    0.942672
      6          6           0       -0.664803   -0.353280    1.505863
      7          1           0       -0.115629   -2.431790    1.691659
      8          1           0       -1.956516   -3.233955    0.224315
      9          1           0       -3.550302   -1.588473   -0.791716
     10          1           0       -1.462331    1.635095    1.124074
     11          1           0        0.138265    0.000128    2.146355
     12          7           0       -3.514599    1.058761   -0.477198
     13          8           0       -3.344588    2.248630   -0.220401
     14          8           0       -4.406087    0.609807   -1.194365
     15          6           0        2.651562   -0.489816   -0.519138
     16          6           0        3.305476   -1.860182   -0.338927
     17          6           0        2.411471   -3.008166   -0.808695
     18          1           0        1.702811   -0.467705    0.034331
     19          1           0        2.398481   -0.348589   -1.579043
     20          1           0        3.558505   -1.998211    0.720102
     21          1           0        4.252874   -1.878969   -0.892733
     22          1           0        2.169122   -2.897967   -1.870638
     23          1           0        1.470808   -3.017886   -0.248640
     24          1           0        2.898467   -3.978565   -0.670774
     25          6           0        3.533048    0.667938   -0.054038
     26          6           0        2.879134    2.038305   -0.234249
     27          6           0        3.773139    3.186289    0.235518
     28          1           0        3.786129    0.526712    1.005867
     29          1           0        4.481798    0.645827   -0.607508
     30          1           0        1.931737    2.057091    0.319556
     31          1           0        2.626104    2.176334   -1.293278
     32          1           0        4.713802    3.196009   -0.324536
     33          1           0        4.015487    3.076089    1.297462
     34          1           0        3.286143    4.156687    0.097598
 ---------------------------------------------------------------------

 SCF Done:  E(RHF) =  -669.534257207     A.U. after   15 cycles
 E2 =    -0.2094296994D+01 EUMP2 =    -0.67162855420072D+03

 The electronic state is 1-A.
 Alpha  occ. eigenvalues --  -20.60829 -20.60824 -15.85884 -11.31291 -11.27866
 Alpha  occ. eigenvalues --  -11.27857 -11.27608 -11.26889 -11.26878 -11.22215
 Alpha  occ. eigenvalues --  -11.22047 -11.21865 -11.21767 -11.21741 -11.21417
 Alpha  occ. eigenvalues --   -1.59903  -1.39455  -1.19478  -1.08974  -1.08833
 Alpha  occ. eigenvalues --   -1.04886  -1.04055  -0.96494  -0.95693  -0.87515
 Alpha  occ. eigenvalues --   -0.86282  -0.82521  -0.80113  -0.78738  -0.77551
 Alpha  occ. eigenvalues --   -0.72103  -0.71226  -0.70601  -0.65666  -0.65129
 Alpha  occ. eigenvalues --   -0.64833  -0.62222  -0.61482  -0.59855  -0.58097
 Alpha  occ. eigenvalues --   -0.55922  -0.55282  -0.53298  -0.53154  -0.52976
 Alpha  occ. eigenvalues --   -0.52897  -0.50458  -0.48864  -0.48854  -0.48419
 Alpha  occ. eigenvalues --   -0.47166  -0.46267  -0.46212  -0.44851  -0.44279
 Alpha  occ. eigenvalues --   -0.37355  -0.36422
 Alpha virt. eigenvalues --    0.04919   0.11031   0.16241   0.19610   0.22897
 Alpha virt. eigenvalues --    0.23485   0.25785   0.26461   0.27027   0.28142
 Alpha virt. eigenvalues --    0.29275   0.30591   0.31111   0.31652   0.32059

 Mulliken charges:
               1
     1  C   -0.168166
     2  C   -0.218116
     3  C   -0.170302
     4  C    0.158890
     5  C   -0.170848
     6  C   -0.220967
     7  H    0.227276
     8  H    0.224744
     9  H    0.276243
    10  H    0.276341
    11  H    0.225143
    12  N    0.488062
    13  O   -0.459973
    14  O   -0.460086
    15  C   -0.307559
    16  C   -0.299735
    17  C   -0.477353
    18  H    0.155934
    19  H    0.152568
    20  H    0.146933
    21  H    0.155006
    22  H    0.159510
    23  H    0.147377
    24  H    0.160495
    25  C   -0.298488
    26  C   -0.298417
    27  C   -0.476174
    28  H    0.145046
    29  H    0.151792
    30  H    0.144884
    31  H    0.156404
    32  H    0.156886
    33  H    0.153432
    34  H    0.163218
 Sum of Mulliken charges =  -0.00000

 Dipole moment (field-independent basis, Debye):
    X=              3.2496    Y=             -3.3576    Z=              2.0329  Tot=              5.0957
 Quadrupole moment (field-independent basis, Debye-Ang):
   XX=           -111.3248   YY=            -93.7037   ZZ=            -92.9795
   XY=             11.0598   XZ=             -4.6550   YZ=              1.3101

 Normal termination of Gaussian 16 at Thu May  6 07:48:24 2021.
