 Gaussian 16, Revision A.03,
 Gaussian 16:  EM64L-G16RevA.03 25-Dec-2016

 -------------
 #p 6-31g* mp2
 -------------

 ------------------------------------------------------
 Input file generated by CHIRIPA (05-May-2021 14:55:19)
 ------------------------------------------------------
 Symbolic Z-matrix:
 Charge =  0 Multiplicity = 1

                         Standard orientation:
 ---------------------------------------------------------------------
 Center     Atomic      Atomic             Coordinates (Angstroms)
 Number     Number       Type             X           Y           Z
 ---------------------------------------------------------------------
      1          6           0       -1.580394    1.086940   -0.371062
      2          6           0       -1.608922   -0.215620    0.137901
      3          6           0       -2.824274   -0.886006    0.305383
      4          6           0       -3.997319   -0.220867   -0.047951
      5          6           0       -4.001645    1.076670   -0.557528
      6          6           0       -2.774741    1.727798   -0.716543
      7          1           0       -0.631792    1.600232   -0.497878
      8          1           0       -0.682940   -0.715782    0.407050
      9          1           0       -2.875256   -1.894613    0.697214
     10          1           0       -4.941192    1.549297   -0.816937
     11          1           0       -2.755615    2.739362   -1.112041
     12          7           0       -5.290073   -0.920382    0.124874
     13          8           0       -6.309612   -0.312478   -0.193921
     14          8           0       -5.259315   -2.063319    0.575855
     15          6           0        4.154639    0.408012   -0.086453
     16          6           0        3.627442    1.444394    0.906502
     17          6           0        2.247665    1.980939    0.524229
     18          1           0        4.199187    0.858233   -1.087583
     19          1           0        3.440916   -0.425042   -0.149843
     20          1           0        4.342619    2.274592    0.969038
     21          1           0        3.584325    0.991712    1.905420
     22          1           0        1.516419    1.167310    0.480777
     23          1           0        2.279021    2.457479   -0.460924
     24          1           0        1.889918    2.720339    1.247528
     25          6           0        5.533060   -0.137729    0.282125
     26          6           0        6.060258   -1.174112   -0.710830
     27          6           0        7.440034   -1.710656   -0.328557
     28          1           0        6.246783    0.695323    0.345516
     29          1           0        5.488512   -0.587951    1.283255
     30          1           0        6.103375   -0.721429   -1.709748
     31          1           0        5.345081   -2.004309   -0.773365
     32          1           0        7.408678   -2.187198    0.656597
     33          1           0        8.171281   -0.897028   -0.285105
     34          1           0        7.797781   -2.450057   -1.051856
 ---------------------------------------------------------------------

 SCF Done:  E(RHF) =  -669.535375354     A.U. after   15 cycles
 E2 =    -0.2091125356D+01 EUMP2 =    -0.67162650070992D+03

 The electronic state is 1-A.
 Alpha  occ. eigenvalues --  -20.60703 -20.60698 -15.85758 -11.31102 -11.27686
 Alpha  occ. eigenvalues --  -11.27676 -11.27341 -11.26684 -11.26662 -11.22611
 Alpha  occ. eigenvalues --  -11.22448 -11.22254 -11.22166 -11.22042 -11.21528
 Alpha  occ. eigenvalues --   -1.59780  -1.39334  -1.19275  -1.09233  -1.08665
 Alpha  occ. eigenvalues --   -1.04682  -1.04363  -0.96846  -0.95503  -0.87872
 Alpha  occ. eigenvalues --   -0.86077  -0.82345  -0.80448  -0.79003  -0.77399
 Alpha  occ. eigenvalues --   -0.71976  -0.71103  -0.70380  -0.65864  -0.64926
 Alpha  occ. eigenvalues --   -0.64699  -0.62050  -0.61744  -0.60215  -0.58432
 Alpha  occ. eigenvalues --   -0.56171  -0.55192  -0.53509  -0.53222  -0.53003
 Alpha  occ. eigenvalues --   -0.52773  -0.50783  -0.48760  -0.48732  -0.48714
 Alpha  occ. eigenvalues --   -0.47457  -0.46554  -0.46449  -0.44744  -0.44593
 Alpha  occ. eigenvalues --   -0.37238  -0.36292
 Alpha virt. eigenvalues --    0.05144   0.11355   0.16637   0.19882   0.22236
 Alpha virt. eigenvalues --    0.23663   0.25212   0.25822   0.26742   0.27393
 Alpha virt. eigenvalues --    0.29107   0.29565   0.30786   0.31310   0.31756

 Mulliken charges:
               1
     1  C   -0.175672
     2  C   -0.221878
     3  C   -0.170788
     4  C    0.157957
     5  C   -0.170650
     6  C   -0.220040
     7  H    0.236614
     8  H    0.222523
     9  H    0.275171
    10  H    0.275233
    11  H    0.223408
    12  N    0.488093
    13  O   -0.460664
    14  O   -0.460790
    15  C   -0.298463
    16  C   -0.300388
    17  C   -0.481490
    18  H    0.150800
    19  H    0.146490
    20  H    0.156315
    21  H    0.155039
    22  H    0.146214
    23  H    0.155906
    24  H    0.165547
    25  C   -0.298970
    26  C   -0.300141
    27  C   -0.476161
    28  H    0.151270
    29  H    0.150886
    30  H    0.152644
    31  H    0.152000
    32  H    0.155986
    33  H    0.156033
    34  H    0.161964
 Sum of Mulliken charges =  -0.00000

 Dipole moment (field-independent basis, Debye):
    X=              4.8452    Y=              2.5140    Z=             -0.5849  Tot=              5.4898
 Quadrupole moment (field-independent basis, Debye-Ang):
   XX=           -130.3571   YY=            -92.3857   ZZ=            -94.5385
   XY=            -12.2803   XZ=              2.9431   YZ=             -1.9401

 Normal termination of Gaussian 16 at Thu May  6 04:28:58 2021.
