 Gaussian 16, Revision A.03,
 Gaussian 16:  EM64L-G16RevA.03 25-Dec-2016

 -------------
 #p 6-31g* mp2
 -------------

 ------------------------------------------------------
 Input file generated by CHIRIPA (05-May-2021 14:55:18)
 ------------------------------------------------------
 Symbolic Z-matrix:
 Charge =  0 Multiplicity = 1

                         Standard orientation:
 ---------------------------------------------------------------------
 Center     Atomic      Atomic             Coordinates (Angstroms)
 Number     Number       Type             X           Y           Z
 ---------------------------------------------------------------------
      1          6           0        3.891613   -2.444843   -0.018742
      2          6           0        4.726141   -1.332359    0.131130
      3          6           0        4.193615   -0.039705    0.127680
      4          6           0        2.815903    0.104478   -0.028559
      5          6           0        1.958357   -0.984078   -0.180050
      6          6           0        2.512815   -2.267465   -0.173581
      7          1           0        4.313811   -3.445408   -0.014889
      8          1           0        5.797302   -1.467103    0.251562
      9          1           0        4.816662    0.839049    0.241790
     10          1           0        0.894452   -0.818044   -0.298184
     11          1           0        1.862297   -3.129601   -0.290174
     12          7           0        2.240532    1.468047   -0.033809
     13          8           0        1.023490    1.568298   -0.173075
     14          8           0        3.017494    2.410743    0.101441
     15          6           0       -3.858443   -0.521756    0.366015
     16          6           0       -4.809679   -1.411979   -0.434384
     17          6           0       -5.065362   -2.760280    0.239786
     18          1           0       -2.905130   -1.049032    0.507853
     19          1           0       -4.277186   -0.357887    1.368609
     20          1           0       -4.389935   -1.572985   -1.435637
     21          1           0       -5.760772   -0.882446   -0.574498
     22          1           0       -5.506777   -2.617588    1.231448
     23          1           0       -4.128151   -3.312052    0.365416
     24          1           0       -5.747947   -3.380669   -0.349328
     25          6           0       -3.593029    0.829607   -0.295121
     26          6           0       -2.641793    1.719830    0.505279
     27          6           0       -2.386109    3.068131   -0.168891
     28          1           0       -3.174286    0.665738   -1.297715
     29          1           0       -4.546342    1.356884   -0.436958
     30          1           0       -1.690700    1.190297    0.645393
     31          1           0       -3.061536    1.880837    1.506532
     32          1           0       -3.323321    3.619903   -0.294521
     33          1           0       -1.944695    2.925439   -1.160553
     34          1           0       -1.703524    3.688521    0.420223
 ---------------------------------------------------------------------

 SCF Done:  E(RHF) =  -669.535957802     A.U. after   15 cycles
 E2 =    -0.2091391000D+01 EUMP2 =    -0.67162734880201D+03

 The electronic state is 1-A.
 Alpha  occ. eigenvalues --  -20.60946 -20.60938 -15.85982 -11.31306 -11.27877
 Alpha  occ. eigenvalues --  -11.27865 -11.27605 -11.26878 -11.26868 -11.21396
 Alpha  occ. eigenvalues --  -11.21043 -11.21003 -11.20693 -11.20444 -11.19697
 Alpha  occ. eigenvalues --   -1.60007  -1.39564  -1.19475  -1.08877  -1.07871
 Alpha  occ. eigenvalues --   -1.04873  -1.02843  -0.95723  -0.95308  -0.86336
 Alpha  occ. eigenvalues --   -0.86272  -0.82556  -0.78990  -0.77673  -0.77538
 Alpha  occ. eigenvalues --   -0.72212  -0.71322  -0.70585  -0.65138  -0.64876
 Alpha  occ. eigenvalues --   -0.64504  -0.62222  -0.60219  -0.58761  -0.56884
 Alpha  occ. eigenvalues --   -0.55375  -0.54608  -0.53203  -0.52965  -0.51979
 Alpha  occ. eigenvalues --   -0.51743  -0.49317  -0.48963  -0.48926  -0.47275
 Alpha  occ. eigenvalues --   -0.46060  -0.45197  -0.45116  -0.44801  -0.43118
 Alpha  occ. eigenvalues --   -0.37452  -0.36474
 Alpha virt. eigenvalues --    0.04908   0.11179   0.16396   0.20793   0.23019
 Alpha virt. eigenvalues --    0.24744   0.26044   0.27451   0.27730   0.28566
 Alpha virt. eigenvalues --    0.29045   0.30855   0.31707   0.32155   0.33054

 Mulliken charges:
               1
     1  C   -0.170567
     2  C   -0.218535
     3  C   -0.170777
     4  C    0.157911
     5  C   -0.170839
     6  C   -0.218598
     7  H    0.226096
     8  H    0.223893
     9  H    0.275901
    10  H    0.275491
    11  H    0.223952
    12  N    0.493388
    13  O   -0.465157
    14  O   -0.458956
    15  C   -0.295735
    16  C   -0.299090
    17  C   -0.474680
    18  H    0.141996
    19  H    0.149478
    20  H    0.150118
    21  H    0.152852
    22  H    0.155594
    23  H    0.150984
    24  H    0.159313
    25  C   -0.298259
    26  C   -0.304664
    27  C   -0.470020
    28  H    0.147998
    29  H    0.147568
    30  H    0.165807
    31  H    0.145687
    32  H    0.145132
    33  H    0.159178
    34  H    0.167539
 Sum of Mulliken charges =  -0.00000

 Dipole moment (field-independent basis, Debye):
    X=              2.3072    Y=             -4.7010    Z=              0.0138  Tot=              5.2367
 Quadrupole moment (field-independent basis, Debye-Ang):
   XX=            -79.3664   YY=            -96.4388   ZZ=            -95.5609
   XY=            -12.1413   XZ=              0.4002   YZ=              1.0029

 Normal termination of Gaussian 16 at Thu May  6 01:16:34 2021.
