 Gaussian 16, Revision A.03,
 Gaussian 16:  EM64L-G16RevA.03 25-Dec-2016

 -------------
 #p 6-31g* mp2
 -------------

 ------------------------------------------------------
 Input file generated by CHIRIPA (05-May-2021 14:57:24)
 ------------------------------------------------------
 Symbolic Z-matrix:
 Charge =  0 Multiplicity = 1

                         Standard orientation:
 ---------------------------------------------------------------------
 Center     Atomic      Atomic             Coordinates (Angstroms)
 Number     Number       Type             X           Y           Z
 ---------------------------------------------------------------------
      1          6           0        1.603583    2.271799    0.812077
      2          6           0        1.824936    1.281337    1.774630
      3          6           0        2.498689    0.103180    1.439142
      4          6           0        2.939398   -0.052180    0.125776
      5          6           0        2.734165    0.916235   -0.855724
      6          6           0        2.058103    2.086414   -0.497719
      7          1           0        1.079299    3.183921    1.081439
      8          1           0        1.473073    1.422596    2.792610
      9          1           0        2.683560   -0.679845    2.164478
     10          1           0        3.096751    0.746823   -1.862327
     11          1           0        1.887612    2.853917   -1.247329
     12          7           0        3.653892   -1.295219   -0.241309
     13          8           0        4.032169   -1.407947   -1.405283
     14          8           0        3.822107   -2.133248    0.641895
     15          6           0       -2.264652    2.272183   -0.605426
     16          6           0       -1.388669    1.268799   -1.032503
     17          6           0       -1.687076   -0.078061   -0.805643
     18          6           0       -2.875488   -0.387115   -0.145755
     19          6           0       -3.768526    0.589751    0.291857
     20          6           0       -3.449696    1.930061    0.054228
     21          1           0       -2.024908    3.315912   -0.785839
     22          1           0       -0.467633    1.531554   -1.545044
     23          1           0       -1.026808   -0.874992   -1.125592
     24          1           0       -4.679133    0.296820    0.800192
     25          1           0       -4.131871    2.707189    0.387021
     26          7           0       -3.202209   -1.809509    0.100112
     27          8           0       -4.255557   -2.055611    0.683661
     28          8           0       -2.398759   -2.651346   -0.295383
 ---------------------------------------------------------------------

 SCF Done:  E(RHF) =  -868.335391116     A.U. after   16 cycles
 E2 =    -0.2602863406D+01 EUMP2 =    -0.87093825452151D+03

 The electronic state is 1-A.
 Alpha  occ. eigenvalues --  -20.61173 -20.61152 -20.60938 -20.60921 -15.86230
 Alpha  occ. eigenvalues --  -15.85985 -11.31825 -11.31477 -11.28487 -11.28372
 Alpha  occ. eigenvalues --  -11.28229 -11.28033 -11.27979 -11.27863 -11.27557
 Alpha  occ. eigenvalues --  -11.27396 -11.27143 -11.27027  -1.60237  -1.60006
 Alpha  occ. eigenvalues --   -1.39784  -1.39554  -1.20043  -1.19651  -1.09398
 Alpha  occ. eigenvalues --   -1.09045  -1.05489  -1.05050  -0.96177  -0.95859
 Alpha  occ. eigenvalues --   -0.86891  -0.86448  -0.83012  -0.82673  -0.78019
 Alpha  occ. eigenvalues --   -0.77688  -0.72440  -0.72199  -0.71569  -0.71333
 Alpha  occ. eigenvalues --   -0.71134  -0.70799  -0.65688  -0.65553  -0.65302
 Alpha  occ. eigenvalues --   -0.65043  -0.62818  -0.62401  -0.55976  -0.55639
 Alpha  occ. eigenvalues --   -0.54070  -0.53571  -0.53308  -0.52932  -0.49219
 Alpha  occ. eigenvalues --   -0.49181  -0.48971  -0.48948  -0.45139  -0.44931
 Alpha  occ. eigenvalues --   -0.38329  -0.37517  -0.37085  -0.36447
 Alpha virt. eigenvalues --    0.04478   0.04832   0.10314   0.11164   0.15850
 Alpha virt. eigenvalues --    0.16256   0.19814   0.21797   0.25834   0.26914
 Alpha virt. eigenvalues --    0.27807   0.28766   0.29763   0.31349   0.31875

 Mulliken charges:
               1
     1  C   -0.163623
     2  C   -0.217137
     3  C   -0.168120
     4  C    0.158634
     5  C   -0.174706
     6  C   -0.231272
     7  H    0.224030
     8  H    0.227102
     9  H    0.280435
    10  H    0.277136
    11  H    0.219844
    12  N    0.488176
    13  O   -0.459739
    14  O   -0.455526
    15  C   -0.178092
    16  C   -0.211861
    17  C   -0.173467
    18  C    0.158936
    19  C   -0.172368
    20  C   -0.218181
    21  H    0.219188
    22  H    0.223038
    23  H    0.278498
    24  H    0.276089
    25  H    0.222780
    26  N    0.487553
    27  O   -0.460421
    28  O   -0.456926
 Sum of Mulliken charges =  -0.00000

 Dipole moment (field-independent basis, Debye):
    X=             -1.1895    Y=              9.1293    Z=              0.6206  Tot=              9.2274
 Quadrupole moment (field-independent basis, Debye-Ang):
   XX=           -123.3601   YY=           -109.7526   ZZ=            -99.3930
   XY=             -3.0711   XZ=              3.4219   YZ=             -0.7712

 Normal termination of Gaussian 16 at Thu May  6 05:03:35 2021.
