 Gaussian 16, Revision A.03,
 Gaussian 16:  EM64L-G16RevA.03 25-Dec-2016

 -------------
 #p 6-31g* mp2
 -------------

 ------------------------------------------------------
 Input file generated by CHIRIPA (05-May-2021 14:51:13)
 ------------------------------------------------------
 Symbolic Z-matrix:
 Charge =  0 Multiplicity = 1

                         Standard orientation:
 ---------------------------------------------------------------------
 Center     Atomic      Atomic             Coordinates (Angstroms)
 Number     Number       Type             X           Y           Z
 ---------------------------------------------------------------------
      1          6           0       -2.894501    0.162089    0.843653
      2          6           0       -1.432100   -0.230870    0.631633
      3          6           0       -0.531437    0.194907    1.791510
      4          1           0       -2.959122    1.250342    0.979574
      5          1           0       -3.257266   -0.291496    1.776421
      6          1           0       -1.072609    0.222190   -0.301168
      7          1           0       -1.370974   -1.318292    0.496010
      8          1           0       -0.862782   -0.268128    2.726609
      9          1           0       -0.562722    1.281107    1.924901
     10          1           0        0.509519   -0.095895    1.619164
     11          6           0       -3.807358   -0.256772   -0.307423
     12          6           0       -5.269758    0.136188   -0.095403
     13          6           0       -6.170421   -0.289590   -1.255279
     14          1           0       -3.444592    0.196814   -1.240191
     15          1           0       -3.742736   -1.345025   -0.443343
     16          1           0       -5.330884    1.223610    0.040220
     17          1           0       -5.629249   -0.316872    0.837399
     18          1           0       -6.139137   -1.375789   -1.388670
     19          1           0       -5.839076    0.173445   -2.190378
     20          1           0       -7.211378    0.001212   -1.082934
     21          6           0        3.667126   -0.598390   -0.525958
     22          6           0        3.160550   -1.850127    0.191344
     23          6           0        3.802365   -3.133948   -0.335602
     24          1           0        3.468274   -0.694461   -1.602142
     25          1           0        4.758474   -0.536515   -0.414053
     26          1           0        2.070316   -1.908883    0.079293
     27          1           0        3.360458   -1.750981    1.265971
     28          1           0        4.889351   -3.101245   -0.209139
     29          1           0        3.591880   -3.260043   -1.402558
     30          1           0        3.425941   -4.016435    0.191068
     31          6           0        3.034733    0.693073   -0.010273
     32          6           0        3.541308    1.944809   -0.727574
     33          6           0        2.899493    3.228630   -0.200629
     34          1           0        1.943383    0.631197   -0.122178
     35          1           0        3.233584    0.789144    1.065912
     36          1           0        3.341400    1.845664   -1.802201
     37          1           0        4.631541    2.003565   -0.615524
     38          1           0        3.109978    3.354726    0.866328
     39          1           0        1.812507    3.195927   -0.327092
     40          1           0        3.275918    4.111117   -0.727299
 ---------------------------------------------------------------------

 SCF Done:  E(RHF) =  -470.732897349     A.U. after   11 cycles
 E2 =    -0.1583454717D+01 EUMP2 =    -0.47231635206535D+03

 The electronic state is 1-A.
 Alpha  occ. eigenvalues --  -11.21628 -11.21617 -11.21606 -11.21603 -11.21411
 Alpha  occ. eigenvalues --  -11.21402 -11.21351 -11.21333 -11.21089 -11.21077
 Alpha  occ. eigenvalues --  -11.21073 -11.20942  -1.08463  -1.08415  -1.03541
 Alpha  occ. eigenvalues --   -1.03521  -0.96017  -0.95936  -0.87023  -0.86962
 Alpha  occ. eigenvalues --   -0.79619  -0.79578  -0.78277  -0.78244  -0.65116
 Alpha  occ. eigenvalues --   -0.65032  -0.60981  -0.60878  -0.59374  -0.59344
 Alpha  occ. eigenvalues --   -0.57734  -0.57458  -0.55302  -0.55217  -0.52804
 Alpha  occ. eigenvalues --   -0.52613  -0.52449  -0.52293  -0.49930  -0.49902
 Alpha  occ. eigenvalues --   -0.47931  -0.47908  -0.46658  -0.46608  -0.45799
 Alpha  occ. eigenvalues --   -0.45768  -0.45732  -0.45651  -0.43815  -0.43693
 Alpha virt. eigenvalues --    0.20989   0.23154   0.23903   0.23975   0.26201
 Alpha virt. eigenvalues --    0.26373   0.26699   0.27578   0.27821   0.29798
 Alpha virt. eigenvalues --    0.30144   0.31344   0.31649   0.31826   0.31963

 Mulliken charges:
               1
     1  C   -0.298091
     2  C   -0.301429
     3  C   -0.483039
     4  H    0.149790
     5  H    0.149878
     6  H    0.151011
     7  H    0.151779
     8  H    0.154580
     9  H    0.154675
    10  H    0.169584
    11  C   -0.298276
    12  C   -0.299663
    13  C   -0.475705
    14  H    0.149257
    15  H    0.149594
    16  H    0.151985
    17  H    0.151997
    18  H    0.155169
    19  H    0.155128
    20  H    0.160296
    21  C   -0.297654
    22  C   -0.302672
    23  C   -0.475634
    24  H    0.149512
    25  H    0.149506
    26  H    0.154156
    27  H    0.152052
    28  H    0.155345
    29  H    0.155328
    30  H    0.160341
    31  C   -0.304890
    32  C   -0.299234
    33  C   -0.475634
    34  H    0.157150
    35  H    0.149745
    36  H    0.151683
    37  H    0.151878
    38  H    0.155477
    39  H    0.154865
    40  H    0.160162
 Sum of Mulliken charges =  -0.00000

 Dipole moment (field-independent basis, Debye):
    X=              0.0264    Y=             -0.0050    Z=              0.0016  Tot=              0.0269
 Quadrupole moment (field-independent basis, Debye-Ang):
   XX=            -84.9441   YY=            -85.0535   ZZ=            -84.7700
   XY=              0.4050   XZ=             -0.0196   YZ=             -0.8109

 Normal termination of Gaussian 16 at Thu May  6 00:48:08 2021.
