 Gaussian 16, Revision A.03,
 Gaussian 16:  EM64L-G16RevA.03 25-Dec-2016

 -------------
 #p 6-31g* mp2
 -------------

 ------------------------------------------------------
 Input file generated by CHIRIPA (05-May-2021 14:51:12)
 ------------------------------------------------------
 Symbolic Z-matrix:
 Charge =  0 Multiplicity = 1

                         Standard orientation:
 ---------------------------------------------------------------------
 Center     Atomic      Atomic             Coordinates (Angstroms)
 Number     Number       Type             X           Y           Z
 ---------------------------------------------------------------------
      1          6           0       -2.501483    0.645326   -0.249672
      2          6           0       -2.973723    1.988990   -0.806037
      3          6           0       -1.976437    3.118934   -0.548276
      4          1           0       -2.327783    0.743657    0.830654
      5          1           0       -1.532291    0.390083   -0.700131
      6          1           0       -3.942395    2.240960   -0.355702
      7          1           0       -3.146503    1.887398   -1.885130
      8          1           0       -1.010638    2.893593   -1.012016
      9          1           0       -1.811052    3.249163    0.526103
     10          1           0       -2.333973    4.070352   -0.954273
     11          6           0       -3.487810   -0.494175   -0.499521
     12          6           0       -3.015570   -1.837839    0.056843
     13          6           0       -4.012856   -2.967784   -0.200917
     14          1           0       -4.457002   -0.238932   -0.049063
     15          1           0       -3.661511   -0.592506   -1.579847
     16          1           0       -2.842790   -1.736247    1.135937
     17          1           0       -2.046898   -2.089809   -0.393491
     18          1           0       -4.178241   -3.098012   -1.275296
     19          1           0       -4.978655   -2.742442    0.262822
     20          1           0       -3.655321   -3.919201    0.205080
     21          6           0        3.491563   -0.572133    0.074701
     22          6           0        4.632529    0.099098   -0.690562
     23          6           0        5.618389   -0.907353   -1.284641
     24          1           0        3.912347   -1.192995    0.877456
     25          1           0        2.957730   -1.254594   -0.601068
     26          1           0        5.163191    0.781130   -0.013918
     27          1           0        4.208971    0.718586   -1.491469
     28          1           0        5.108566   -1.580915   -1.981057
     29          1           0        6.068209   -1.518016   -0.495113
     30          1           0        6.425843   -0.405986   -1.827328
     31          6           0        2.497731    0.420982    0.674492
     32          6           0        1.356764   -0.250249    1.439756
     33          6           0        0.370904    0.756203    2.033834
     34          1           0        3.031564    1.103444    1.350261
     35          1           0        2.076946    1.041845   -0.128263
     36          1           0        1.780322   -0.869737    2.240662
     37          1           0        0.826102   -0.932281    0.763112
     38          1           0       -0.078916    1.366866    1.244306
     39          1           0        0.880726    1.429764    2.730251
     40          1           0       -0.436550    0.254835    2.576521
 ---------------------------------------------------------------------

 SCF Done:  E(RHF) =  -470.731616237     A.U. after   11 cycles
 E2 =    -0.1584632985D+01 EUMP2 =    -0.47231624922125D+03

 The electronic state is 1-A.
 Alpha  occ. eigenvalues --  -11.21622 -11.21614 -11.21591 -11.21527 -11.21381
 Alpha  occ. eigenvalues --  -11.21378 -11.21320 -11.21289 -11.21121 -11.21084
 Alpha  occ. eigenvalues --  -11.21065 -11.20868  -1.08467  -1.08370  -1.03576
 Alpha  occ. eigenvalues --   -1.03461  -0.96017  -0.95917  -0.87045  -0.86937
 Alpha  occ. eigenvalues --   -0.79713  -0.79482  -0.78296  -0.78165  -0.65077
 Alpha  occ. eigenvalues --   -0.65027  -0.60974  -0.60890  -0.59397  -0.59300
 Alpha  occ. eigenvalues --   -0.57687  -0.57464  -0.55302  -0.55235  -0.52721
 Alpha  occ. eigenvalues --   -0.52647  -0.52425  -0.52329  -0.49992  -0.49908
 Alpha  occ. eigenvalues --   -0.48039  -0.47765  -0.46690  -0.46601  -0.45900
 Alpha  occ. eigenvalues --   -0.45765  -0.45606  -0.45339  -0.43795  -0.43709
 Alpha virt. eigenvalues --    0.20823   0.23036   0.23359   0.24190   0.25145
 Alpha virt. eigenvalues --    0.26295   0.26694   0.27915   0.28446   0.29665
 Alpha virt. eigenvalues --    0.30504   0.31263   0.31512   0.31676   0.32418

 Mulliken charges:
               1
     1  C   -0.304511
     2  C   -0.298478
     3  C   -0.479137
     4  H    0.157766
     5  H    0.149112
     6  H    0.151969
     7  H    0.151542
     8  H    0.154379
     9  H    0.157666
    10  H    0.161049
    11  C   -0.297665
    12  C   -0.300319
    13  C   -0.475712
    14  H    0.149359
    15  H    0.149095
    16  H    0.152026
    17  H    0.151873
    18  H    0.155216
    19  H    0.155288
    20  H    0.160350
    21  C   -0.298180
    22  C   -0.299589
    23  C   -0.475672
    24  H    0.149758
    25  H    0.149054
    26  H    0.152019
    27  H    0.151713
    28  H    0.155042
    29  H    0.155209
    30  H    0.160215
    31  C   -0.298663
    32  C   -0.300995
    33  C   -0.482096
    34  H    0.149741
    35  H    0.148965
    36  H    0.151528
    37  H    0.152820
    38  H    0.166908
    39  H    0.153222
    40  H    0.158135
 Sum of Mulliken charges =  -0.00000

 Dipole moment (field-independent basis, Debye):
    X=             -0.0429    Y=              0.0254    Z=              0.0058  Tot=              0.0502
 Quadrupole moment (field-independent basis, Debye-Ang):
   XX=            -85.3165   YY=            -85.9400   ZZ=            -83.6162
   XY=             -0.2290   XZ=              0.2947   YZ=             -0.1624

 Normal termination of Gaussian 16 at Wed May  5 21:30:40 2021.
