 Gaussian 16, Revision A.03,
 Gaussian 16:  EM64L-G16RevA.03 25-Dec-2016

 -------------
 #p 6-31g* mp2
 -------------

 ------------------------------------------------------
 Input file generated by CHIRIPA (05-May-2021 14:57:23)
 ------------------------------------------------------
 Symbolic Z-matrix:
 Charge =  0 Multiplicity = 1

                         Standard orientation:
 ---------------------------------------------------------------------
 Center     Atomic      Atomic             Coordinates (Angstroms)
 Number     Number       Type             X           Y           Z
 ---------------------------------------------------------------------
      1          6           0        1.009999   -2.023103   -0.260247
      2          6           0        0.840092   -0.694214   -0.662373
      3          6           0        1.907218    0.207129   -0.604331
      4          6           0        3.135998   -0.256412   -0.136868
      5          6           0        3.336737   -1.574248    0.270934
      6          6           0        2.255584   -2.458112    0.204304
      7          1           0        0.175581   -2.716499   -0.308671
      8          1           0       -0.126115   -0.353594   -1.023577
      9          1           0        1.803438    1.241355   -0.909331
     10          1           0        4.311816   -1.884430    0.626498
     11          1           0        2.390446   -3.489574    0.517263
     12          7           0        4.273142    0.688548   -0.070877
     13          8           0        5.345637    0.255376    0.344759
     14          8           0        4.070408    1.844486   -0.436037
     15          6           0       -4.222613   -1.733558   -0.224675
     16          6           0       -3.547434   -1.520726    0.981707
     17          6           0       -2.838325   -0.335609    1.198989
     18          6           0       -2.825414    0.619592    0.183749
     19          6           0       -3.488128    0.436914   -1.028988
     20          6           0       -4.190861   -0.755783   -1.224409
     21          1           0       -4.770990   -2.657129   -0.384975
     22          1           0       -3.570362   -2.278323    1.759888
     23          1           0       -2.306814   -0.144926    2.123410
     24          1           0       -3.447023    1.210621   -1.786024
     25          1           0       -4.714290   -0.918354   -2.162299
     26          7           0       -2.078087    1.878234    0.402205
     27          8           0       -2.082118    2.704151   -0.508005
     28          8           0       -1.502450    2.015007    1.479503
 ---------------------------------------------------------------------

 SCF Done:  E(RHF) =  -868.337371302     A.U. after   16 cycles
 E2 =    -0.2601178577D+01 EUMP2 =    -0.87093854987890D+03

 The electronic state is 1-A.
 Alpha  occ. eigenvalues --  -20.61588 -20.61557 -20.60363 -20.60335 -15.86627
 Alpha  occ. eigenvalues --  -15.85408 -11.32131 -11.30838 -11.28707 -11.28679
 Alpha  occ. eigenvalues --  -11.28435 -11.27717 -11.27703 -11.27477 -11.27367
 Alpha  occ. eigenvalues --  -11.27273 -11.26530 -11.26452  -1.60660  -1.59426
 Alpha  occ. eigenvalues --   -1.40200  -1.38976  -1.20327  -1.19042  -1.09683
 Alpha  occ. eigenvalues --   -1.08443  -1.05713  -1.04456  -0.96484  -0.95255
 Alpha  occ. eigenvalues --   -0.87094  -0.85864  -0.83292  -0.82087  -0.78328
 Alpha  occ. eigenvalues --   -0.77108  -0.72819  -0.72029  -0.71628  -0.71366
 Alpha  occ. eigenvalues --   -0.70748  -0.70177  -0.65938  -0.65675  -0.64703
 Alpha  occ. eigenvalues --   -0.64493  -0.63026  -0.61800  -0.56176  -0.55012
 Alpha  occ. eigenvalues --   -0.54111  -0.53768  -0.52782  -0.52520  -0.49601
 Alpha  occ. eigenvalues --   -0.49578  -0.48399  -0.48371  -0.45563  -0.44366
 Alpha  occ. eigenvalues --   -0.38324  -0.37401  -0.36999  -0.36035
 Alpha virt. eigenvalues --    0.04162   0.05437   0.10220   0.11631   0.15629
 Alpha virt. eigenvalues --    0.16881   0.20596   0.21500   0.26514   0.27097
 Alpha virt. eigenvalues --    0.27519   0.28492   0.30152   0.31001   0.31771

 Mulliken charges:
               1
     1  C   -0.173086
     2  C   -0.222271
     3  C   -0.167148
     4  C    0.158234
     5  C   -0.170840
     6  C   -0.219206
     7  H    0.220830
     8  H    0.222443
     9  H    0.283600
    10  H    0.274695
    11  H    0.220338
    12  N    0.488007
    13  O   -0.462705
    14  O   -0.456645
    15  C   -0.172599
    16  C   -0.221867
    17  C   -0.171511
    18  C    0.151624
    19  C   -0.176694
    20  C   -0.218443
    21  H    0.228322
    22  H    0.225949
    23  H    0.279919
    24  H    0.278632
    25  H    0.226940
    26  N    0.486941
    27  O   -0.459308
    28  O   -0.454149
 Sum of Mulliken charges =  -0.00000

 Dipole moment (field-independent basis, Debye):
    X=             -6.7955    Y=             -7.5710    Z=             -0.9371  Tot=             10.2165
 Quadrupole moment (field-independent basis, Debye-Ang):
   XX=           -113.6262   YY=           -106.3851   ZZ=           -100.9484
   XY=             -0.9109   XZ=              4.0485   YZ=             -3.9592

 Normal termination of Gaussian 16 at Thu May  6 01:49:43 2021.
