 Gaussian 16, Revision A.03,
 Gaussian 16:  EM64L-G16RevA.03 25-Dec-2016

 -------------
 #p 6-31g* mp2
 -------------

 ------------------------------------------------------
 Input file generated by CHIRIPA (05-May-2021 14:57:24)
 ------------------------------------------------------
 Symbolic Z-matrix:
 Charge =  0 Multiplicity = 1

                         Standard orientation:
 ---------------------------------------------------------------------
 Center     Atomic      Atomic             Coordinates (Angstroms)
 Number     Number       Type             X           Y           Z
 ---------------------------------------------------------------------
      1          6           0        4.715172    1.701478    0.472977
      2          6           0        3.376359    1.778249    0.870729
      3          6           0        2.479119    0.756883    0.544662
      4          6           0        2.956838   -0.331660   -0.183451
      5          6           0        4.284810   -0.437067   -0.594143
      6          6           0        5.164333    0.596014   -0.256903
      7          1           0        5.405288    2.499450    0.730614
      8          1           0        3.024740    2.635578    1.437647
      9          1           0        1.437430    0.790800    0.839879
     10          1           0        4.605880   -1.304226   -1.158384
     11          1           0        6.203525    0.533718   -0.567134
     12          7           0        2.016348   -1.419136   -0.534558
     13          8           0        2.462075   -2.367565   -1.176778
     14          8           0        0.851274   -1.302479   -0.160886
     15          6           0       -2.723048   -2.137063    1.111980
     16          6           0       -3.613396   -1.976447    0.045207
     17          6           0       -3.836574   -0.712574   -0.509199
     18          6           0       -3.149429    0.373771    0.030223
     19          6           0       -2.256104    0.245986    1.092734
     20          6           0       -2.048433   -1.027291    1.631423
     21          1           0       -2.555700   -3.122523    1.536550
     22          1           0       -4.138698   -2.836520   -0.360224
     23          1           0       -4.520338   -0.559779   -1.335359
     24          1           0       -1.747085    1.122207    1.475558
     25          1           0       -1.356399   -1.149047    2.459861
     26          7           0       -3.377490    1.716755   -0.548382
     27          8           0       -2.759764    2.657906   -0.055142
     28          8           0       -4.169652    1.802804   -1.484177
 ---------------------------------------------------------------------

 SCF Done:  E(RHF) =  -868.338259304     A.U. after   16 cycles
 E2 =    -0.2600134528D+01 EUMP2 =    -0.87093839383174D+03

 The electronic state is 1-A.
 Alpha  occ. eigenvalues --  -20.61115 -20.61093 -20.60254 -20.60230 -15.86143
 Alpha  occ. eigenvalues --  -15.85289 -11.31420 -11.30384 -11.27997 -11.27962
 Alpha  occ. eigenvalues --  -11.27675 -11.26966 -11.26957 -11.26945 -11.26896
 Alpha  occ. eigenvalues --  -11.26551 -11.25885 -11.25872  -1.60184  -1.59322
 Alpha  occ. eigenvalues --   -1.39741  -1.38887  -1.19577  -1.18501  -1.08986
 Alpha  occ. eigenvalues --   -1.07942  -1.04965  -1.03894  -0.95841  -0.94840
 Alpha  occ. eigenvalues --   -0.86368  -0.85314  -0.82676  -0.81704  -0.77746
 Alpha  occ. eigenvalues --   -0.76796  -0.72377  -0.71525  -0.71499  -0.70685
 Alpha  occ. eigenvalues --   -0.70631  -0.69648  -0.65231  -0.64964  -0.64184
 Alpha  occ. eigenvalues --   -0.63933  -0.62324  -0.61297  -0.55460  -0.54395
 Alpha  occ. eigenvalues --   -0.53296  -0.53056  -0.52151  -0.52030  -0.49136
 Alpha  occ. eigenvalues --   -0.49118  -0.48291  -0.48247  -0.45170  -0.44356
 Alpha  occ. eigenvalues --   -0.37544  -0.36561  -0.36392  -0.35408
 Alpha virt. eigenvalues --    0.04777   0.05735   0.11093   0.12202   0.16312
 Alpha virt. eigenvalues --    0.17302   0.20677   0.22197   0.25913   0.27578
 Alpha virt. eigenvalues --    0.28615   0.29328   0.31058   0.31668   0.32200

 Mulliken charges:
               1
     1  C   -0.170321
     2  C   -0.218018
     3  C   -0.170010
     4  C    0.157987
     5  C   -0.170778
     6  C   -0.218367
     7  H    0.227085
     8  H    0.225879
     9  H    0.270990
    10  H    0.275652
    11  H    0.224299
    12  N    0.491163
    13  O   -0.460117
    14  O   -0.466132
    15  C   -0.164050
    16  C   -0.216395
    17  C   -0.171178
    18  C    0.159613
    19  C   -0.169567
    20  C   -0.199357
    21  H    0.224982
    22  H    0.221466
    23  H    0.272657
    24  H    0.263861
    25  H    0.218871
    26  N    0.488419
    27  O   -0.467186
    28  O   -0.461448
 Sum of Mulliken charges =  -0.00000

 Dipole moment (field-independent basis, Debye):
    X=              4.3143    Y=             -1.0979    Z=              3.2638  Tot=              5.5201
 Quadrupole moment (field-independent basis, Debye-Ang):
   XX=            -86.2411   YY=           -109.9504   ZZ=           -103.1354
   XY=             25.9141   XZ=             -2.8965   YZ=              2.2216

 Normal termination of Gaussian 16 at Fri May  7 03:27:20 2021.
