 Gaussian 16, Revision A.03,
 Gaussian 16:  EM64L-G16RevA.03 25-Dec-2016

 -------------
 #p 6-31g* mp2
 -------------

 ------------------------------------------------------
 Input file generated by CHIRIPA (05-May-2021 14:55:24)
 ------------------------------------------------------
 Symbolic Z-matrix:
 Charge =  0 Multiplicity = 1

                         Standard orientation:
 ---------------------------------------------------------------------
 Center     Atomic      Atomic             Coordinates (Angstroms)
 Number     Number       Type             X           Y           Z
 ---------------------------------------------------------------------
      1          6           0        0.457692   -1.330655    1.355557
      2          6           0        0.864473   -0.006354    1.548634
      3          6           0        2.007418    0.485440    0.911168
      4          6           0        2.723134   -0.378516    0.083751
      5          6           0        2.343382   -1.702885   -0.128676
      6          6           0        1.197141   -2.173208    0.518993
      7          1           0       -0.431456   -1.704353    1.854719
      8          1           0        0.292150    0.650250    2.197759
      9          1           0        2.344865    1.506314    1.042942
     10          1           0        2.934382   -2.333544   -0.781675
     11          1           0        0.883591   -3.202133    0.367191
     12          7           0        3.934864    0.130759   -0.596507
     13          8           0        4.548120   -0.650545   -1.320466
     14          8           0        4.248417    1.301591   -0.392853
     15          6           0       -2.530946    0.884757   -0.345738
     16          6           0       -2.409535    2.331920    0.132765
     17          6           0       -1.005222    2.903753   -0.063963
     18          1           0       -1.802056    0.264529    0.193687
     19          1           0       -2.258788    0.833440   -1.409078
     20          1           0       -2.683175    2.380719    1.194536
     21          1           0       -3.138931    2.948742   -0.407724
     22          1           0       -0.726104    2.884211   -1.122411
     23          1           0       -0.267759    2.312962    0.488953
     24          1           0       -0.940875    3.939168    0.284801
     25          6           0       -3.929026    0.299116   -0.155678
     26          6           0       -4.050437   -1.148046   -0.634181
     27          6           0       -5.454751   -1.719879   -0.437453
     28          1           0       -4.201185    0.350433    0.907662
     29          1           0       -4.657917    0.919345   -0.695103
     30          1           0       -3.321041   -1.764868   -0.093691
     31          1           0       -3.776797   -1.196845   -1.695952
     32          1           0       -6.192214   -1.129087   -0.990368
     33          1           0       -5.733868   -1.700337    0.620996
     34          1           0       -5.519098   -2.755294   -0.786218
 ---------------------------------------------------------------------

 SCF Done:  E(RHF) =  -669.533584015     A.U. after   15 cycles
 E2 =    -0.2094586866D+01 EUMP2 =    -0.67162817088036D+03

 The electronic state is 1-A.
 Alpha  occ. eigenvalues --  -20.60809 -20.60804 -15.85864 -11.31271 -11.27832
 Alpha  occ. eigenvalues --  -11.27827 -11.27591 -11.26866 -11.26855 -11.22236
 Alpha  occ. eigenvalues --  -11.22129 -11.21949 -11.21824 -11.21620 -11.21483
 Alpha  occ. eigenvalues --   -1.59883  -1.39435  -1.19457  -1.09005  -1.08829
 Alpha  occ. eigenvalues --   -1.04882  -1.04073  -0.96514  -0.95668  -0.87530
 Alpha  occ. eigenvalues --   -0.86264  -0.82511  -0.80147  -0.78801  -0.77538
 Alpha  occ. eigenvalues --   -0.72083  -0.71206  -0.70564  -0.65702  -0.65118
 Alpha  occ. eigenvalues --   -0.64841  -0.62301  -0.61426  -0.59872  -0.58119
 Alpha  occ. eigenvalues --   -0.55846  -0.55340  -0.53287  -0.53173  -0.52976
 Alpha  occ. eigenvalues --   -0.52883  -0.50471  -0.48845  -0.48834  -0.48442
 Alpha  occ. eigenvalues --   -0.47198  -0.46327  -0.46271  -0.44831  -0.44317
 Alpha  occ. eigenvalues --   -0.37368  -0.36356
 Alpha virt. eigenvalues --    0.04933   0.11083   0.16225   0.19887   0.22925
 Alpha virt. eigenvalues --    0.23544   0.25865   0.26262   0.26824   0.28322
 Alpha virt. eigenvalues --    0.29417   0.30247   0.31189   0.31469   0.32006

 Mulliken charges:
               1
     1  C   -0.171566
     2  C   -0.217486
     3  C   -0.168287
     4  C    0.157769
     5  C   -0.170985
     6  C   -0.218697
     7  H    0.226424
     8  H    0.225387
     9  H    0.277018
    10  H    0.276052
    11  H    0.224126
    12  N    0.488060
    13  O   -0.460241
    14  O   -0.459744
    15  C   -0.303768
    16  C   -0.300538
    17  C   -0.479160
    18  H    0.150095
    19  H    0.152893
    20  H    0.146869
    21  H    0.155030
    22  H    0.160772
    23  H    0.150576
    24  H    0.161369
    25  C   -0.298491
    26  C   -0.297939
    27  C   -0.475869
    28  H    0.146540
    29  H    0.152284
    30  H    0.143706
    31  H    0.154879
    32  H    0.157716
    33  H    0.154423
    34  H    0.160782
 Sum of Mulliken charges =  -0.00000

 Dipole moment (field-independent basis, Debye):
    X=             -4.2216    Y=             -1.8139    Z=              2.2996  Tot=              5.1381
 Quadrupole moment (field-independent basis, Debye-Ang):
   XX=           -119.3749   YY=            -89.7270   ZZ=            -93.1735
   XY=             -4.6365   XZ=              6.4770   YZ=              0.7063

 Normal termination of Gaussian 16 at Wed May  5 22:26:16 2021.
