 Gaussian 16, Revision A.03,
 Gaussian 16:  EM64L-G16RevA.03 25-Dec-2016

 -------------
 #p 6-31g* mp2
 -------------

 ------------------------------------------------------
 Input file generated by CHIRIPA (05-May-2021 14:51:10)
 ------------------------------------------------------
 Symbolic Z-matrix:
 Charge =  0 Multiplicity = 1

                         Standard orientation:
 ---------------------------------------------------------------------
 Center     Atomic      Atomic             Coordinates (Angstroms)
 Number     Number       Type             X           Y           Z
 ---------------------------------------------------------------------
      1          6           0        2.601328    0.022220   -0.264982
      2          6           0        3.598536   -0.935213    0.388381
      3          6           0        3.467989   -2.368159   -0.128741
      4          1           0        1.580764   -0.342496   -0.085046
      5          1           0        2.750513    0.009243   -1.353545
      6          1           0        3.448438   -0.919391    1.475504
      7          1           0        4.616837   -0.568071    0.207033
      8          1           0        3.638732   -2.404734   -1.209532
      9          1           0        2.463695   -2.758050    0.066146
     10          1           0        4.190180   -3.035671    0.351599
     11          6           0        2.719502    1.458555    0.241681
     12          6           0        1.722293    2.415988   -0.411682
     13          6           0        1.852841    3.848934    0.105440
     14          1           0        2.570316    1.471532    1.330244
     15          1           0        3.740065    1.823271    0.061746
     16          1           0        0.703993    2.048846   -0.230334
     17          1           0        1.872392    2.400166   -1.498805
     18          1           0        2.857134    4.238825   -0.089447
     19          1           0        1.682097    3.885509    1.186231
     20          1           0        1.130649    4.516446   -0.374900
     21          6           0       -2.184042   -1.200462   -0.368918
     22          6           0       -1.374034   -2.122689    0.542878
     23          6           0       -0.425593   -3.037036   -0.233152
     24          1           0       -2.759423   -1.810295   -1.078837
     25          1           0       -1.493996   -0.590620   -0.968353
     26          1           0       -2.065409   -2.729630    1.141410
     27          1           0       -0.800663   -1.510595    1.250835
     28          1           0        0.286909   -2.446053   -0.817687
     29          1           0       -0.985022   -3.672014   -0.927732
     30          1           0        0.143516   -3.687738    0.438086
     31          6           0       -3.136788   -0.280312    0.392219
     32          6           0       -3.946795    0.641914   -0.519577
     33          6           0       -4.895236    1.556261    0.256453
     34          1           0       -3.826834   -0.890155    0.991654
     35          1           0       -2.561407    0.329521    1.102138
     36          1           0       -4.520167    0.029820   -1.227533
     37          1           0       -3.255421    1.248854   -1.118110
     38          1           0       -4.335807    2.191239    0.951033
     39          1           0       -5.607739    0.965279    0.840987
     40          1           0       -5.464345    2.206963   -0.414786
 ---------------------------------------------------------------------

 SCF Done:  E(RHF) =  -470.732302460     A.U. after   11 cycles
 E2 =    -0.1584241037D+01 EUMP2 =    -0.47231654349758D+03

 The electronic state is 1-A.
 Alpha  occ. eigenvalues --  -11.21670 -11.21661 -11.21627 -11.21574 -11.21450
 Alpha  occ. eigenvalues --  -11.21438 -11.21391 -11.21377 -11.21115 -11.21091
 Alpha  occ. eigenvalues --  -11.21083 -11.20907  -1.08497  -1.08436  -1.03609
 Alpha  occ. eigenvalues --   -1.03503  -0.96061  -0.95947  -0.87103  -0.86943
 Alpha  occ. eigenvalues --   -0.79714  -0.79533  -0.78327  -0.78237  -0.65296
 Alpha  occ. eigenvalues --   -0.64925  -0.61188  -0.60758  -0.59415  -0.59341
 Alpha  occ. eigenvalues --   -0.57642  -0.57595  -0.55436  -0.55170  -0.52816
 Alpha  occ. eigenvalues --   -0.52663  -0.52445  -0.52323  -0.50135  -0.49773
 Alpha  occ. eigenvalues --   -0.48012  -0.47842  -0.46786  -0.46509  -0.45994
 Alpha  occ. eigenvalues --   -0.45795  -0.45747  -0.45446  -0.43814  -0.43789
 Alpha virt. eigenvalues --    0.19700   0.22898   0.23675   0.24784   0.25880
 Alpha virt. eigenvalues --    0.26830   0.26944   0.27453   0.28684   0.29621
 Alpha virt. eigenvalues --    0.30285   0.31301   0.31584   0.31707   0.32344

 Mulliken charges:
               1
     1  C   -0.304944
     2  C   -0.298714
     3  C   -0.484396
     4  H    0.155160
     5  H    0.149297
     6  H    0.151267
     7  H    0.151698
     8  H    0.153950
     9  H    0.166541
    10  H    0.159259
    11  C   -0.297937
    12  C   -0.300054
    13  C   -0.475719
    14  H    0.149431
    15  H    0.150139
    16  H    0.151068
    17  H    0.152126
    18  H    0.155522
    19  H    0.155222
    20  H    0.160330
    21  C   -0.300453
    22  C   -0.300856
    23  C   -0.483084
    24  H    0.150185
    25  H    0.151162
    26  H    0.152644
    27  H    0.151567
    28  H    0.162195
    29  H    0.156161
    30  H    0.160979
    31  C   -0.298247
    32  C   -0.299796
    33  C   -0.475734
    34  H    0.149718
    35  H    0.149206
    36  H    0.152086
    37  H    0.152204
    38  H    0.155201
    39  H    0.155206
    40  H    0.160413
 Sum of Mulliken charges =  -0.00000

 Dipole moment (field-independent basis, Debye):
    X=             -0.0365    Y=             -0.0190    Z=             -0.0148  Tot=              0.0438
 Quadrupole moment (field-independent basis, Debye-Ang):
   XX=            -84.4598   YY=            -85.8462   ZZ=            -84.4923
   XY=              1.3124   XZ=             -0.1231   YZ=             -0.6844

 Normal termination of Gaussian 16 at Thu May  6 03:49:01 2021.
