 Gaussian 16, Revision A.03,
 Gaussian 16:  EM64L-G16RevA.03 25-Dec-2016

 -------------
 #p 6-31g* mp2
 -------------

 ------------------------------------------------------
 Input file generated by CHIRIPA (05-May-2021 14:53:14)
 ------------------------------------------------------
 Symbolic Z-matrix:
 Charge =  0 Multiplicity = 1

                         Standard orientation:
 ---------------------------------------------------------------------
 Center     Atomic      Atomic             Coordinates (Angstroms)
 Number     Number       Type             X           Y           Z
 ---------------------------------------------------------------------
      1          6           0        3.757493    0.107238   -0.007069
      2          6           0        3.384207   -1.306919    0.438802
      3          6           0        4.589793   -2.245405    0.498819
      4          1           0        4.236023    0.059101   -0.994813
      5          1           0        4.507560    0.516096    0.684039
      6          1           0        2.634046   -1.712465   -0.252145
      7          1           0        2.906338   -1.255390    1.425514
      8          1           0        5.338039   -1.866820    1.202667
      9          1           0        5.064200   -2.326492   -0.484524
     10          1           0        4.300247   -3.250901    0.819759
     11          6           0        2.562845    1.057149   -0.071974
     12          6           0        2.936131    2.471306   -0.517844
     13          6           0        1.730545    3.409792   -0.577861
     14          1           0        1.812778    0.648291   -0.763082
     15          1           0        2.084315    1.105287    0.915770
     16          1           0        3.414000    2.419777   -1.504557
     17          1           0        3.686292    2.876852    0.173102
     18          1           0        1.256138    3.490879    0.405482
     19          1           0        0.982299    3.031207   -1.281709
     20          1           0        2.020091    4.415288   -0.898801
     21          6           0       -4.544686    0.908535    0.476041
     22          6           0       -3.416540    1.065678    1.287900
     23          6           0       -2.260896    0.315557    1.050509
     24          6           0       -2.268202   -0.586644   -0.012161
     25          6           0       -3.376315   -0.765843   -0.838758
     26          6           0       -4.521014   -0.005113   -0.582830
     27          1           0       -5.438167    1.495369    0.667651
     28          1           0       -3.432068    1.774481    2.110944
     29          1           0       -1.373506    0.417240    1.663386
     30          1           0       -3.330733   -1.480296   -1.651715
     31          1           0       -5.395678   -0.129245   -1.214970
     32          7           0       -1.050565   -1.386380   -0.273288
     33          8           0       -1.082417   -2.174566   -1.215829
     34          8           0       -0.087387   -1.209883    0.469526
 ---------------------------------------------------------------------

 SCF Done:  E(RHF) =  -669.535597472     A.U. after   15 cycles
 E2 =    -0.2092664127D+01 EUMP2 =    -0.67162826159921D+03

 The electronic state is 1-A.
 Alpha  occ. eigenvalues --  -20.61012 -20.60977 -15.86003 -11.31305 -11.27867
 Alpha  occ. eigenvalues --  -11.27861 -11.27599 -11.26867 -11.26856 -11.20889
 Alpha  occ. eigenvalues --  -11.20691 -11.20258 -11.20165 -11.19848 -11.19769
 Alpha  occ. eigenvalues --   -1.60055  -1.39611  -1.19472  -1.08883  -1.07305
 Alpha  occ. eigenvalues --   -1.04863  -1.02468  -0.95730  -0.94990  -0.86265
 Alpha  occ. eigenvalues --   -0.86021  -0.82571  -0.78537  -0.77655  -0.76977
 Alpha  occ. eigenvalues --   -0.72210  -0.71359  -0.70580  -0.65127  -0.64868
 Alpha  occ. eigenvalues --   -0.63957  -0.62211  -0.59880  -0.58392  -0.56551
 Alpha  occ. eigenvalues --   -0.55371  -0.54312  -0.53196  -0.52956  -0.51731
 Alpha  occ. eigenvalues --   -0.51410  -0.49084  -0.48997  -0.48963  -0.46827
 Alpha  occ. eigenvalues --   -0.45580  -0.45237  -0.44512  -0.44127  -0.42699
 Alpha  occ. eigenvalues --   -0.37447  -0.36461
 Alpha virt. eigenvalues --    0.04887   0.11189   0.16374   0.21198   0.23694
 Alpha virt. eigenvalues --    0.25237   0.26666   0.27550   0.28137   0.28740
 Alpha virt. eigenvalues --    0.29176   0.31092   0.32111   0.32442   0.32795

 Mulliken charges:
               1
     1  C   -0.299715
     2  C   -0.297959
     3  C   -0.476019
     4  H    0.145297
     5  H    0.142515
     6  H    0.173435
     7  H    0.152241
     8  H    0.148129
     9  H    0.150826
    10  H    0.159216
    11  C   -0.292880
    12  C   -0.299372
    13  C   -0.473772
    14  H    0.155470
    15  H    0.146448
    16  H    0.150559
    17  H    0.148835
    18  H    0.149289
    19  H    0.153289
    20  H    0.157587
    21  C   -0.170436
    22  C   -0.218440
    23  C   -0.170138
    24  C    0.157408
    25  C   -0.170684
    26  C   -0.218619
    27  H    0.226100
    28  H    0.223980
    29  H    0.275985
    30  H    0.275715
    31  H    0.223822
    32  N    0.489556
    33  O   -0.459925
    34  O   -0.457742
 Sum of Mulliken charges =  -0.00000

 Dipole moment (field-independent basis, Debye):
    X=             -4.6266    Y=              2.6162    Z=              0.9026  Tot=              5.3912
 Quadrupole moment (field-independent basis, Debye-Ang):
   XX=            -76.7453   YY=            -98.9608   ZZ=            -91.2675
   XY=             -2.4393   XZ=             -0.1226   YZ=              1.9271

 Normal termination of Gaussian 16 at Thu May  6 04:13:47 2021.
