 Gaussian 16, Revision A.03,
 Gaussian 16:  EM64L-G16RevA.03 25-Dec-2016

 -------------
 #p 6-31g* mp2
 -------------

 ------------------------------------------------------
 Input file generated by CHIRIPA (05-May-2021 14:55:23)
 ------------------------------------------------------
 Symbolic Z-matrix:
 Charge =  0 Multiplicity = 1

                         Standard orientation:
 ---------------------------------------------------------------------
 Center     Atomic      Atomic             Coordinates (Angstroms)
 Number     Number       Type             X           Y           Z
 ---------------------------------------------------------------------
      1          6           0        5.520704    1.803184    0.271878
      2          6           0        5.711706    0.562970    0.889865
      3          6           0        4.773462   -0.461294    0.731337
      4          6           0        3.650655   -0.209759   -0.055633
      5          6           0        3.432121    1.015147   -0.684234
      6          6           0        4.383526    2.024924   -0.511817
      7          1           0        6.254666    2.593230    0.400421
      8          1           0        6.593911    0.387933    1.499062
      9          1           0        4.896417   -1.430912    1.198392
     10          1           0        2.542763    1.159800   -1.285513
     11          1           0        4.232579    2.987096   -0.992946
     12          7           0        2.650411   -1.286433   -0.230811
     13          8           0        1.669602   -1.039645   -0.929198
     14          8           0        2.866170   -2.356731    0.333589
     15          6           0       -4.144702    0.227667   -0.014556
     16          6           0       -3.225011   -0.981141   -0.190444
     17          6           0       -1.749431   -0.592263   -0.286532
     18          1           0       -3.999748    0.916472   -0.858049
     19          1           0       -3.849280    0.775711    0.890856
     20          1           0       -3.522961   -1.527520   -1.094497
     21          1           0       -3.372311   -1.667240    0.653468
     22          1           0       -1.429837   -0.066528    0.619040
     23          1           0       -1.581341    0.073987   -1.138857
     24          1           0       -1.109879   -1.471528   -0.411935
     25          6           0       -5.622995   -0.144953    0.083067
     26          6           0       -6.542686    1.063855    0.258954
     27          6           0       -8.018266    0.674978    0.355043
     28          1           0       -5.918417   -0.692996   -0.822344
     29          1           0       -5.767950   -0.833758    0.926560
     30          1           0       -6.395386    1.749954   -0.584958
     31          1           0       -6.244737    1.610234    1.163007
     32          1           0       -8.186357    0.008728    1.207367
     33          1           0       -8.337861    0.149241   -0.550529
     34          1           0       -8.657818    1.554243    0.480445
 ---------------------------------------------------------------------

 SCF Done:  E(RHF) =  -669.535868071     A.U. after   15 cycles
 E2 =    -0.2090868353D+01 EUMP2 =    -0.67162673642444D+03

 The electronic state is 1-A.
 Alpha  occ. eigenvalues --  -20.60887 -20.60858 -15.85900 -11.31243 -11.27810
 Alpha  occ. eigenvalues --  -11.27803 -11.27552 -11.26822 -11.26812 -11.21162
 Alpha  occ. eigenvalues --  -11.20805 -11.20706 -11.20652 -11.20555 -11.19593
 Alpha  occ. eigenvalues --   -1.59935  -1.39490  -1.19414  -1.08816  -1.07740
 Alpha  occ. eigenvalues --   -1.04813  -1.02746  -0.95660  -0.95161  -0.86219
 Alpha  occ. eigenvalues --   -0.86169  -0.82487  -0.78837  -0.77564  -0.77503
 Alpha  occ. eigenvalues --   -0.72125  -0.71247  -0.70523  -0.65069  -0.64817
 Alpha  occ. eigenvalues --   -0.64385  -0.62160  -0.60160  -0.58572  -0.56763
 Alpha  occ. eigenvalues --   -0.55319  -0.54480  -0.53146  -0.52906  -0.51794
 Alpha  occ. eigenvalues --   -0.51605  -0.49149  -0.48883  -0.48867  -0.47129
 Alpha  occ. eigenvalues --   -0.45911  -0.45084  -0.45002  -0.44884  -0.42920
 Alpha  occ. eigenvalues --   -0.37394  -0.36415
 Alpha virt. eigenvalues --    0.04980   0.11239   0.16465   0.21359   0.23492
 Alpha virt. eigenvalues --    0.25126   0.27224   0.27309   0.28036   0.28195
 Alpha virt. eigenvalues --    0.28950   0.30923   0.32061   0.32304   0.32647

 Mulliken charges:
               1
     1  C   -0.170677
     2  C   -0.218611
     3  C   -0.170770
     4  C    0.158021
     5  C   -0.170690
     6  C   -0.218595
     7  H    0.225788
     8  H    0.223600
     9  H    0.275703
    10  H    0.276176
    11  H    0.223692
    12  N    0.489466
    13  O   -0.459154
    14  O   -0.460119
    15  C   -0.297028
    16  C   -0.301330
    17  C   -0.474794
    18  H    0.147022
    19  H    0.146854
    20  H    0.150158
    21  H    0.149786
    22  H    0.146369
    23  H    0.149466
    24  H    0.183989
    25  C   -0.297484
    26  C   -0.298920
    27  C   -0.475287
    28  H    0.148922
    29  H    0.149011
    30  H    0.150654
    31  H    0.150641
    32  H    0.154819
    33  H    0.154839
    34  H    0.158484
 Sum of Mulliken charges =  -0.00000

 Dipole moment (field-independent basis, Debye):
    X=              3.8299    Y=              3.6994    Z=              0.5753  Tot=              5.3558
 Quadrupole moment (field-independent basis, Debye-Ang):
   XX=            -70.4124   YY=            -94.9019   ZZ=            -92.7755
   XY=             11.5434   XZ=              4.2545   YZ=             -2.4404

 Normal termination of Gaussian 16 at Thu May  6 07:51:29 2021.
