 Gaussian 16, Revision A.03,
 Gaussian 16:  EM64L-G16RevA.03 25-Dec-2016

 -------------
 #p 6-31g* mp2
 -------------

 ------------------------------------------------------
 Input file generated by CHIRIPA (05-May-2021 14:53:12)
 ------------------------------------------------------
 Symbolic Z-matrix:
 Charge =  0 Multiplicity = 1

                         Standard orientation:
 ---------------------------------------------------------------------
 Center     Atomic      Atomic             Coordinates (Angstroms)
 Number     Number       Type             X           Y           Z
 ---------------------------------------------------------------------
      1          6           0       -3.491853    0.174265    1.029675
      2          6           0       -2.300377   -0.783199    1.070076
      3          6           0       -1.361180   -0.508932    2.245015
      4          1           0       -3.122236    1.207228    0.972100
      5          1           0       -4.049905    0.094086    1.972832
      6          1           0       -1.745531   -0.702245    0.126567
      7          1           0       -2.672876   -1.814013    1.127369
      8          1           0       -1.894364   -0.609191    3.195943
      9          1           0       -0.961749    0.508894    2.189455
     10          1           0       -0.516481   -1.204813    2.254677
     11          6           0       -4.439866   -0.087309   -0.139332
     12          6           0       -5.631342    0.870155   -0.179733
     13          6           0       -6.570539    0.595888   -1.354672
     14          1           0       -3.881814   -0.007130   -1.082489
     15          1           0       -4.809484   -1.120272   -0.081757
     16          1           0       -5.258843    1.900969   -0.237026
     17          1           0       -6.186189    0.789201    0.763776
     18          1           0       -6.969970   -0.421938   -1.299112
     19          1           0       -6.037355    0.696147   -2.305600
     20          1           0       -7.415238    1.291769   -1.364334
     21          6           0        4.925210    1.573667    0.318497
     22          6           0        5.140804    0.194318    0.404747
     23          6           0        4.135715   -0.705696    0.038254
     24          6           0        2.921711   -0.189388   -0.412204
     25          6           0        2.676513    1.179457   -0.509328
     26          6           0        3.695920    2.060974   -0.137461
     27          1           0        5.711549    2.265634    0.605284
     28          1           0        6.094490   -0.186979    0.758496
     29          1           0        4.275798   -1.778336    0.095153
     30          1           0        1.715335    1.529545   -0.865690
     31          1           0        3.525676    3.131692   -0.205480
     32          7           0        1.850089   -1.132401   -0.803038
     33          8           0        0.789413   -0.652198   -1.196746
     34          8           0        2.091120   -2.333884   -0.708266
 ---------------------------------------------------------------------

 SCF Done:  E(RHF) =  -669.536285689     A.U. after   15 cycles
 E2 =    -0.2091219081D+01 EUMP2 =    -0.67162750477011D+03

 The electronic state is 1-A.
 Alpha  occ. eigenvalues --  -20.60963 -20.60956 -15.85991 -11.31293 -11.27856
 Alpha  occ. eigenvalues --  -11.27851 -11.27590 -11.26860 -11.26850 -11.21027
 Alpha  occ. eigenvalues --  -11.20625 -11.20568 -11.20543 -11.20361 -11.20253
 Alpha  occ. eigenvalues --   -1.60016  -1.39574  -1.19459  -1.08867  -1.07624
 Alpha  occ. eigenvalues --   -1.04855  -1.02735  -0.95713  -0.95241  -0.86268
 Alpha  occ. eigenvalues --   -0.86254  -0.82550  -0.78802  -0.77608  -0.77396
 Alpha  occ. eigenvalues --   -0.72217  -0.71328  -0.70571  -0.65119  -0.64859
 Alpha  occ. eigenvalues --   -0.64254  -0.62204  -0.60129  -0.58606  -0.56824
 Alpha  occ. eigenvalues --   -0.55360  -0.54551  -0.53184  -0.52948  -0.51950
 Alpha  occ. eigenvalues --   -0.51661  -0.49218  -0.48974  -0.48962  -0.47125
 Alpha  occ. eigenvalues --   -0.45846  -0.45138  -0.44968  -0.44611  -0.43001
 Alpha  occ. eigenvalues --   -0.37434  -0.36454
 Alpha virt. eigenvalues --    0.04899   0.11198   0.16373   0.21302   0.23622
 Alpha virt. eigenvalues --    0.24969   0.27213   0.27434   0.28129   0.28511
 Alpha virt. eigenvalues --    0.28654   0.30905   0.31972   0.32409   0.32581

 Mulliken charges:
               1
     1  C   -0.297168
     2  C   -0.309556
     3  C   -0.474154
     4  H    0.144760
     5  H    0.145123
     6  H    0.179022
     7  H    0.150243
     8  H    0.150474
     9  H    0.147938
    10  H    0.160590
    11  C   -0.298435
    12  C   -0.298817
    13  C   -0.475286
    14  H    0.153463
    15  H    0.149531
    16  H    0.149507
    17  H    0.150115
    18  H    0.155075
    19  H    0.155450
    20  H    0.157740
    21  C   -0.170510
    22  C   -0.218516
    23  C   -0.170674
    24  C    0.158405
    25  C   -0.170355
    26  C   -0.218486
    27  H    0.226025
    28  H    0.223843
    29  H    0.275832
    30  H    0.275303
    31  H    0.223788
    32  N    0.489838
    33  O   -0.461322
    34  O   -0.458787
 Sum of Mulliken charges =  -0.00000

 Dipole moment (field-independent basis, Debye):
    X=              4.0265    Y=              3.2355    Z=              1.2229  Tot=              5.3082
 Quadrupole moment (field-independent basis, Debye-Ang):
   XX=            -72.3232   YY=            -92.8635   ZZ=            -97.2354
   XY=              7.1083   XZ=              2.7670   YZ=             -3.0501

 Normal termination of Gaussian 16 at Thu May  6 16:59:01 2021.
