 Gaussian 16, Revision A.03,
 Gaussian 16:  EM64L-G16RevA.03 25-Dec-2016

 -------------
 #p 6-31g* mp2
 -------------

 ------------------------------------------------------
 Input file generated by CHIRIPA (05-May-2021 14:57:25)
 ------------------------------------------------------
 Symbolic Z-matrix:
 Charge =  0 Multiplicity = 1

                         Standard orientation:
 ---------------------------------------------------------------------
 Center     Atomic      Atomic             Coordinates (Angstroms)
 Number     Number       Type             X           Y           Z
 ---------------------------------------------------------------------
      1          6           0       -2.323698    2.576093   -0.314826
      2          6           0       -3.581331    2.043002   -0.013670
      3          6           0       -3.789530    0.660666   -0.032319
      4          6           0       -2.713043   -0.163040   -0.357857
      5          6           0       -1.448286    0.337779   -0.662587
      6          6           0       -1.263060    1.723284   -0.637754
      7          1           0       -2.170887    3.651156   -0.297937
      8          1           0       -4.406864    2.702903    0.237472
      9          1           0       -4.752783    0.221218    0.196695
     10          1           0       -0.644599   -0.345352   -0.909237
     11          1           0       -0.285279    2.134485   -0.872068
     12          7           0       -2.921294   -1.628134   -0.380874
     13          8           0       -1.956661   -2.332452   -0.670797
     14          8           0       -4.045211   -2.044415   -0.108555
     15          6           0        0.794260   -0.200800    2.027312
     16          6           0        1.306176    1.041709    1.639192
     17          6           0        2.350219    1.121490    0.712825
     18          6           0        2.860904   -0.066595    0.192301
     19          6           0        2.372250   -1.319576    0.559107
     20          6           0        1.327990   -1.375406    1.486983
     21          1           0       -0.016861   -0.253473    2.747522
     22          1           0        0.893624    1.955568    2.057171
     23          1           0        2.765393    2.070129    0.394809
     24          1           0        2.804049   -2.213212    0.125080
     25          1           0        0.932408   -2.341745    1.786561
     26          7           0        3.966300    0.005188   -0.789202
     27          8           0        4.398866   -1.056159   -1.233123
     28          8           0        4.379212    1.121439   -1.095996
 ---------------------------------------------------------------------

 SCF Done:  E(RHF) =  -868.337089929     A.U. after   16 cycles
 E2 =    -0.2603965878D+01 EUMP2 =    -0.87094105580659D+03

 The electronic state is 1-A.
 Alpha  occ. eigenvalues --  -20.61291 -20.61275 -20.61156 -20.61131 -15.86332
 Alpha  occ. eigenvalues --  -15.86201 -11.31658 -11.31601 -11.28214 -11.28180
 Alpha  occ. eigenvalues --  -11.28095 -11.28082 -11.27911 -11.27793 -11.27224
 Alpha  occ. eigenvalues --  -11.27180 -11.27085 -11.27044  -1.60365  -1.60223
 Alpha  occ. eigenvalues --   -1.39918  -1.39773  -1.19854  -1.19737  -1.09208
 Alpha  occ. eigenvalues --   -1.09151  -1.05241  -1.05093  -0.96053  -0.95972
 Alpha  occ. eigenvalues --   -0.86605  -0.86504  -0.82874  -0.82785  -0.77949
 Alpha  occ. eigenvalues --   -0.77829  -0.72549  -0.72404  -0.71701  -0.71559
 Alpha  occ. eigenvalues --   -0.70891  -0.70820  -0.65432  -0.65406  -0.65191
 Alpha  occ. eigenvalues --   -0.65067  -0.62564  -0.62448  -0.55706  -0.55602
 Alpha  occ. eigenvalues --   -0.54011  -0.53265  -0.53200  -0.53010  -0.49307
 Alpha  occ. eigenvalues --   -0.49299  -0.49176  -0.49159  -0.45343  -0.45159
 Alpha  occ. eigenvalues --   -0.38204  -0.37877  -0.36923  -0.36018
 Alpha virt. eigenvalues --    0.04484   0.04689   0.10298   0.11318   0.16017
 Alpha virt. eigenvalues --    0.16294   0.20673   0.21510   0.26324   0.27385
 Alpha virt. eigenvalues --    0.27948   0.28118   0.30479   0.30865   0.31967

 Mulliken charges:
               1
     1  C   -0.174984
     2  C   -0.219574
     3  C   -0.172431
     4  C    0.152263
     5  C   -0.167956
     6  C   -0.219300
     7  H    0.225563
     8  H    0.223973
     9  H    0.275678
    10  H    0.280234
    11  H    0.225046
    12  N    0.487531
    13  O   -0.462314
    14  O   -0.459610
    15  C   -0.172228
    16  C   -0.215679
    17  C   -0.183564
    18  C    0.156850
    19  C   -0.173625
    20  C   -0.215866
    21  H    0.229309
    22  H    0.221991
    23  H    0.273181
    24  H    0.280589
    25  H    0.235100
    26  N    0.488061
    27  O   -0.456263
    28  O   -0.461974
 Sum of Mulliken charges =  -0.00000

 Dipole moment (field-independent basis, Debye):
    X=             -3.0791    Y=              4.6559    Z=              3.6257  Tot=              6.6561
 Quadrupole moment (field-independent basis, Debye-Ang):
   XX=           -127.5709   YY=           -101.9020   ZZ=           -104.4463
   XY=            -15.9363   XZ=              7.3398   YZ=             -1.8437

 Normal termination of Gaussian 16 at Thu May  6 08:19:33 2021.
