 Gaussian 16, Revision A.03,
 Gaussian 16:  EM64L-G16RevA.03 25-Dec-2016

 -------------
 #p 6-31g* mp2
 -------------

 ------------------------------------------------------
 Input file generated by CHIRIPA (05-May-2021 14:53:14)
 ------------------------------------------------------
 Symbolic Z-matrix:
 Charge =  0 Multiplicity = 1

                         Standard orientation:
 ---------------------------------------------------------------------
 Center     Atomic      Atomic             Coordinates (Angstroms)
 Number     Number       Type             X           Y           Z
 ---------------------------------------------------------------------
      1          6           0        4.394167   -0.056751    0.076090
      2          6           0        3.664906   -1.262662    0.669338
      3          6           0        2.151351   -1.059659    0.745066
      4          1           0        4.171895    0.832489    0.681723
      5          1           0        3.999350    0.143361   -0.929628
      6          1           0        4.061946   -1.461291    1.673092
      7          1           0        3.889093   -2.149173    0.062334
      8          1           0        1.735867   -0.883788   -0.252453
      9          1           0        1.909701   -0.191998    1.367457
     10          1           0        1.649926   -1.933745    1.172157
     11          6           0        5.908002   -0.244545   -0.006164
     12          6           0        6.637263    0.961366   -0.599411
     13          6           0        8.150818    0.758363   -0.675140
     14          1           0        6.302819   -0.444657    0.999555
     15          1           0        6.130274   -1.133785   -0.611796
     16          1           0        6.413075    1.847877    0.007593
     17          1           0        6.240223    1.159995   -1.603165
     18          1           0        8.392467   -0.109299   -1.297531
     19          1           0        8.566302    0.582492    0.322379
     20          1           0        8.652242    1.632449   -1.102231
     21          6           0       -1.550121    0.103525    0.466889
     22          6           0       -2.316445    1.235829    0.762111
     23          6           0       -3.688134    1.254861    0.492564
     24          6           0       -4.263478    0.119064   -0.075093
     25          6           0       -3.526760   -1.024248   -0.380671
     26          6           0       -2.156656   -1.020917   -0.102556
     27          1           0       -0.485175    0.097426    0.679608
     28          1           0       -1.848081    2.110518    1.204378
     29          1           0       -4.305036    2.118069    0.711020
     30          1           0       -4.021874   -1.881087   -0.821247
     31          1           0       -1.563996   -1.901682   -0.332886
     32          7           0       -5.714785    0.127375   -0.364986
     33          8           0       -6.197834   -0.886007   -0.865343
     34          8           0       -6.341790    1.147114   -0.086358
 ---------------------------------------------------------------------

 SCF Done:  E(RHF) =  -669.535567318     A.U. after   15 cycles
 E2 =    -0.2091062833D+01 EUMP2 =    -0.67162663015148D+03

 The electronic state is 1-A.
 Alpha  occ. eigenvalues --  -20.60673 -20.60668 -15.85727 -11.31059 -11.27637
 Alpha  occ. eigenvalues --  -11.27633 -11.27267 -11.26623 -11.26610 -11.22665
 Alpha  occ. eigenvalues --  -11.22557 -11.22244 -11.22166 -11.22042 -11.21534
 Alpha  occ. eigenvalues --   -1.59750  -1.39304  -1.19228  -1.09246  -1.08617
 Alpha  occ. eigenvalues --   -1.04632  -1.04398  -0.96890  -0.95457  -0.87924
 Alpha  occ. eigenvalues --   -0.86024  -0.82303  -0.80491  -0.79006  -0.77359
 Alpha  occ. eigenvalues --   -0.71944  -0.71073  -0.70314  -0.65869  -0.64874
 Alpha  occ. eigenvalues --   -0.64638  -0.61989  -0.61787  -0.60270  -0.58477
 Alpha  occ. eigenvalues --   -0.56178  -0.55217  -0.53541  -0.53221  -0.52958
 Alpha  occ. eigenvalues --   -0.52719  -0.50829  -0.48791  -0.48701  -0.48677
 Alpha  occ. eigenvalues --   -0.47484  -0.46559  -0.46445  -0.44717  -0.44624
 Alpha  occ. eigenvalues --   -0.37189  -0.36247
 Alpha virt. eigenvalues --    0.05179   0.11402   0.16670   0.20443   0.22175
 Alpha virt. eigenvalues --    0.23684   0.25685   0.25807   0.26759   0.27375
 Alpha virt. eigenvalues --    0.29301   0.29903   0.30581   0.31178   0.31982

 Mulliken charges:
               1
     1  C   -0.299348
     2  C   -0.299086
     3  C   -0.486201
     4  H    0.149434
     5  H    0.150423
     6  H    0.155974
     7  H    0.155654
     8  H    0.154258
     9  H    0.151937
    10  H    0.163096
    11  C   -0.299052
    12  C   -0.300201
    13  C   -0.476151
    14  H    0.150865
    15  H    0.151122
    16  H    0.152239
    17  H    0.152664
    18  H    0.156039
    19  H    0.155902
    20  H    0.161862
    21  C   -0.179332
    22  C   -0.221406
    23  C   -0.170616
    24  C    0.157840
    25  C   -0.170817
    26  C   -0.223426
    27  H    0.243851
    28  H    0.223071
    29  H    0.274983
    30  H    0.275017
    31  H    0.223108
    32  N    0.488046
    33  O   -0.460893
    34  O   -0.460856
 Sum of Mulliken charges =  -0.00000

 Dipole moment (field-independent basis, Debye):
    X=              5.4609    Y=             -0.0649    Z=              1.0253  Tot=              5.5567
 Quadrupole moment (field-independent basis, Debye-Ang):
   XX=           -139.3430   YY=            -90.3062   ZZ=            -94.1789
   XY=              0.3095   XZ=             -4.6685   YZ=              2.4289

 Normal termination of Gaussian 16 at Wed May  5 15:33:05 2021.
