 Gaussian 16, Revision A.03,
 Gaussian 16:  EM64L-G16RevA.03 25-Dec-2016

 -------------
 #p 6-31g* mp2
 -------------

 ------------------------------------------------------
 Input file generated by CHIRIPA (05-May-2021 14:57:22)
 ------------------------------------------------------
 Symbolic Z-matrix:
 Charge =  0 Multiplicity = 1

                         Standard orientation:
 ---------------------------------------------------------------------
 Center     Atomic      Atomic             Coordinates (Angstroms)
 Number     Number       Type             X           Y           Z
 ---------------------------------------------------------------------
      1          6           0        6.939892    0.169441   -0.281321
      2          6           0        6.128715    1.299927   -0.138096
      3          6           0        4.743487    1.167404   -0.003459
      4          6           0        4.200487   -0.116448   -0.016334
      5          6           0        4.982144   -1.262057   -0.157346
      6          6           0        6.365031   -1.105695   -0.290473
      7          1           0        8.015061    0.281647   -0.385324
      8          1           0        6.572409    2.291454   -0.130641
      9          1           0        4.092084    2.025579    0.108911
     10          1           0        4.510856   -2.237398   -0.161115
     11          1           0        6.992547   -1.985429   -0.401547
     12          7           0        2.735247   -0.269363    0.125401
     13          8           0        2.281341   -1.411466    0.110966
     14          8           0        2.068443    0.755780    0.248244
     15          6           0       -2.066460    0.775899    0.543772
     16          6           0       -2.446521   -0.565762    0.653401
     17          6           0       -3.759995   -0.956531    0.376570
     18          6           0       -4.671633    0.025056   -0.009039
     19          6           0       -4.323523    1.369718   -0.127333
     20          6           0       -3.004520    1.737662    0.154442
     21          1           0       -1.043975    1.070593    0.760740
     22          1           0       -1.720137   -1.314840    0.955548
     23          1           0       -4.081187   -1.988202    0.453440
     24          1           0       -5.070009    2.093671   -0.430761
     25          1           0       -2.712185    2.780347    0.068463
     26          7           0       -6.065075   -0.376552   -0.304724
     27          8           0       -6.849325    0.507448   -0.642561
     28          8           0       -6.346621   -1.567726   -0.193044
 ---------------------------------------------------------------------

 SCF Done:  E(RHF) =  -868.341078770     A.U. after   16 cycles
 E2 =    -0.2598024410D+01 EUMP2 =    -0.87093910318028D+03

 The electronic state is 1-A.
 Alpha  occ. eigenvalues --  -20.61952 -20.61947 -20.59889 -20.59882 -15.86959
 Alpha  occ. eigenvalues --  -15.84935 -11.31990 -11.30049 -11.28524 -11.28504
 Alpha  occ. eigenvalues --  -11.28191 -11.27455 -11.27440 -11.26641 -11.26578
 Alpha  occ. eigenvalues --  -11.26045 -11.25532 -11.25387  -1.61002  -1.58971
 Alpha  occ. eigenvalues --   -1.40564  -1.38531  -1.20128  -1.18180  -1.09586
 Alpha  occ. eigenvalues --   -1.07570  -1.05480  -1.03556  -0.96478  -0.94454
 Alpha  occ. eigenvalues --   -0.86893  -0.84933  -0.83324  -0.81314  -0.78405
 Alpha  occ. eigenvalues --   -0.76438  -0.73206  -0.72288  -0.71230  -0.71157
 Alpha  occ. eigenvalues --   -0.70293  -0.69148  -0.65784  -0.65478  -0.63805
 Alpha  occ. eigenvalues --   -0.63522  -0.62831  -0.60919  -0.55991  -0.53876
 Alpha  occ. eigenvalues --   -0.53825  -0.53564  -0.51894  -0.51618  -0.49960
 Alpha  occ. eigenvalues --   -0.49927  -0.47927  -0.47887  -0.46038  -0.43995
 Alpha  occ. eigenvalues --   -0.38084  -0.37066  -0.36074  -0.35188
 Alpha virt. eigenvalues --    0.04111   0.06101   0.10594   0.12490   0.15678
 Alpha virt. eigenvalues --    0.17686   0.20765   0.22862   0.26701   0.27624
 Alpha virt. eigenvalues --    0.28573   0.29800   0.30403   0.31778   0.32546

 Mulliken charges:
               1
     1  C   -0.169518
     2  C   -0.218470
     3  C   -0.170307
     4  C    0.157629
     5  C   -0.170065
     6  C   -0.218521
     7  H    0.228357
     8  H    0.225544
     9  H    0.274713
    10  H    0.276532
    11  H    0.226030
    12  N    0.491031
    13  O   -0.459944
    14  O   -0.469524
    15  C   -0.176405
    16  C   -0.221489
    17  C   -0.172813
    18  C    0.156737
    19  C   -0.172483
    20  C   -0.220941
    21  H    0.247901
    22  H    0.231745
    23  H    0.272187
    24  H    0.271167
    25  H    0.219840
    26  N    0.488343
    27  O   -0.464048
    28  O   -0.463230
 Sum of Mulliken charges =  -0.00000

 Dipole moment (field-independent basis, Debye):
    X=             10.8252    Y=              1.8899    Z=              0.5730  Tot=             11.0039
 Quadrupole moment (field-independent basis, Debye-Ang):
   XX=           -108.6869   YY=            -95.4910   ZZ=           -106.3376
   XY=             -6.6041   XZ=             -7.1563   YZ=             -0.6882

 Normal termination of Gaussian 16 at Fri May  7 01:47:45 2021.
