 Gaussian 16, Revision A.03,
 Gaussian 16:  EM64L-G16RevA.03 25-Dec-2016

 -------------
 #p 6-31g* mp2
 -------------

 ------------------------------------------------------
 Input file generated by CHIRIPA (05-May-2021 14:55:24)
 ------------------------------------------------------
 Symbolic Z-matrix:
 Charge =  0 Multiplicity = 1

                         Standard orientation:
 ---------------------------------------------------------------------
 Center     Atomic      Atomic             Coordinates (Angstroms)
 Number     Number       Type             X           Y           Z
 ---------------------------------------------------------------------
      1          6           0        0.776531   -2.553522   -0.029326
      2          6           0        0.458160   -1.425983   -0.793404
      3          6           0        1.331542   -0.335682   -0.848154
      4          6           0        2.520071   -0.407002   -0.123171
      5          6           0        2.865501   -1.516286    0.647192
      6          6           0        1.977068   -2.595002    0.687270
      7          1           0        0.092221   -3.395995    0.007507
      8          1           0       -0.473490   -1.390995   -1.350941
      9          1           0        1.109979    0.549674   -1.431655
     10          1           0        3.801619   -1.521933    1.192232
     11          1           0        2.226929   -3.469359    1.281504
     12          7           0        3.452648    0.741118   -0.173366
     13          8           0        4.493494    0.653607    0.474414
     14          8           0        3.125097    1.706786   -0.859538
     15          6           0       -3.456301    0.304611   -0.289429
     16          6           0       -4.390634   -0.600080    0.514650
     17          6           0       -5.239021   -1.511585   -0.372587
     18          1           0       -4.052951    0.915396   -0.980728
     19          1           0       -2.798835   -0.318888   -0.911026
     20          1           0       -5.045206    0.024896    1.135583
     21          1           0       -3.791706   -1.208645    1.204251
     22          1           0       -4.600310   -2.159165   -0.981921
     23          1           0       -5.860932   -0.918615   -1.050979
     24          1           0       -5.899561   -2.149672    0.222722
     25          6           0       -2.601609    1.221729    0.583568
     26          6           0       -1.667277    2.126419   -0.220511
     27          6           0       -0.818888    3.037925    0.666725
     28          1           0       -3.259076    1.845227    1.205165
     29          1           0       -2.004959    0.610944    1.274867
     30          1           0       -2.266205    2.734985   -0.910112
     31          1           0       -1.012705    1.501444   -0.841444
     32          1           0       -0.196978    2.444956    1.345118
     33          1           0       -1.457601    3.685505    1.276060
     34          1           0       -0.158349    3.676013    0.071417
 ---------------------------------------------------------------------

 SCF Done:  E(RHF) =  -669.534971075     A.U. after   15 cycles
 E2 =    -0.2093345584D+01 EUMP2 =    -0.67162831665910D+03

 The electronic state is 1-A.
 Alpha  occ. eigenvalues --  -20.60799 -20.60793 -15.85852 -11.31236 -11.27812
 Alpha  occ. eigenvalues --  -11.27800 -11.27559 -11.26829 -11.26819 -11.22205
 Alpha  occ. eigenvalues --  -11.22044 -11.21944 -11.21776 -11.21690 -11.21038
 Alpha  occ. eigenvalues --   -1.59872  -1.39424  -1.19418  -1.08934  -1.08803
 Alpha  occ. eigenvalues --   -1.04830  -1.03943  -0.96372  -0.95637  -0.87378
 Alpha  occ. eigenvalues --   -0.86219  -0.82475  -0.80032  -0.78765  -0.77506
 Alpha  occ. eigenvalues --   -0.72071  -0.71195  -0.70533  -0.65629  -0.65065
 Alpha  occ. eigenvalues --   -0.64829  -0.62217  -0.61295  -0.59744  -0.57980
 Alpha  occ. eigenvalues --   -0.55683  -0.55321  -0.53144  -0.53017  -0.52932
 Alpha  occ. eigenvalues --   -0.52762  -0.50315  -0.48832  -0.48826  -0.48322
 Alpha  occ. eigenvalues --   -0.47084  -0.46286  -0.46195  -0.44824  -0.44199
 Alpha  occ. eigenvalues --   -0.37396  -0.36393
 Alpha virt. eigenvalues --    0.04988   0.11146   0.16357   0.19401   0.22942
 Alpha virt. eigenvalues --    0.23640   0.24795   0.26588   0.26779   0.28176
 Alpha virt. eigenvalues --    0.29258   0.31135   0.31356   0.31397   0.31937

 Mulliken charges:
               1
     1  C   -0.172091
     2  C   -0.220646
     3  C   -0.172937
     4  C    0.157755
     5  C   -0.170975
     6  C   -0.218513
     7  H    0.225999
     8  H    0.228097
     9  H    0.278430
    10  H    0.275853
    11  H    0.223721
    12  N    0.488216
    13  O   -0.460301
    14  O   -0.460072
    15  C   -0.299034
    16  C   -0.300040
    17  C   -0.475140
    18  H    0.152764
    19  H    0.139191
    20  H    0.155467
    21  H    0.150360
    22  H    0.150110
    23  H    0.157644
    24  H    0.162019
    25  C   -0.299131
    26  C   -0.300483
    27  C   -0.476980
    28  H    0.152506
    29  H    0.151421
    30  H    0.153538
    31  H    0.141503
    32  H    0.156518
    33  H    0.155225
    34  H    0.170004
 Sum of Mulliken charges =  -0.00000

 Dipole moment (field-independent basis, Debye):
    X=             -3.2926    Y=             -3.9251    Z=              0.2689  Tot=              5.1303
 Quadrupole moment (field-independent basis, Debye-Ang):
   XX=           -109.3943   YY=            -90.3511   ZZ=            -93.7819
   XY=            -11.8191   XZ=              2.5920   YZ=             -1.6714

 Normal termination of Gaussian 16 at Thu May  6 19:19:06 2021.
