 Gaussian 16, Revision A.03,
 Gaussian 16:  EM64L-G16RevA.03 25-Dec-2016

 -------------
 #p 6-31g* mp2
 -------------

 ------------------------------------------------------
 Input file generated by CHIRIPA (05-May-2021 14:55:25)
 ------------------------------------------------------
 Symbolic Z-matrix:
 Charge =  0 Multiplicity = 1

                         Standard orientation:
 ---------------------------------------------------------------------
 Center     Atomic      Atomic             Coordinates (Angstroms)
 Number     Number       Type             X           Y           Z
 ---------------------------------------------------------------------
      1          6           0        0.498937   -0.972466    0.925902
      2          6           0        0.710446   -0.811858   -0.447412
      3          6           0        1.981529   -0.498768   -0.938197
      4          6           0        3.023112   -0.352856   -0.023263
      5          6           0        2.844114   -0.506560    1.350646
      6          6           0        1.564568   -0.819574    1.818973
      7          1           0       -0.491758   -1.215653    1.298433
      8          1           0       -0.115275   -0.930003   -1.143308
      9          1           0        2.173273   -0.368860   -1.996392
     10          1           0        3.686853   -0.382533    2.019844
     11          1           0        1.403242   -0.943720    2.886028
     12          7           0        4.373231   -0.021442   -0.530947
     13          8           0        5.274303    0.101826    0.295800
     14          8           0        4.504817    0.108777   -1.746005
     15          6           0       -2.964672    0.876275   -0.347703
     16          6           0       -2.378789    1.899709    0.625596
     17          6           0       -1.138701    2.600969    0.070431
     18          1           0       -2.196784    0.128951   -0.590192
     19          1           0       -3.218652    1.380653   -1.290301
     20          1           0       -2.127272    1.393817    1.566567
     21          1           0       -3.148220    2.644574    0.865946
     22          1           0       -1.378617    3.130938   -0.857025
     23          1           0       -0.351867    1.873075   -0.152423
     24          1           0       -0.736262    3.328286    0.782409
     25          6           0       -4.204854    0.166867    0.193053
     26          6           0       -4.790737   -0.856568   -0.780245
     27          6           0       -6.030825   -1.557828   -0.225080
     28          1           0       -3.950873   -0.337512    1.135652
     29          1           0       -4.972742    0.914190    0.435544
     30          1           0       -4.021306   -1.601433   -1.020595
     31          1           0       -5.042254   -0.350675   -1.721216
     32          1           0       -6.817657   -0.829933   -0.002226
     33          1           0       -5.790909   -2.087797    0.702376
     34          1           0       -6.433264   -2.285145   -0.937058
 ---------------------------------------------------------------------

 SCF Done:  E(RHF) =  -669.534426658     A.U. after   15 cycles
 E2 =    -0.2093928566D+01 EUMP2 =    -0.67162835522351D+03

 The electronic state is 1-A.
 Alpha  occ. eigenvalues --  -20.60809 -20.60804 -15.85864 -11.31266 -11.27836
 Alpha  occ. eigenvalues --  -11.27831 -11.27582 -11.26855 -11.26835 -11.22424
 Alpha  occ. eigenvalues --  -11.22361 -11.22299 -11.22245 -11.21754 -11.21405
 Alpha  occ. eigenvalues --   -1.59884  -1.39436  -1.19451  -1.09280  -1.08832
 Alpha  occ. eigenvalues --   -1.04862  -1.04230  -0.96667  -0.95663  -0.87679
 Alpha  occ. eigenvalues --   -0.86261  -0.82492  -0.80305  -0.79118  -0.77529
 Alpha  occ. eigenvalues --   -0.72083  -0.71206  -0.70563  -0.66007  -0.65091
 Alpha  occ. eigenvalues --   -0.64812  -0.62219  -0.61626  -0.60038  -0.58293
 Alpha  occ. eigenvalues --   -0.56006  -0.55350  -0.53317  -0.53307  -0.53027
 Alpha  occ. eigenvalues --   -0.52879  -0.50591  -0.48851  -0.48834  -0.48596
 Alpha  occ. eigenvalues --   -0.47347  -0.46610  -0.46576  -0.44833  -0.44527
 Alpha  occ. eigenvalues --   -0.37385  -0.36413
 Alpha virt. eigenvalues --    0.04980   0.11088   0.16387   0.19052   0.22864
 Alpha virt. eigenvalues --    0.23877   0.24907   0.25512   0.27126   0.28284
 Alpha virt. eigenvalues --    0.30210   0.30315   0.31151   0.31390   0.31711

 Mulliken charges:
               1
     1  C   -0.169645
     2  C   -0.222897
     3  C   -0.170932
     4  C    0.159073
     5  C   -0.170507
     6  C   -0.218381
     7  H    0.227281
     8  H    0.227743
     9  H    0.276518
    10  H    0.276061
    11  H    0.223939
    12  N    0.488057
    13  O   -0.460134
    14  O   -0.459984
    15  C   -0.302151
    16  C   -0.298768
    17  C   -0.483320
    18  H    0.139377
    19  H    0.154110
    20  H    0.146029
    21  H    0.155312
    22  H    0.155278
    23  H    0.163618
    24  H    0.162236
    25  C   -0.298163
    26  C   -0.299321
    27  C   -0.475914
    28  H    0.145015
    29  H    0.154194
    30  H    0.146804
    31  H    0.154785
    32  H    0.157520
    33  H    0.154615
    34  H    0.162550
 Sum of Mulliken charges =  -0.00000

 Dipole moment (field-independent basis, Debye):
    X=             -4.7891    Y=             -1.1301    Z=              1.7744  Tot=              5.2308
 Quadrupole moment (field-independent basis, Debye-Ang):
   XX=           -123.2480   YY=            -94.4887   ZZ=            -90.4027
   XY=             -2.9527   XZ=              8.0745   YZ=             -0.8030

 Normal termination of Gaussian 16 at Thu May  6 12:43:58 2021.
