 Gaussian 16, Revision A.03,
 Gaussian 16:  EM64L-G16RevA.03 25-Dec-2016

 -------------
 #p 6-31g* mp2
 -------------

 ------------------------------------------------------
 Input file generated by CHIRIPA (05-May-2021 14:55:24)
 ------------------------------------------------------
 Symbolic Z-matrix:
 Charge =  0 Multiplicity = 1

                         Standard orientation:
 ---------------------------------------------------------------------
 Center     Atomic      Atomic             Coordinates (Angstroms)
 Number     Number       Type             X           Y           Z
 ---------------------------------------------------------------------
      1          6           0        2.837644   -2.353273    1.119114
      2          6           0        3.971149   -1.747250    0.567369
      3          6           0        3.872343   -0.510704   -0.077410
      4          6           0        2.618764    0.094427   -0.152557
      5          6           0        1.471026   -0.484043    0.387220
      6          6           0        1.593393   -1.720850    1.027440
      7          1           0        2.923550   -3.313953    1.618223
      8          1           0        4.938736   -2.236088    0.637066
      9          1           0        4.733630   -0.019194   -0.513324
     10          1           0        0.520035    0.027588    0.301964
     11          1           0        0.711397   -2.189154    1.455014
     12          7           0        2.501691    1.403641   -0.832743
     13          8           0        1.385848    1.916218   -0.885627
     14          8           0        3.527988    1.892435   -1.300109
     15          6           0       -3.484630    0.735979    0.536165
     16          6           0       -2.424131    1.830921    0.416051
     17          6           0       -2.653614    2.985718    1.391538
     18          1           0       -4.476617    1.174338    0.360812
     19          1           0       -3.490161    0.351932    1.565666
     20          1           0       -2.419652    2.211828   -0.613273
     21          1           0       -1.434537    1.389868    0.591521
     22          1           0       -2.637166    2.625762    2.425349
     23          1           0       -3.627879    3.452392    1.213709
     24          1           0       -1.884081    3.757136    1.288614
     25          6           0       -3.268801   -0.425329   -0.432602
     26          6           0       -4.329300   -1.520272   -0.312486
     27          6           0       -4.099818   -2.675068   -1.287975
     28          1           0       -3.263271   -0.041282   -1.462103
     29          1           0       -2.276815   -0.863688   -0.257248
     30          1           0       -5.318895   -1.079217   -0.487957
     31          1           0       -4.333779   -1.901178    0.716837
     32          1           0       -3.125553   -3.141743   -1.110145
     33          1           0       -4.116266   -2.315113   -2.321785
     34          1           0       -4.869351   -3.446486   -1.185050
 ---------------------------------------------------------------------

 SCF Done:  E(RHF) =  -669.535442934     A.U. after   15 cycles
 E2 =    -0.2091917891D+01 EUMP2 =    -0.67162736082482D+03

 The electronic state is 1-A.
 Alpha  occ. eigenvalues --  -20.60778 -20.60772 -15.85826 -11.31195 -11.27769
 Alpha  occ. eigenvalues --  -11.27755 -11.27517 -11.26791 -11.26781 -11.21821
 Alpha  occ. eigenvalues --  -11.21603 -11.21422 -11.21360 -11.21303 -11.20769
 Alpha  occ. eigenvalues --   -1.59851  -1.39404  -1.19373  -1.08767  -1.08510
 Alpha  occ. eigenvalues --   -1.04779  -1.03529  -0.95993  -0.95602  -0.87011
 Alpha  occ. eigenvalues --   -0.86178  -0.82433  -0.79605  -0.78319  -0.77459
 Alpha  occ. eigenvalues --   -0.72045  -0.71172  -0.70490  -0.65195  -0.65026
 Alpha  occ. eigenvalues --   -0.64766  -0.62144  -0.60926  -0.59356  -0.57572
 Alpha  occ. eigenvalues --   -0.55306  -0.55284  -0.53105  -0.52897  -0.52645
 Alpha  occ. eigenvalues --   -0.52407  -0.49959  -0.48818  -0.48805  -0.47890
 Alpha  occ. eigenvalues --   -0.46662  -0.45829  -0.45749  -0.44806  -0.43804
 Alpha  occ. eigenvalues --   -0.37355  -0.36380
 Alpha virt. eigenvalues --    0.05044   0.11261   0.16534   0.19559   0.22994
 Alpha virt. eigenvalues --    0.24005   0.24871   0.27019   0.27734   0.27963
 Alpha virt. eigenvalues --    0.29777   0.30385   0.31522   0.31699   0.32213

 Mulliken charges:
               1
     1  C   -0.170276
     2  C   -0.219192
     3  C   -0.169411
     4  C    0.155269
     5  C   -0.179893
     6  C   -0.223793
     7  H    0.225692
     8  H    0.223535
     9  H    0.275718
    10  H    0.294120
    11  H    0.223516
    12  N    0.486771
    13  O   -0.462087
    14  O   -0.460232
    15  C   -0.299407
    16  C   -0.303912
    17  C   -0.476429
    18  H    0.151374
    19  H    0.145433
    20  H    0.160924
    21  H    0.153051
    22  H    0.150833
    23  H    0.154259
    24  H    0.168502
    25  C   -0.296748
    26  C   -0.299698
    27  C   -0.475153
    28  H    0.155025
    29  H    0.138513
    30  H    0.154354
    31  H    0.149514
    32  H    0.151534
    33  H    0.157715
    34  H    0.160577
 Sum of Mulliken charges =  -0.00000

 Dipole moment (field-independent basis, Debye):
    X=              0.3833    Y=             -4.4654    Z=              2.3003  Tot=              5.0376
 Quadrupole moment (field-independent basis, Debye-Ang):
   XX=            -87.2149   YY=            -96.5996   ZZ=            -96.1032
   XY=            -12.8298   XZ=              5.9893   YZ=             -0.1407

 Normal termination of Gaussian 16 at Thu May  6 04:46:40 2021.
