 Gaussian 16, Revision A.03,
 Gaussian 16:  EM64L-G16RevA.03 25-Dec-2016

 -------------
 #p 6-31g* mp2
 -------------

 ------------------------------------------------------
 Input file generated by CHIRIPA (05-May-2021 14:57:22)
 ------------------------------------------------------
 Symbolic Z-matrix:
 Charge =  0 Multiplicity = 1

                         Standard orientation:
 ---------------------------------------------------------------------
 Center     Atomic      Atomic             Coordinates (Angstroms)
 Number     Number       Type             X           Y           Z
 ---------------------------------------------------------------------
      1          6           0       -6.600112   -0.201756   -0.338740
      2          6           0       -5.773127   -1.202228   -0.859961
      3          6           0       -4.392382   -1.166280   -0.643626
      4          6           0       -3.869939   -0.110531    0.101851
      5          6           0       -4.667688    0.901106    0.634277
      6          6           0       -6.045731    0.844873    0.405404
      7          1           0       -7.671658   -0.237561   -0.511664
      8          1           0       -6.200901   -2.016254   -1.438249
      9          1           0       -3.729042   -1.927716   -1.035561
     10          1           0       -4.212121    1.699929    1.206779
     11          1           0       -6.685556    1.623225    0.811405
     12          7           0       -2.409636   -0.061736    0.337512
     13          8           0       -1.973965    0.879050    0.997625
     14          8           0       -1.728374   -0.965201   -0.142353
     15          6           0        2.758016    2.216745   -0.429173
     16          6           0        4.150255    2.249676   -0.559962
     17          6           0        4.909787    1.093205   -0.359381
     18          6           0        4.241379   -0.084271   -0.027611
     19          6           0        2.855680   -0.149077    0.109980
     20          6           0        2.116303    1.019584   -0.095208
     21          1           0        2.175822    3.119854   -0.586778
     22          1           0        4.651305    3.177993   -0.819235
     23          1           0        5.988870    1.090468   -0.454208
     24          1           0        2.384525   -1.089365    0.369380
     25          1           0        1.035203    0.991050    0.007039
     26          7           0        5.034792   -1.315028    0.187173
     27          8           0        4.422018   -2.339809    0.478665
     28          8           0        6.254422   -1.231609    0.059964
 ---------------------------------------------------------------------

 SCF Done:  E(RHF) =  -868.341357206     A.U. after   16 cycles
 E2 =    -0.2598577602D+01 EUMP2 =    -0.87093993480850D+03

 The electronic state is 1-A.
 Alpha  occ. eigenvalues --  -20.61894 -20.61886 -20.59806 -20.59791 -15.86864
 Alpha  occ. eigenvalues --  -15.84840 -11.31897 -11.29997 -11.28429 -11.28404
 Alpha  occ. eigenvalues --  -11.28100 -11.27360 -11.27340 -11.26598 -11.26377
 Alpha  occ. eigenvalues --  -11.26217 -11.25623 -11.25218  -1.60931  -1.58880
 Alpha  occ. eigenvalues --   -1.40488  -1.38438  -1.20034  -1.18129  -1.09495
 Alpha  occ. eigenvalues --   -1.07573  -1.05382  -1.03461  -0.96384  -0.94448
 Alpha  occ. eigenvalues --   -0.86796  -0.84878  -0.83226  -0.81257  -0.78312
 Alpha  occ. eigenvalues --   -0.76325  -0.73087  -0.72213  -0.71135  -0.71067
 Alpha  occ. eigenvalues --   -0.70199  -0.69258  -0.65687  -0.65381  -0.63765
 Alpha  occ. eigenvalues --   -0.63418  -0.62730  -0.60780  -0.55898  -0.54015
 Alpha  occ. eigenvalues --   -0.53731  -0.53467  -0.51858  -0.51532  -0.49863
 Alpha  occ. eigenvalues --   -0.49818  -0.47831  -0.47799  -0.45961  -0.43889
 Alpha  occ. eigenvalues --   -0.37994  -0.36968  -0.36140  -0.35064
 Alpha virt. eigenvalues --    0.04183   0.06141   0.10693   0.12573   0.15752
 Alpha virt. eigenvalues --    0.17694   0.20868   0.22818   0.26810   0.27723
 Alpha virt. eigenvalues --    0.28925   0.29511   0.30477   0.31947   0.32414

 Mulliken charges:
               1
     1  C   -0.169476
     2  C   -0.218640
     3  C   -0.170110
     4  C    0.158128
     5  C   -0.170496
     6  C   -0.218632
     7  H    0.228177
     8  H    0.226208
     9  H    0.277436
    10  H    0.275410
    11  H    0.225367
    12  N    0.489104
    13  O   -0.465632
    14  O   -0.460727
    15  C   -0.173207
    16  C   -0.218819
    17  C   -0.173940
    18  C    0.157807
    19  C   -0.173855
    20  C   -0.227251
    21  H    0.222695
    22  H    0.218124
    23  H    0.271075
    24  H    0.280378
    25  H    0.248701
    26  N    0.488012
    27  O   -0.461019
    28  O   -0.464818
 Sum of Mulliken charges =  -0.00000

 Dipole moment (field-independent basis, Debye):
    X=             -8.6863    Y=              4.0503    Z=             -1.5759  Tot=              9.7129
 Quadrupole moment (field-independent basis, Debye-Ang):
   XX=            -86.3253   YY=           -101.6158   ZZ=           -104.9086
   XY=             21.7251   XZ=             -1.3623   YZ=              2.1909

 Normal termination of Gaussian 16 at Fri May  7 06:23:34 2021.
