 Gaussian 16, Revision A.03,
 Gaussian 16:  EM64L-G16RevA.03 25-Dec-2016

 -------------
 #p 6-31g* mp2
 -------------

 ------------------------------------------------------
 Input file generated by CHIRIPA (05-May-2021 14:57:21)
 ------------------------------------------------------
 Symbolic Z-matrix:
 Charge =  0 Multiplicity = 1

                         Standard orientation:
 ---------------------------------------------------------------------
 Center     Atomic      Atomic             Coordinates (Angstroms)
 Number     Number       Type             X           Y           Z
 ---------------------------------------------------------------------
      1          6           0       -3.509869   -2.131338   -0.263750
      2          6           0       -3.460562   -1.261501   -1.358042
      3          6           0       -3.119768    0.082854   -1.181634
      4          6           0       -2.832961    0.525607    0.108715
      5          6           0       -2.873477   -0.316422    1.218956
      6          6           0       -3.216687   -1.656859    1.018995
      7          1           0       -3.775544   -3.174143   -0.409937
      8          1           0       -3.687761   -1.627214   -2.355378
      9          1           0       -3.073998    0.777969   -2.011175
     10          1           0       -2.641830    0.077359    2.201145
     11          1           0       -3.254184   -2.330109    1.870683
     12          7           0       -2.470899    1.946741    0.307937
     13          8           0       -2.222581    2.312138    1.454872
     14          8           0       -2.442290    2.668319   -0.686620
     15          6           0        5.122552    0.888051   -0.027854
     16          6           0        5.032106   -0.454019    0.355791
     17          6           0        3.801776   -1.117585    0.333114
     18          6           0        2.677053   -0.405411   -0.080524
     19          6           0        2.734867    0.932226   -0.468693
     20          6           0        3.975666    1.575679   -0.438149
     21          1           0        6.082370    1.395714   -0.007182
     22          1           0        5.921133   -0.990545    0.674880
     23          1           0        3.703254   -2.156134    0.624884
     24          1           0        1.831148    1.440674   -0.782048
     25          1           0        4.042921    2.617996   -0.736641
     26          7           0        1.369015   -1.097251   -0.108695
     27          8           0        0.392901   -0.447548   -0.477102
     28          8           0        1.344657   -2.276121    0.238164
 ---------------------------------------------------------------------

 SCF Done:  E(RHF) =  -868.339033415     A.U. after   16 cycles
 E2 =    -0.2600066079D+01 EUMP2 =    -0.87093909949451D+03

 The electronic state is 1-A.
 Alpha  occ. eigenvalues --  -20.60890 -20.60879 -20.59770 -20.59763 -15.85925
 Alpha  occ. eigenvalues --  -15.84805 -11.31110 -11.29752 -11.27699 -11.27608
 Alpha  occ. eigenvalues --  -11.27394 -11.26677 -11.26604 -11.26357 -11.26349
 Alpha  occ. eigenvalues --  -11.26092 -11.25350 -11.25330  -1.59956  -1.58842
 Alpha  occ. eigenvalues --   -1.39517  -1.38413  -1.19274  -1.17911  -1.08707
 Alpha  occ. eigenvalues --   -1.07414  -1.04646  -1.03323  -0.95571  -0.94323
 Alpha  occ. eigenvalues --   -0.86056  -0.84768  -0.82412  -0.81205  -0.77472
 Alpha  occ. eigenvalues --   -0.76276  -0.72190  -0.71273  -0.71066  -0.70388
 Alpha  occ. eigenvalues --   -0.70097  -0.69147  -0.64932  -0.64649  -0.63644
 Alpha  occ. eigenvalues --   -0.63414  -0.61989  -0.60739  -0.55170  -0.53913
 Alpha  occ. eigenvalues --   -0.52993  -0.52737  -0.51623  -0.51494  -0.48915
 Alpha  occ. eigenvalues --   -0.48799  -0.47824  -0.47779  -0.44970  -0.43920
 Alpha  occ. eigenvalues --   -0.37260  -0.36241  -0.35814  -0.34851
 Alpha virt. eigenvalues --    0.05032   0.06294   0.11413   0.12780   0.16564
 Alpha virt. eigenvalues --    0.17868   0.21567   0.22643   0.27503   0.28439
 Alpha virt. eigenvalues --    0.28507   0.29508   0.31115   0.32108   0.32713

 Mulliken charges:
               1
     1  C   -0.165612
     2  C   -0.215073
     3  C   -0.163895
     4  C    0.173552
     5  C   -0.166604
     6  C   -0.212848
     7  H    0.221138
     8  H    0.217548
     9  H    0.269199
    10  H    0.269391
    11  H    0.218761
    12  N    0.487627
    13  O   -0.466689
    14  O   -0.467552
    15  C   -0.170360
    16  C   -0.218851
    17  C   -0.171247
    18  C    0.157071
    19  C   -0.170202
    20  C   -0.218784
    21  H    0.225873
    22  H    0.222678
    23  H    0.273675
    24  H    0.281004
    25  H    0.226375
    26  N    0.491269
    27  O   -0.463849
    28  O   -0.463595
 Sum of Mulliken charges =  -0.00000

 Dipole moment (field-independent basis, Debye):
    X=              3.5503    Y=             -2.6171    Z=             -0.6521  Tot=              4.4586
 Quadrupole moment (field-independent basis, Debye-Ang):
   XX=            -73.8564   YY=           -109.6645   ZZ=           -100.7124
   XY=             16.8764   XZ=              3.1760   YZ=             -3.7630

 Normal termination of Gaussian 16 at Wed May  5 16:13:50 2021.
