 Gaussian 16, Revision A.03,
 Gaussian 16:  EM64L-G16RevA.03 25-Dec-2016

 -------------
 #p 6-31g* mp2
 -------------

 ------------------------------------------------------
 Input file generated by CHIRIPA (05-May-2021 14:51:09)
 ------------------------------------------------------
 Symbolic Z-matrix:
 Charge =  0 Multiplicity = 1

                         Standard orientation:
 ---------------------------------------------------------------------
 Center     Atomic      Atomic             Coordinates (Angstroms)
 Number     Number       Type             X           Y           Z
 ---------------------------------------------------------------------
      1          6           0       -3.644738   -0.602882    0.571447
      2          6           0       -2.297192    0.113170    0.474615
      3          6           0       -1.219640   -0.534697    1.344640
      4          1           0       -3.973794   -0.611329    1.619586
      5          1           0       -3.515986   -1.653311    0.275782
      6          1           0       -2.428725    1.162276    0.769048
      7          1           0       -1.971397    0.120081   -0.573443
      8          1           0       -1.059278   -1.576142    1.047525
      9          1           0       -1.519204   -0.528026    2.397644
     10          1           0       -0.264550   -0.006922    1.260277
     11          6           0       -4.732177    0.033079   -0.292704
     12          6           0       -6.079723   -0.682973   -0.195872
     13          6           0       -7.157275   -0.035106   -1.065897
     14          1           0       -4.860929    1.083508    0.002961
     15          1           0       -4.403121    0.041526   -1.340843
     16          1           0       -6.405518   -0.689884    0.852186
     17          1           0       -5.948190   -1.732079   -0.490305
     18          1           0       -6.857711   -0.041777   -2.118901
     19          1           0       -7.317637    1.006339   -0.768782
     20          1           0       -8.112365   -0.562881   -0.981534
     21          6           0        4.705253   -0.198093    0.148849
     22          6           0        5.806122   -0.571784   -0.844341
     23          6           0        6.832433   -1.538671   -0.253063
     24          1           0        5.162336    0.250784    1.041333
     25          1           0        4.197630   -1.113085    0.484263
     26          1           0        6.310608    0.343762   -1.178837
     27          1           0        5.346352   -1.019647   -1.734647
     28          1           0        6.348178   -2.467918    0.064112
     29          1           0        7.317913   -1.096762    0.623081
     30          1           0        7.610264   -1.792437   -0.980002
     31          6           0        3.671662    0.767895   -0.427591
     32          6           0        2.570792    1.141587    0.565598
     33          6           0        1.544482    2.108474   -0.025681
     34          1           0        4.179285    1.682888   -0.763007
     35          1           0        3.214579    0.319019   -1.320077
     36          1           0        3.030562    1.589451    1.455904
     37          1           0        2.066307    0.226041    0.900093
     38          1           0        1.059003    1.666565   -0.901823
     39          1           0        2.028737    3.037721   -0.342855
     40          1           0        0.766652    2.362240    0.701260
 ---------------------------------------------------------------------

 SCF Done:  E(RHF) =  -470.732976262     A.U. after   11 cycles
 E2 =    -0.1582996612D+01 EUMP2 =    -0.47231597287378D+03

 The electronic state is 1-A.
 Alpha  occ. eigenvalues --  -11.21610 -11.21602 -11.21590 -11.21572 -11.21410
 Alpha  occ. eigenvalues --  -11.21386 -11.21350 -11.21326 -11.21089 -11.21070
 Alpha  occ. eigenvalues --  -11.21061 -11.20992  -1.08445  -1.08404  -1.03578
 Alpha  occ. eigenvalues --   -1.03475  -0.96046  -0.95905  -0.87020  -0.86961
 Alpha  occ. eigenvalues --   -0.79646  -0.79532  -0.78258  -0.78214  -0.65090
 Alpha  occ. eigenvalues --   -0.65036  -0.61044  -0.60896  -0.59607  -0.59109
 Alpha  occ. eigenvalues --   -0.57771  -0.57360  -0.55284  -0.55224  -0.52768
 Alpha  occ. eigenvalues --   -0.52583  -0.52450  -0.52269  -0.49938  -0.49891
 Alpha  occ. eigenvalues --   -0.47937  -0.47881  -0.46658  -0.46581  -0.45793
 Alpha  occ. eigenvalues --   -0.45772  -0.45711  -0.45685  -0.43804  -0.43710
 Alpha virt. eigenvalues --    0.21352   0.23088   0.23427   0.25370   0.26398
 Alpha virt. eigenvalues --    0.26592   0.27014   0.27168   0.27881   0.29175
 Alpha virt. eigenvalues --    0.30307   0.30677   0.31306   0.31583   0.32213

 Mulliken charges:
               1
     1  C   -0.298511
     2  C   -0.298310
     3  C   -0.487063
     4  H    0.149592
     5  H    0.149330
     6  H    0.151793
     7  H    0.151724
     8  H    0.154106
     9  H    0.154781
    10  H    0.172845
    11  C   -0.298184
    12  C   -0.299610
    13  C   -0.475686
    14  H    0.149558
    15  H    0.149555
    16  H    0.151914
    17  H    0.151846
    18  H    0.155147
    19  H    0.155196
    20  H    0.160196
    21  C   -0.298509
    22  C   -0.299666
    23  C   -0.475724
    24  H    0.149703
    25  H    0.149909
    26  H    0.151913
    27  H    0.151914
    28  H    0.155246
    29  H    0.155202
    30  H    0.160238
    31  C   -0.297594
    32  C   -0.305788
    33  C   -0.478370
    34  H    0.149568
    35  H    0.149638
    36  H    0.152275
    37  H    0.156140
    38  H    0.156279
    39  H    0.156103
    40  H    0.161304
 Sum of Mulliken charges =  -0.00000

 Dipole moment (field-independent basis, Debye):
    X=              0.0277    Y=              0.0167    Z=             -0.0026  Tot=              0.0325
 Quadrupole moment (field-independent basis, Debye-Ang):
   XX=            -85.9252   YY=            -84.4028   ZZ=            -84.4927
   XY=              1.1424   XZ=             -0.7451   YZ=              1.1722

 Normal termination of Gaussian 16 at Wed May  5 22:58:37 2021.
