 Gaussian 16, Revision A.03,
 Gaussian 16:  EM64L-G16RevA.03 25-Dec-2016

 -------------
 #p 6-31g* mp2
 -------------

 ------------------------------------------------------
 Input file generated by CHIRIPA (05-May-2021 14:55:23)
 ------------------------------------------------------
 Symbolic Z-matrix:
 Charge =  0 Multiplicity = 1

                         Standard orientation:
 ---------------------------------------------------------------------
 Center     Atomic      Atomic             Coordinates (Angstroms)
 Number     Number       Type             X           Y           Z
 ---------------------------------------------------------------------
      1          6           0       -4.110813   -2.321496    0.387016
      2          6           0       -2.832851   -2.045217    0.884011
      3          6           0       -2.241129   -0.797287    0.667022
      4          6           0       -2.958993    0.155348   -0.054398
      5          6           0       -4.233827   -0.089710   -0.562370
      6          6           0       -4.805997   -1.344583   -0.333318
      7          1           0       -4.562882   -3.293614    0.560264
      8          1           0       -2.290628   -2.801987    1.443778
      9          1           0       -1.253157   -0.556749    1.040482
     10          1           0       -4.749748    0.684837   -1.116734
     11          1           0       -5.798624   -1.556351   -0.720475
     12          7           0       -2.342913    1.480150   -0.290500
     13          8           0       -2.996116    2.302401   -0.929144
     14          8           0       -1.218493    1.671194    0.167558
     15          6           0        3.359895    0.508767    0.318542
     16          6           0        3.572665    2.009277    0.115608
     17          6           0        2.448881    2.852588    0.718710
     18          1           0        2.399970    0.217150   -0.129176
     19          1           0        3.279647    0.299053    1.394171
     20          1           0        3.653870    2.215909   -0.959252
     21          1           0        4.532283    2.297319    0.563693
     22          1           0        2.370271    2.675671    1.796264
     23          1           0        1.486867    2.593798    0.264664
     24          1           0        2.621170    3.922014    0.562169
     25          6           0        4.475064   -0.347497   -0.278899
     26          6           0        4.262293   -1.848008   -0.075965
     27          6           0        5.386077   -2.691319   -0.679067
     28          1           0        4.555312   -0.137784   -1.354526
     29          1           0        5.434988   -0.055880    0.168820
     30          1           0        3.302675   -2.136051   -0.524050
     31          1           0        4.181088   -2.054640    0.998896
     32          1           0        6.348092   -2.432529   -0.225020
     33          1           0        5.464688   -2.514402   -1.756619
     34          1           0        5.213788   -3.760744   -0.522525
 ---------------------------------------------------------------------

 SCF Done:  E(RHF) =  -669.536174067     A.U. after   15 cycles
 E2 =    -0.2090874903D+01 EUMP2 =    -0.67162704896998D+03

 The electronic state is 1-A.
 Alpha  occ. eigenvalues --  -20.60930 -20.60923 -15.85971 -11.31282 -11.27845
 Alpha  occ. eigenvalues --  -11.27838 -11.27582 -11.26852 -11.26841 -11.21420
 Alpha  occ. eigenvalues --  -11.20995 -11.20939 -11.20806 -11.20734 -11.19724
 Alpha  occ. eigenvalues --   -1.59994  -1.39550  -1.19450  -1.08856  -1.07924
 Alpha  occ. eigenvalues --   -1.04845  -1.02935  -0.95701  -0.95355  -0.86371
 Alpha  occ. eigenvalues --   -0.86245  -0.82534  -0.79046  -0.77712  -0.77571
 Alpha  occ. eigenvalues --   -0.72196  -0.71309  -0.70558  -0.65107  -0.64847
 Alpha  occ. eigenvalues --   -0.64558  -0.62191  -0.60327  -0.58807  -0.56963
 Alpha  occ. eigenvalues --   -0.55350  -0.54624  -0.53178  -0.52936  -0.52055
 Alpha  occ. eigenvalues --   -0.51769  -0.49336  -0.48945  -0.48898  -0.47320
 Alpha  occ. eigenvalues --   -0.46087  -0.45235  -0.45161  -0.44921  -0.43209
 Alpha  occ. eigenvalues --   -0.37431  -0.36447
 Alpha virt. eigenvalues --    0.04936   0.11207   0.16430   0.21246   0.23289
 Alpha virt. eigenvalues --    0.24890   0.26685   0.27326   0.27677   0.28530
 Alpha virt. eigenvalues --    0.28835   0.30872   0.31890   0.32138   0.32522

 Mulliken charges:
               1
     1  C   -0.170603
     2  C   -0.218612
     3  C   -0.171295
     4  C    0.157400
     5  C   -0.170528
     6  C   -0.218633
     7  H    0.225975
     8  H    0.224063
     9  H    0.276527
    10  H    0.275810
    11  H    0.223755
    12  N    0.494431
    13  O   -0.458936
    14  O   -0.466280
    15  C   -0.298001
    16  C   -0.299042
    17  C   -0.486184
    18  H    0.151339
    19  H    0.145854
    20  H    0.150787
    21  H    0.147361
    22  H    0.149124
    23  H    0.184647
    24  H    0.156629
    25  C   -0.297652
    26  C   -0.298844
    27  C   -0.475202
    28  H    0.149701
    29  H    0.148930
    30  H    0.149094
    31  H    0.149659
    32  H    0.155405
    33  H    0.155506
    34  H    0.157814
 Sum of Mulliken charges =  -0.00000

 Dipole moment (field-independent basis, Debye):
    X=             -2.4337    Y=             -4.6091    Z=              0.7829  Tot=              5.2706
 Quadrupole moment (field-independent basis, Debye-Ang):
   XX=            -79.8400   YY=            -97.0635   ZZ=            -93.7353
   XY=             12.9195   XZ=              0.6063   YZ=             -0.9104

 Normal termination of Gaussian 16 at Wed May  5 22:22:15 2021.
