 Gaussian 16, Revision A.03,
 Gaussian 16:  EM64L-G16RevA.03 25-Dec-2016

 -------------
 #p 6-31g* mp2
 -------------

 ------------------------------------------------------
 Input file generated by CHIRIPA (05-May-2021 14:51:09)
 ------------------------------------------------------
 Symbolic Z-matrix:
 Charge =  0 Multiplicity = 1

                         Standard orientation:
 ---------------------------------------------------------------------
 Center     Atomic      Atomic             Coordinates (Angstroms)
 Number     Number       Type             X           Y           Z
 ---------------------------------------------------------------------
      1          6           0        2.382376   -0.121603   -0.437427
      2          6           0        3.730894    0.598854   -0.416781
      3          6           0        3.818121    1.719896   -1.452855
      4          1           0        2.209307   -0.533637   -1.441030
      5          1           0        1.581516    0.608790   -0.257029
      6          1           0        4.529073   -0.132912   -0.595790
      7          1           0        3.900860    1.009056    0.586943
      8          1           0        3.042452    2.471414   -1.273520
      9          1           0        3.674235    1.322957   -2.462973
     10          1           0        4.790356    2.221481   -1.420745
     11          6           0        2.279853   -1.244962    0.592759
     12          6           0        0.931335   -1.965418    0.572113
     13          6           0        0.844109   -3.086461    1.608187
     14          1           0        3.080713   -1.975355    0.412361
     15          1           0        2.452923   -0.832927    1.596362
     16          1           0        0.761369   -2.375621   -0.431610
     17          1           0        0.133156   -1.233652    0.751122
     18          1           0        0.987994   -2.689522    2.618305
     19          1           0        1.619777   -3.837979    1.428852
     20          1           0       -0.128127   -3.588045    1.576077
     21          6           0       -1.789107    1.097018    0.266546
     22          6           0       -2.230159    2.524796    0.590440
     23          6           0       -1.135016    3.340013    1.278830
     24          1           0       -1.484720    0.594562    1.194896
     25          1           0       -0.898502    1.132672   -0.376063
     26          1           0       -3.120486    2.486463    1.231114
     27          1           0       -2.533712    3.023850   -0.338762
     28          1           0       -0.247279    3.407971    0.641722
     29          1           0       -0.837386    2.867531    2.220517
     30          1           0       -1.471657    4.357390    1.501263
     31          6           0       -2.873122    0.269547   -0.421879
     32          6           0       -2.432070   -1.158232   -0.745773
     33          6           0       -3.527213   -1.973448   -1.434162
     34          1           0       -3.763727    0.233892    0.220730
     35          1           0       -3.177509    0.772003   -1.350228
     36          1           0       -2.128516   -1.657285    0.183430
     37          1           0       -1.541744   -1.119898   -1.386446
     38          1           0       -3.824843   -1.500966   -2.375850
     39          1           0       -4.414950   -2.041406   -0.797054
     40          1           0       -3.190573   -2.990825   -1.656595
 ---------------------------------------------------------------------

 SCF Done:  E(RHF) =  -470.731301548     A.U. after   11 cycles
 E2 =    -0.1585735976D+01 EUMP2 =    -0.47231703752406D+03

 The electronic state is 1-A.
 Alpha  occ. eigenvalues --  -11.21664 -11.21574 -11.21525 -11.21454 -11.21381
 Alpha  occ. eigenvalues --  -11.21380 -11.21336 -11.21262 -11.21156 -11.21074
 Alpha  occ. eigenvalues --  -11.21044 -11.21016  -1.08517  -1.08328  -1.03586
 Alpha  occ. eigenvalues --   -1.03443  -0.96022  -0.95933  -0.87040  -0.86945
 Alpha  occ. eigenvalues --   -0.79808  -0.79438  -0.78628  -0.77818  -0.65125
 Alpha  occ. eigenvalues --   -0.64997  -0.60975  -0.60859  -0.59521  -0.59190
 Alpha  occ. eigenvalues --   -0.57700  -0.57473  -0.55336  -0.55205  -0.52738
 Alpha  occ. eigenvalues --   -0.52609  -0.52463  -0.52345  -0.49975  -0.49873
 Alpha  occ. eigenvalues --   -0.48245  -0.47657  -0.46854  -0.46642  -0.46461
 Alpha  occ. eigenvalues --   -0.45705  -0.45520  -0.44748  -0.43810  -0.43695
 Alpha virt. eigenvalues --    0.21113   0.22397   0.23642   0.24389   0.24902
 Alpha virt. eigenvalues --    0.26098   0.26659   0.27060   0.28422   0.30379
 Alpha virt. eigenvalues --    0.30712   0.31267   0.31505   0.31911   0.32156

 Mulliken charges:
               1
     1  C   -0.304540
     2  C   -0.299103
     3  C   -0.475556
     4  H    0.148411
     5  H    0.155203
     6  H    0.151950
     7  H    0.152122
     8  H    0.154279
     9  H    0.154944
    10  H    0.160399
    11  C   -0.297070
    12  C   -0.308089
    13  C   -0.477077
    14  H    0.148599
    15  H    0.148746
    16  H    0.151481
    17  H    0.164906
    18  H    0.154316
    19  H    0.155046
    20  H    0.159661
    21  C   -0.307285
    22  C   -0.298757
    23  C   -0.476193
    24  H    0.149976
    25  H    0.156246
    26  H    0.152229
    27  H    0.152323
    28  H    0.154570
    29  H    0.154991
    30  H    0.160949
    31  C   -0.297271
    32  C   -0.303538
    33  C   -0.475409
    34  H    0.149216
    35  H    0.149555
    36  H    0.155403
    37  H    0.154907
    38  H    0.154784
    39  H    0.154721
    40  H    0.159955
 Sum of Mulliken charges =  -0.00000

 Dipole moment (field-independent basis, Debye):
    X=             -0.0480    Y=              0.0281    Z=             -0.0061  Tot=              0.0559
 Quadrupole moment (field-independent basis, Debye-Ang):
   XX=            -85.2438   YY=            -85.5864   ZZ=            -84.2564
   XY=             -0.8090   XZ=             -0.7938   YZ=              0.4516

 Normal termination of Gaussian 16 at Wed May  5 23:00:23 2021.
