 Gaussian 16, Revision A.03,
 Gaussian 16:  EM64L-G16RevA.03 25-Dec-2016

 -------------
 #p 6-31g* mp2
 -------------

 ------------------------------------------------------
 Input file generated by CHIRIPA (05-May-2021 14:55:21)
 ------------------------------------------------------
 Symbolic Z-matrix:
 Charge =  0 Multiplicity = 1

                         Standard orientation:
 ---------------------------------------------------------------------
 Center     Atomic      Atomic             Coordinates (Angstroms)
 Number     Number       Type             X           Y           Z
 ---------------------------------------------------------------------
      1          6           0       -4.489218   -2.150224   -0.211273
      2          6           0       -3.303312   -2.004648    0.516021
      3          6           0       -2.637937   -0.775572    0.550582
      4          6           0       -3.189079    0.291694   -0.156862
      5          6           0       -4.368910    0.178155   -0.890617
      6          6           0       -5.017301   -1.060279   -0.911037
      7          1           0       -4.999500   -3.108635   -0.232629
      8          1           0       -2.890884   -2.849387    1.060415
      9          1           0       -1.718335   -0.635075    1.105569
     10          1           0       -4.755676    1.038431   -1.423304
     11          1           0       -5.938132   -1.170422   -1.476708
     12          7           0       -2.493666    1.597816   -0.127758
     13          8           0       -2.999791    2.522715   -0.759452
     14          8           0       -1.455644    1.671925    0.526196
     15          6           0        3.680399   -0.360299    0.669395
     16          6           0        2.614080    0.684635    0.999644
     17          6           0        1.523957    0.144533    1.925773
     18          1           0        3.199407   -1.231038    0.203126
     19          1           0        4.135464   -0.717546    1.603571
     20          1           0        2.162125    1.040812    0.065037
     21          1           0        3.097690    1.553067    1.465005
     22          1           0        1.956007   -0.193359    2.873276
     23          1           0        1.015125   -0.708525    1.465353
     24          1           0        0.772134    0.907984    2.148848
     25          6           0        4.777051    0.164640   -0.255549
     26          6           0        5.843368   -0.880295   -0.585798
     27          6           0        6.933491   -0.340193   -1.511927
     28          1           0        4.321985    0.521886   -1.189726
     29          1           0        5.258041    1.035378    0.210719
     30          1           0        5.359758   -1.748727   -1.051160
     31          1           0        6.295324   -1.236473    0.348808
     32          1           0        7.442324    0.512864   -1.051508
     33          1           0        6.501442   -0.002301   -2.459431
     34          1           0        7.685315   -1.103644   -1.735002
 ---------------------------------------------------------------------

 SCF Done:  E(RHF) =  -669.535928246     A.U. after   15 cycles
 E2 =    -0.2091308728D+01 EUMP2 =    -0.67162723697419D+03

 The electronic state is 1-A.
 Alpha  occ. eigenvalues --  -20.60854 -20.60840 -15.85896 -11.31215 -11.27789
 Alpha  occ. eigenvalues --  -11.27756 -11.27529 -11.26798 -11.26782 -11.21322
 Alpha  occ. eigenvalues --  -11.21006 -11.20949 -11.20895 -11.20822 -11.20428
 Alpha  occ. eigenvalues --   -1.59920  -1.39475  -1.19389  -1.08795  -1.07996
 Alpha  occ. eigenvalues --   -1.04785  -1.03068  -0.95660  -0.95513  -0.86569
 Alpha  occ. eigenvalues --   -0.86184  -0.82470  -0.79151  -0.77803  -0.77514
 Alpha  occ. eigenvalues --   -0.72129  -0.71237  -0.70499  -0.65048  -0.64797
 Alpha  occ. eigenvalues --   -0.64627  -0.62139  -0.60470  -0.58875  -0.57106
 Alpha  occ. eigenvalues --   -0.55301  -0.54852  -0.53120  -0.52884  -0.52188
 Alpha  occ. eigenvalues --   -0.51964  -0.49526  -0.48870  -0.48853  -0.47450
 Alpha  occ. eigenvalues --   -0.46188  -0.45356  -0.45263  -0.44884  -0.43307
 Alpha  occ. eigenvalues --   -0.37374  -0.36388
 Alpha virt. eigenvalues --    0.04999   0.11256   0.16497   0.20938   0.23245
 Alpha virt. eigenvalues --    0.24324   0.26287   0.27214   0.27706   0.27964
 Alpha virt. eigenvalues --    0.29393   0.30884   0.31503   0.32171   0.32621

 Mulliken charges:
               1
     1  C   -0.170421
     2  C   -0.220243
     3  C   -0.175190
     4  C    0.156652
     5  C   -0.170531
     6  C   -0.218880
     7  H    0.225698
     8  H    0.223960
     9  H    0.283870
    10  H    0.275533
    11  H    0.223492
    12  N    0.492760
    13  O   -0.459788
    14  O   -0.465838
    15  C   -0.297980
    16  C   -0.299155
    17  C   -0.481222
    18  H    0.145819
    19  H    0.147104
    20  H    0.160258
    21  H    0.152428
    22  H    0.148652
    23  H    0.140904
    24  H    0.183498
    25  C   -0.298103
    26  C   -0.299109
    27  C   -0.475482
    28  H    0.150505
    29  H    0.150077
    30  H    0.150277
    31  H    0.150910
    32  H    0.155375
    33  H    0.155320
    34  H    0.158850
 Sum of Mulliken charges =  -0.00000

 Dipole moment (field-independent basis, Debye):
    X=             -2.5816    Y=             -4.4389    Z=             -0.1179  Tot=              5.1364
 Quadrupole moment (field-independent basis, Debye-Ang):
   XX=            -77.9337   YY=            -97.1783   ZZ=            -93.4758
   XY=             12.9600   XZ=              4.1331   YZ=             -0.0436

 Normal termination of Gaussian 16 at Thu May  6 04:35:17 2021.
