 Gaussian 16, Revision A.03,
 Gaussian 16:  EM64L-G16RevA.03 25-Dec-2016

 -------------
 #p 6-31g* mp2
 -------------

 ------------------------------------------------------
 Input file generated by CHIRIPA (05-May-2021 14:51:14)
 ------------------------------------------------------
 Symbolic Z-matrix:
 Charge =  0 Multiplicity = 1

                         Standard orientation:
 ---------------------------------------------------------------------
 Center     Atomic      Atomic             Coordinates (Angstroms)
 Number     Number       Type             X           Y           Z
 ---------------------------------------------------------------------
      1          6           0       -2.063539   -1.108419   -0.050665
      2          6           0       -1.991100   -2.150555    1.065888
      3          6           0       -0.888480   -3.185078    0.838324
      4          1           0       -2.229559   -1.618492   -1.009418
      5          1           0       -1.093001   -0.599546   -0.131291
      6          1           0       -2.961913   -2.656351    1.145305
      7          1           0       -1.825424   -1.637927    2.022120
      8          1           0        0.090471   -2.698339    0.780530
      9          1           0       -1.052475   -3.722550   -0.101266
     10          1           0       -0.854485   -3.920364    1.648299
     11          6           0       -3.160996   -0.067346    0.162600
     12          6           0       -3.233434    0.974790   -0.953953
     13          6           0       -4.336054    2.009313   -0.726390
     14          1           0       -4.131533   -0.576219    0.243225
     15          1           0       -2.994976    0.442727    1.121353
     16          1           0       -3.399110    0.462162   -1.910186
     17          1           0       -2.262621    1.480586   -1.033371
     18          1           0       -4.172059    2.546785    0.213201
     19          1           0       -5.315006    1.522574   -0.668596
     20          1           0       -4.370049    2.744599   -1.536364
     21          6           0        2.118422    1.097161    0.227200
     22          6           0        2.693326    2.510764    0.323095
     23          6           0        1.693462    3.518280    0.891406
     24          1           0        1.217630    1.116395   -0.401409
     25          1           0        1.795793    0.771529    1.225834
     26          1           0        3.016045    2.833100   -0.675188
     27          1           0        3.592963    2.488129    0.951392
     28          1           0        1.379335    3.223440    1.897883
     29          1           0        0.799140    3.570372    0.262061
     30          1           0        2.125168    4.522230    0.951209
     31          6           0        3.106113    0.078604   -0.339135
     32          6           0        2.531209   -1.334999   -0.435030
     33          6           0        3.531072   -2.342514   -1.003341
     34          1           0        3.428742    0.404237   -1.337769
     35          1           0        4.006905    0.059370    0.289474
     36          1           0        1.631571   -1.312364   -1.063326
     37          1           0        2.208489   -1.657335    0.563253
     38          1           0        4.425394   -2.394607   -0.373996
     39          1           0        3.845199   -2.047675   -2.009817
     40          1           0        3.099366   -3.346464   -1.063144
 ---------------------------------------------------------------------

 SCF Done:  E(RHF) =  -470.733016225     A.U. after   11 cycles
 E2 =    -0.1583957389D+01 EUMP2 =    -0.47231697361385D+03

 The electronic state is 1-A.
 Alpha  occ. eigenvalues --  -11.21671 -11.21647 -11.21596 -11.21530 -11.21487
 Alpha  occ. eigenvalues --  -11.21418 -11.21356 -11.21289 -11.21136 -11.21095
 Alpha  occ. eigenvalues --  -11.21059 -11.20919  -1.08510  -1.08377  -1.03600
 Alpha  occ. eigenvalues --   -1.03470  -0.96042  -0.95919  -0.87058  -0.86938
 Alpha  occ. eigenvalues --   -0.79730  -0.79495  -0.78414  -0.78108  -0.65140
 Alpha  occ. eigenvalues --   -0.65007  -0.61008  -0.60874  -0.59442  -0.59265
 Alpha  occ. eigenvalues --   -0.57734  -0.57464  -0.55324  -0.55208  -0.52729
 Alpha  occ. eigenvalues --   -0.52619  -0.52475  -0.52339  -0.50009  -0.49871
 Alpha  occ. eigenvalues --   -0.48153  -0.47708  -0.46731  -0.46582  -0.46203
 Alpha  occ. eigenvalues --   -0.45742  -0.45710  -0.45215  -0.43840  -0.43732
 Alpha virt. eigenvalues --    0.20598   0.22804   0.23524   0.24520   0.24982
 Alpha virt. eigenvalues --    0.26111   0.27020   0.27400   0.28611   0.30002
 Alpha virt. eigenvalues --    0.30523   0.31038   0.31728   0.31862   0.31945

 Mulliken charges:
               1
     1  C   -0.303958
     2  C   -0.298656
     3  C   -0.484334
     4  H    0.148854
     5  H    0.155386
     6  H    0.151432
     7  H    0.151229
     8  H    0.165548
     9  H    0.154104
    10  H    0.159017
    11  C   -0.297944
    12  C   -0.299781
    13  C   -0.475715
    14  H    0.149460
    15  H    0.149828
    16  H    0.151766
    17  H    0.151110
    18  H    0.155451
    19  H    0.155256
    20  H    0.160043
    21  C   -0.301457
    22  C   -0.299625
    23  C   -0.475812
    24  H    0.151753
    25  H    0.149179
    26  H    0.152310
    27  H    0.152369
    28  H    0.155131
    29  H    0.154967
    30  H    0.160705
    31  C   -0.297371
    32  C   -0.306070
    33  C   -0.476088
    34  H    0.149819
    35  H    0.149876
    36  H    0.155712
    37  H    0.154420
    38  H    0.155186
    39  H    0.155355
    40  H    0.161544
 Sum of Mulliken charges =  -0.00000

 Dipole moment (field-independent basis, Debye):
    X=              0.0704    Y=              0.0182    Z=             -0.0119  Tot=              0.0737
 Quadrupole moment (field-independent basis, Debye-Ang):
   XX=            -85.1489   YY=            -85.8594   ZZ=            -83.7834
   XY=              1.3643   XZ=              0.9126   YZ=             -0.1705

 Normal termination of Gaussian 16 at Thu May  6 07:11:12 2021.
