 Gaussian 16, Revision A.03,
 Gaussian 16:  EM64L-G16RevA.03 25-Dec-2016

 -------------
 #p 6-31g* mp2
 -------------

 ------------------------------------------------------
 Input file generated by CHIRIPA (05-May-2021 14:57:25)
 ------------------------------------------------------
 Symbolic Z-matrix:
 Charge =  0 Multiplicity = 1

                         Standard orientation:
 ---------------------------------------------------------------------
 Center     Atomic      Atomic             Coordinates (Angstroms)
 Number     Number       Type             X           Y           Z
 ---------------------------------------------------------------------
      1          6           0       -1.631061    1.987566   -0.318973
      2          6           0       -1.387458    0.836157   -1.074906
      3          6           0       -2.250674   -0.260746   -0.996102
      4          6           0       -3.352907   -0.171616   -0.147322
      5          6           0       -3.622531    0.961600    0.618456
      6          6           0       -2.745854    2.046509    0.523810
      7          1           0       -0.955265    2.835008   -0.386343
      8          1           0       -0.522478    0.787569   -1.730263
      9          1           0       -2.085836   -1.164448   -1.570183
     10          1           0       -4.493034    0.980403    1.262884
     11          1           0       -2.937528    2.939417    1.112045
     12          7           0       -4.273881   -1.326510   -0.055510
     13          8           0       -5.237986   -1.222970    0.699750
     14          8           0       -4.014196   -2.313386   -0.740546
     15          6           0        4.318797   -2.280572    0.134814
     16          6           0        3.396023   -1.967973    1.138453
     17          6           0        2.770663   -0.717838    1.163637
     18          6           0        3.093067    0.199943    0.165125
     19          6           0        4.008180   -0.081745   -0.848043
     20          6           0        4.621397   -1.338122   -0.853488
     21          1           0        4.799875   -3.254131    0.122917
     22          1           0        3.159086   -2.697932    1.907261
     23          1           0        2.052515   -0.449573    1.928957
     24          1           0        4.223987    0.666581   -1.600940
     25          1           0        5.337641   -1.578138   -1.634150
     26          7           0        2.437454    1.526710    0.181338
     27          8           0        2.738701    2.317827   -0.709739
     28          8           0        1.634751    1.750388    1.084817
 ---------------------------------------------------------------------

 SCF Done:  E(RHF) =  -868.340168647     A.U. after   16 cycles
 E2 =    -0.2599238817D+01 EUMP2 =    -0.87093940746391D+03

 The electronic state is 1-A.
 Alpha  occ. eigenvalues --  -20.61805 -20.61767 -20.60287 -20.60278 -15.86790
 Alpha  occ. eigenvalues --  -15.85336 -11.31857 -11.30451 -11.28401 -11.28359
 Alpha  occ. eigenvalues --  -11.28055 -11.27330 -11.27292 -11.27070 -11.27037
 Alpha  occ. eigenvalues --  -11.26519 -11.25919 -11.25872  -1.60864  -1.59370
 Alpha  occ. eigenvalues --   -1.40415  -1.38930  -1.19999  -1.18605  -1.09451
 Alpha  occ. eigenvalues --   -1.07988  -1.05346  -1.03997  -0.96335  -0.94869
 Alpha  occ. eigenvalues --   -0.86757  -0.85378  -0.83169  -0.81736  -0.78255
 Alpha  occ. eigenvalues --   -0.76863  -0.73022  -0.72193  -0.71555  -0.71087
 Alpha  occ. eigenvalues --   -0.70696  -0.69572  -0.65645  -0.65335  -0.64237
 Alpha  occ. eigenvalues --   -0.63982  -0.62690  -0.61372  -0.55851  -0.54320
 Alpha  occ. eigenvalues --   -0.53700  -0.53424  -0.52314  -0.52078  -0.49797
 Alpha  occ. eigenvalues --   -0.49765  -0.48326  -0.48289  -0.45877  -0.44394
 Alpha  occ. eigenvalues --   -0.37964  -0.36938  -0.36433  -0.35633
 Alpha virt. eigenvalues --    0.04203   0.05731   0.10719   0.12039   0.15777
 Alpha virt. eigenvalues --    0.17320   0.20931   0.22286   0.26868   0.27746
 Alpha virt. eigenvalues --    0.27959   0.29335   0.30578   0.31904   0.32122

 Mulliken charges:
               1
     1  C   -0.158786
     2  C   -0.224385
     3  C   -0.173069
     4  C    0.155852
     5  C   -0.171769
     6  C   -0.221373
     7  H    0.242012
     8  H    0.220945
     9  H    0.270844
    10  H    0.272733
    11  H    0.223337
    12  N    0.488296
    13  O   -0.462627
    14  O   -0.464453
    15  C   -0.169547
    16  C   -0.218457
    17  C   -0.169912
    18  C    0.155294
    19  C   -0.172254
    20  C   -0.218663
    21  H    0.228779
    22  H    0.227272
    23  H    0.277802
    24  H    0.275233
    25  H    0.225498
    26  N    0.486311
    27  O   -0.464121
    28  O   -0.460792
 Sum of Mulliken charges =  -0.00000

 Dipole moment (field-independent basis, Debye):
    X=              5.9440    Y=             -0.5021    Z=             -0.2667  Tot=              5.9711
 Quadrupole moment (field-independent basis, Debye-Ang):
   XX=           -110.9970   YY=           -107.0379   ZZ=            -99.9409
   XY=            -30.3626   XZ=             -3.7317   YZ=             -0.7860

 Normal termination of Gaussian 16 at Fri May  7 09:37:01 2021.
