 Gaussian 16, Revision A.03,
 Gaussian 16:  EM64L-G16RevA.03 25-Dec-2016

 -------------
 #p 6-31g* mp2
 -------------

 ------------------------------------------------------
 Input file generated by CHIRIPA (05-May-2021 14:53:16)
 ------------------------------------------------------
 Symbolic Z-matrix:
 Charge =  0 Multiplicity = 1

                         Standard orientation:
 ---------------------------------------------------------------------
 Center     Atomic      Atomic             Coordinates (Angstroms)
 Number     Number       Type             X           Y           Z
 ---------------------------------------------------------------------
      1          6           0        3.046327    0.932650   -0.330585
      2          6           0        3.371435    2.411943   -0.120870
      3          6           0        2.275540    3.338591   -0.648251
      4          1           0        2.890805    0.746279   -1.402044
      5          1           0        2.095704    0.698991    0.168529
      6          1           0        4.321856    2.642423   -0.619062
      7          1           0        3.526390    2.594775    0.950194
      8          1           0        1.325050    3.137357   -0.143598
      9          1           0        2.125036    3.185275   -1.721770
     10          1           0        2.528478    4.391314   -0.488071
     11          6           0        4.132447   -0.006248    0.191468
     12          6           0        3.807338   -1.485542   -0.018247
     13          6           0        4.903234   -2.412190    0.509134
     14          1           0        5.083070    0.227410   -0.307646
     15          1           0        4.287969    0.180122    1.262927
     16          1           0        3.652384   -1.668374   -1.089311
     17          1           0        2.856917   -1.716021    0.479945
     18          1           0        5.053738   -2.258873    1.582653
     19          1           0        5.853724   -2.210955    0.004481
     20          1           0        4.650296   -3.464912    0.348954
     21          6           0       -4.982266    0.896949    0.247596
     22          6           0       -4.918153   -0.279367   -0.506520
     23          6           0       -3.716676   -0.985059   -0.620540
     24          6           0       -2.593642   -0.483574    0.035660
     25          6           0       -2.625642    0.685471    0.794343
     26          6           0       -3.837825    1.374771    0.894480
     27          1           0       -5.919761    1.438781    0.330778
     28          1           0       -5.805351   -0.652801   -1.009980
     29          1           0       -3.638913   -1.898324   -1.197876
     30          1           0       -1.724474    1.032956    1.284820
     31          1           0       -3.884668    2.288041    1.480815
     32          7           0       -1.316025   -1.221981   -0.077700
     33          8           0       -0.340785   -0.759259    0.510034
     34          8           0       -1.314062   -2.249487   -0.752139
 ---------------------------------------------------------------------

 SCF Done:  E(RHF) =  -669.536336487     A.U. after   15 cycles
 E2 =    -0.2091403449D+01 EUMP2 =    -0.67162773993598D+03

 The electronic state is 1-A.
 Alpha  occ. eigenvalues --  -20.61010 -20.61000 -15.86033 -11.31328 -11.27891
 Alpha  occ. eigenvalues --  -11.27883 -11.27619 -11.26889 -11.26879 -11.20805
 Alpha  occ. eigenvalues --  -11.20552 -11.20239 -11.20146 -11.20083 -11.19964
 Alpha  occ. eigenvalues --   -1.60058  -1.39617  -1.19493  -1.08901  -1.07305
 Alpha  occ. eigenvalues --   -1.04886  -1.02521  -0.95749  -0.95001  -0.86288
 Alpha  occ. eigenvalues --   -0.86033  -0.82587  -0.78568  -0.77648  -0.77044
 Alpha  occ. eigenvalues --   -0.72258  -0.71366  -0.70603  -0.65152  -0.64889
 Alpha  occ. eigenvalues --   -0.63932  -0.62235  -0.59929  -0.58386  -0.56585
 Alpha  occ. eigenvalues --   -0.55391  -0.54306  -0.53217  -0.52978  -0.51747
 Alpha  occ. eigenvalues --   -0.51431  -0.49038  -0.49021  -0.48953  -0.46895
 Alpha  occ. eigenvalues --   -0.45602  -0.45097  -0.44629  -0.44332  -0.42731
 Alpha  occ. eigenvalues --   -0.37468  -0.36485
 Alpha virt. eigenvalues --    0.04869   0.11168   0.16354   0.21176   0.23832
 Alpha virt. eigenvalues --    0.25114   0.26914   0.27483   0.28081   0.28854
 Alpha virt. eigenvalues --    0.29148   0.30908   0.31855   0.32493   0.32858

 Mulliken charges:
               1
     1  C   -0.307492
     2  C   -0.298567
     3  C   -0.473395
     4  H    0.146728
     5  H    0.173011
     6  H    0.148882
     7  H    0.148742
     8  H    0.150464
     9  H    0.154521
    10  H    0.156023
    11  C   -0.297086
    12  C   -0.303732
    13  C   -0.475368
    14  H    0.143528
    15  H    0.145613
    16  H    0.150538
    17  H    0.171630
    18  H    0.151824
    19  H    0.150247
    20  H    0.159432
    21  C   -0.170515
    22  C   -0.218539
    23  C   -0.170600
    24  C    0.157890
    25  C   -0.170426
    26  C   -0.218409
    27  H    0.226171
    28  H    0.223953
    29  H    0.275939
    30  H    0.275041
    31  H    0.224055
    32  N    0.492811
    33  O   -0.464694
    34  O   -0.458219
 Sum of Mulliken charges =  -0.00000

 Dipole moment (field-independent basis, Debye):
    X=             -4.8671    Y=              2.4359    Z=              0.4155  Tot=              5.4584
 Quadrupole moment (field-independent basis, Debye-Ang):
   XX=            -72.5319   YY=            -96.6040   ZZ=            -93.0191
   XY=             -2.6284   XZ=             -0.3134   YZ=              2.6046

 Normal termination of Gaussian 16 at Wed May  5 15:42:07 2021.
