 Gaussian 16, Revision A.03,
 Gaussian 16:  EM64L-G16RevA.03 25-Dec-2016

 -------------
 #p 6-31g* mp2
 -------------

 ------------------------------------------------------
 Input file generated by CHIRIPA (05-May-2021 14:53:16)
 ------------------------------------------------------
 Symbolic Z-matrix:
 Charge =  0 Multiplicity = 1

                         Standard orientation:
 ---------------------------------------------------------------------
 Center     Atomic      Atomic             Coordinates (Angstroms)
 Number     Number       Type             X           Y           Z
 ---------------------------------------------------------------------
      1          6           0       -2.971974    1.394687    0.067314
      2          6           0       -1.523751    1.884804    0.087790
      3          6           0       -1.408457    3.374896    0.410475
      4          1           0       -3.538832    1.976433   -0.672408
      5          1           0       -3.433754    1.596134    1.043824
      6          1           0       -1.064423    1.681238   -0.888015
      7          1           0       -0.960229    1.301694    0.827412
      8          1           0       -1.841325    3.591002    1.392577
      9          1           0       -1.946111    3.972703   -0.332597
     10          1           0       -0.364696    3.704039    0.419902
     11          6           0       -3.103577   -0.093017   -0.253852
     12          6           0       -4.551801   -0.583134   -0.274328
     13          6           0       -4.667095   -2.073226   -0.597014
     14          1           0       -2.641797   -0.294464   -1.230363
     15          1           0       -2.536719   -0.674763    0.485869
     16          1           0       -5.115323   -0.000024   -1.013951
     17          1           0       -5.011129   -0.379568    0.701476
     18          1           0       -4.129440   -2.671033    0.146058
     19          1           0       -4.234226   -2.289332   -1.579115
     20          1           0       -5.710855   -2.402369   -0.606440
     21          6           0        0.249944   -1.401460    1.102431
     22          6           0        0.340919   -1.238202   -0.283784
     23          6           0        1.512482   -0.744244   -0.865156
     24          6           0        2.578537   -0.422133   -0.026668
     25          6           0        2.518586   -0.573583    1.357803
     26          6           0        1.337150   -1.069215    1.917363
     27          1           0       -0.663989   -1.785828    1.545582
     28          1           0       -0.501834   -1.495403   -0.919127
     29          1           0        1.609993   -0.607965   -1.935360
     30          1           0        3.375403   -0.308504    1.965269
     31          1           0        1.269337   -1.194967    2.994225
     32          7           0        3.824044    0.101684   -0.630595
     33          8           0        4.749123    0.378130    0.129961
     34          8           0        3.851610    0.225888   -1.853072
 ---------------------------------------------------------------------

 SCF Done:  E(RHF) =  -669.532791186     A.U. after   15 cycles
 E2 =    -0.2095528266D+01 EUMP2 =    -0.67162831945215D+03

 The electronic state is 1-A.
 Alpha  occ. eigenvalues --  -20.60754 -20.60748 -15.85805 -11.31172 -11.27730
 Alpha  occ. eigenvalues --  -11.27682 -11.27430 -11.26778 -11.26641 -11.22484
 Alpha  occ. eigenvalues --  -11.22423 -11.22047 -11.21996 -11.21903 -11.21328
 Alpha  occ. eigenvalues --   -1.59829  -1.39382  -1.19338  -1.09239  -1.08719
 Alpha  occ. eigenvalues --   -1.04732  -1.04171  -0.96671  -0.95577  -0.87676
 Alpha  occ. eigenvalues --   -0.86146  -0.82405  -0.80290  -0.79075  -0.77421
 Alpha  occ. eigenvalues --   -0.72024  -0.71151  -0.70483  -0.65862  -0.64974
 Alpha  occ. eigenvalues --   -0.64747  -0.62092  -0.61570  -0.60052  -0.58251
 Alpha  occ. eigenvalues --   -0.56023  -0.55226  -0.53441  -0.53179  -0.52971
 Alpha  occ. eigenvalues --   -0.52765  -0.50609  -0.48798  -0.48781  -0.48548
 Alpha  occ. eigenvalues --   -0.47334  -0.46482  -0.46452  -0.44788  -0.44467
 Alpha  occ. eigenvalues --   -0.37218  -0.36266
 Alpha virt. eigenvalues --    0.05027   0.11253   0.16390   0.19914   0.22878
 Alpha virt. eigenvalues --    0.23675   0.24333   0.26094   0.27374   0.28406
 Alpha virt. eigenvalues --    0.29801   0.29966   0.31059   0.31603   0.31639

 Mulliken charges:
               1
     1  C   -0.297739
     2  C   -0.303249
     3  C   -0.476314
     4  H    0.152345
     5  H    0.150017
     6  H    0.150281
     7  H    0.157964
     8  H    0.153927
     9  H    0.155598
    10  H    0.164078
    11  C   -0.302327
    12  C   -0.299212
    13  C   -0.476555
    14  H    0.145896
    15  H    0.141450
    16  H    0.156160
    17  H    0.153974
    18  H    0.150026
    19  H    0.154686
    20  H    0.165232
    21  C   -0.176603
    22  C   -0.210975
    23  C   -0.172980
    24  C    0.159143
    25  C   -0.171683
    26  C   -0.218523
    27  H    0.225809
    28  H    0.228943
    29  H    0.274950
    30  H    0.275413
    31  H    0.223260
    32  N    0.488008
    33  O   -0.460535
    34  O   -0.460467
 Sum of Mulliken charges =  -0.00000

 Dipole moment (field-independent basis, Debye):
    X=             -4.4741    Y=             -1.7739    Z=              2.1092  Tot=              5.2548
 Quadrupole moment (field-independent basis, Debye-Ang):
   XX=           -116.8573   YY=            -95.0147   ZZ=            -89.9385
   XY=             -3.0675   XZ=              7.9035   YZ=             -0.9498

 Normal termination of Gaussian 16 at Thu May  6 13:55:07 2021.
