 Gaussian 16, Revision A.03,
 Gaussian 16:  EM64L-G16RevA.03 25-Dec-2016

 -------------
 #p 6-31g* mp2
 -------------

 ------------------------------------------------------
 Input file generated by CHIRIPA (05-May-2021 14:53:12)
 ------------------------------------------------------
 Symbolic Z-matrix:
 Charge =  0 Multiplicity = 1

                         Standard orientation:
 ---------------------------------------------------------------------
 Center     Atomic      Atomic             Coordinates (Angstroms)
 Number     Number       Type             X           Y           Z
 ---------------------------------------------------------------------
      1          6           0        4.155280   -0.640806    0.043624
      2          6           0        2.810798   -0.507820   -0.672383
      3          6           0        1.922557   -1.739733   -0.495714
      4          1           0        4.678776   -1.529400   -0.334923
      5          1           0        3.977211   -0.815172    1.113803
      6          1           0        2.991367   -0.332377   -1.740667
      7          1           0        2.290525    0.380669   -0.292225
      8          1           0        1.713143   -1.914826    0.564517
      9          1           0        2.417967   -2.631924   -0.892156
     10          1           0        0.966536   -1.623256   -1.015633
     11          6           0        5.054404    0.582838   -0.123709
     12          6           0        6.398886    0.449851    0.592299
     13          6           0        7.287127    1.681764    0.415629
     14          1           0        5.232473    0.757204   -1.193887
     15          1           0        4.530908    1.471432    0.254838
     16          1           0        6.919159   -0.438638    0.212140
     17          1           0        6.218317    0.274408    1.660583
     18          1           0        6.791717    2.573955    0.812071
     19          1           0        7.496541    1.856857   -0.644601
     20          1           0        8.243148    1.565288    0.935549
     21          6           0       -5.019076    2.107062    0.012866
     22          6           0       -4.163428    1.833815   -1.059386
     23          6           0       -3.371202    0.681892   -1.059857
     24          6           0       -3.460103   -0.178870    0.033064
     25          6           0       -4.302855    0.065745    1.116218
     26          6           0       -5.085941    1.223713    1.095338
     27          1           0       -5.630945    3.004252    0.004939
     28          1           0       -4.109439    2.518047   -1.901381
     29          1           0       -2.700185    0.445974   -1.876861
     30          1           0       -4.334959   -0.635181    1.941500
     31          1           0       -5.749546    1.433366    1.929435
     32          7           0       -2.626247   -1.401558    0.043867
     33          8           0       -2.722904   -2.143977    1.018602
     34          8           0       -1.891805   -1.594331   -0.922606
 ---------------------------------------------------------------------

 SCF Done:  E(RHF) =  -669.536075349     A.U. after   15 cycles
 E2 =    -0.2090738833D+01 EUMP2 =    -0.67162681418152D+03

 The electronic state is 1-A.
 Alpha  occ. eigenvalues --  -20.60918 -20.60913 -15.85952 -11.31280 -11.27845
 Alpha  occ. eigenvalues --  -11.27841 -11.27583 -11.26854 -11.26844 -11.21207
 Alpha  occ. eigenvalues --  -11.20894 -11.20771 -11.20746 -11.20679 -11.19653
 Alpha  occ. eigenvalues --   -1.59975  -1.39533  -1.19449  -1.08852  -1.07818
 Alpha  occ. eigenvalues --   -1.04847  -1.02829  -0.95694  -0.95242  -0.86259
 Alpha  occ. eigenvalues --   -0.86238  -0.82528  -0.78917  -0.77618  -0.77578
 Alpha  occ. eigenvalues --   -0.72178  -0.71290  -0.70559  -0.65106  -0.64850
 Alpha  occ. eigenvalues --   -0.64461  -0.62195  -0.60242  -0.58650  -0.56843
 Alpha  occ. eigenvalues --   -0.55351  -0.54549  -0.53179  -0.52940  -0.51877
 Alpha  occ. eigenvalues --   -0.51669  -0.49212  -0.48930  -0.48912  -0.47215
 Alpha  occ. eigenvalues --   -0.45989  -0.45154  -0.45084  -0.44933  -0.43022
 Alpha  occ. eigenvalues --   -0.37428  -0.36449
 Alpha virt. eigenvalues --    0.04924   0.11206   0.16398   0.21330   0.23425
 Alpha virt. eigenvalues --    0.25081   0.27208   0.27255   0.28029   0.28157
 Alpha virt. eigenvalues --    0.28886   0.30871   0.32068   0.32293   0.32345

 Mulliken charges:
               1
     1  C   -0.297247
     2  C   -0.299551
     3  C   -0.483421
     4  H    0.149037
     5  H    0.148937
     6  H    0.148038
     7  H    0.146957
     8  H    0.154703
     9  H    0.150640
    10  H    0.183330
    11  C   -0.297372
    12  C   -0.299138
    13  C   -0.475274
    14  H    0.148062
    15  H    0.147489
    16  H    0.151799
    17  H    0.151540
    18  H    0.153982
    19  H    0.154423
    20  H    0.159155
    21  C   -0.170644
    22  C   -0.218536
    23  C   -0.170707
    24  C    0.158071
    25  C   -0.170747
    26  C   -0.218574
    27  H    0.225945
    28  H    0.223823
    29  H    0.275609
    30  H    0.275841
    31  H    0.223763
    32  N    0.489943
    33  O   -0.458660
    34  O   -0.461213
 Sum of Mulliken charges =  -0.00000

 Dipole moment (field-independent basis, Debye):
    X=             -3.2364    Y=              4.2412    Z=             -0.0454  Tot=              5.3352
 Quadrupole moment (field-independent basis, Debye-Ang):
   XX=            -75.6566   YY=            -97.0991   ZZ=            -90.2692
   XY=            -15.0778   XZ=             -2.3216   YZ=             -0.7806

 Normal termination of Gaussian 16 at Wed May  5 18:29:54 2021.
