 Gaussian 16, Revision A.03,
 Gaussian 16:  EM64L-G16RevA.03 25-Dec-2016

 -------------
 #p 6-31g* mp2
 -------------

 ------------------------------------------------------
 Input file generated by CHIRIPA (05-May-2021 14:55:23)
 ------------------------------------------------------
 Symbolic Z-matrix:
 Charge =  0 Multiplicity = 1

                         Standard orientation:
 ---------------------------------------------------------------------
 Center     Atomic      Atomic             Coordinates (Angstroms)
 Number     Number       Type             X           Y           Z
 ---------------------------------------------------------------------
      1          6           0        1.676270    1.919015   -1.075116
      2          6           0        1.052506    0.677278   -1.234891
      3          6           0        1.664729   -0.490015   -0.768888
      4          6           0        2.906353   -0.378401   -0.145028
      5          6           0        3.553164    0.844142    0.029082
      6          6           0        2.922412    1.998344   -0.444751
      7          1           0        1.193484    2.820711   -1.440160
      8          1           0        0.084730    0.612657   -1.724054
      9          1           0        1.204189   -1.464235   -0.879413
     10          1           0        4.517828    0.876812    0.520785
     11          1           0        3.409179    2.961340   -0.319288
     12          7           0        3.564294   -1.607232    0.352454
     13          8           0        4.658219   -1.482097    0.898629
     14          8           0        2.973605   -2.672257    0.186785
     15          6           0       -3.975524   -0.407358    0.457968
     16          6           0       -4.920851   -0.846535   -0.660722
     17          6           0       -5.702436   -2.113258   -0.310964
     18          1           0       -3.274043   -1.223679    0.678172
     19          1           0       -4.557046   -0.239050    1.374974
     20          1           0       -4.337905   -1.012629   -1.575710
     21          1           0       -5.620039   -0.029003   -0.878420
     22          1           0       -6.308421   -1.956348    0.587236
     23          1           0       -5.019002   -2.945562   -0.114015
     24          1           0       -6.372023   -2.409329   -1.124510
     25          6           0       -3.187142    0.857598    0.123200
     26          6           0       -2.241816    1.296774    1.241890
     27          6           0       -1.460230    2.563498    0.892132
     28          1           0       -2.605620    0.689290   -0.793806
     29          1           0       -3.888623    1.673918   -0.097005
     30          1           0       -1.542626    0.479242    1.459588
     31          1           0       -2.824761    1.462867    2.156877
     32          1           0       -2.143664    3.395801    0.695184
     33          1           0       -0.854245    2.406588   -0.006068
     34          1           0       -0.790644    2.859568    1.705677
 ---------------------------------------------------------------------

 SCF Done:  E(RHF) =  -669.534111042     A.U. after   15 cycles
 E2 =    -0.2093249625D+01 EUMP2 =    -0.67162736066702D+03

 The electronic state is 1-A.
 Alpha  occ. eigenvalues --  -20.60795 -20.60790 -15.85851 -11.31224 -11.27812
 Alpha  occ. eigenvalues --  -11.27805 -11.27540 -11.26819 -11.26800 -11.22152
 Alpha  occ. eigenvalues --  -11.22057 -11.22035 -11.21852 -11.21674 -11.21378
 Alpha  occ. eigenvalues --   -1.59871  -1.39425  -1.19413  -1.08983  -1.08801
 Alpha  occ. eigenvalues --   -1.04822  -1.04025  -0.96501  -0.95634  -0.87517
 Alpha  occ. eigenvalues --   -0.86222  -0.82468  -0.80101  -0.78789  -0.77510
 Alpha  occ. eigenvalues --   -0.72071  -0.71195  -0.70541  -0.65670  -0.65071
 Alpha  occ. eigenvalues --   -0.64802  -0.62195  -0.61400  -0.59850  -0.58100
 Alpha  occ. eigenvalues --   -0.55897  -0.55297  -0.53253  -0.53108  -0.52915
 Alpha  occ. eigenvalues --   -0.52824  -0.50419  -0.48830  -0.48823  -0.48410
 Alpha  occ. eigenvalues --   -0.47134  -0.46327  -0.46250  -0.44829  -0.44298
 Alpha  occ. eigenvalues --   -0.37301  -0.36403
 Alpha virt. eigenvalues --    0.05005   0.11112   0.16424   0.19668   0.22702
 Alpha virt. eigenvalues --    0.24007   0.25142   0.26618   0.26805   0.28483
 Alpha virt. eigenvalues --    0.28746   0.30277   0.31214   0.31575   0.31633

 Mulliken charges:
               1
     1  C   -0.168679
     2  C   -0.218826
     3  C   -0.172886
     4  C    0.158318
     5  C   -0.170713
     6  C   -0.219822
     7  H    0.227128
     8  H    0.226550
     9  H    0.275529
    10  H    0.275855
    11  H    0.223865
    12  N    0.488140
    13  O   -0.460305
    14  O   -0.460528
    15  C   -0.299018
    16  C   -0.299583
    17  C   -0.476172
    18  H    0.151232
    19  H    0.152274
    20  H    0.149432
    21  H    0.152388
    22  H    0.156419
    23  H    0.156848
    24  H    0.161295
    25  C   -0.298531
    26  C   -0.300636
    27  C   -0.476341
    28  H    0.139762
    29  H    0.151268
    30  H    0.155322
    31  H    0.155241
    32  H    0.153909
    33  H    0.148413
    34  H    0.162852
 Sum of Mulliken charges =  -0.00000

 Dipole moment (field-independent basis, Debye):
    X=             -2.3528    Y=              4.3047    Z=             -1.6643  Tot=              5.1804
 Quadrupole moment (field-independent basis, Debye-Ang):
   XX=           -104.9229   YY=            -97.5328   ZZ=            -94.2621
   XY=             15.3073   XZ=             -3.8072   YZ=              1.3989

 Normal termination of Gaussian 16 at Wed May  5 17:34:02 2021.
