 Gaussian 16, Revision A.03,
 Gaussian 16:  EM64L-G16RevA.03 25-Dec-2016

 -------------
 #p 6-31g* mp2
 -------------

 ------------------------------------------------------
 Input file generated by CHIRIPA (05-May-2021 14:57:24)
 ------------------------------------------------------
 Symbolic Z-matrix:
 Charge =  0 Multiplicity = 1

                         Standard orientation:
 ---------------------------------------------------------------------
 Center     Atomic      Atomic             Coordinates (Angstroms)
 Number     Number       Type             X           Y           Z
 ---------------------------------------------------------------------
      1          6           0        1.960474    2.177475    0.282678
      2          6           0        1.442609    1.049067   -0.361554
      3          6           0        2.262199   -0.049243   -0.638205
      4          6           0        3.600948    0.015040   -0.254918
      5          6           0        4.146436    1.124981    0.388326
      6          6           0        3.308358    2.211770    0.654905
      7          1           0        1.316616    3.026193    0.493675
      8          1           0        0.396212    1.019648   -0.651780
      9          1           0        1.887339   -0.935452   -1.135729
     10          1           0        5.193612    1.124960    0.665527
     11          1           0        3.713269    3.086782    1.155351
     12          7           0        4.478397   -1.141593   -0.542465
     13          8           0        5.654397   -1.060183   -0.194564
     14          8           0        3.973528   -2.107671   -1.110300
     15          6           0       -1.613922   -0.998515    1.738158
     16          6           0       -2.618023   -1.884489    1.333993
     17          6           0       -3.643761   -1.456143    0.486096
     18          6           0       -3.634451   -0.129018    0.059552
     19          6           0       -2.648103    0.777658    0.444708
     20          6           0       -1.632135    0.327394    1.293011
     21          1           0       -0.820898   -1.339777    2.396983
     22          1           0       -2.606418   -2.914771    1.678132
     23          1           0       -4.433510   -2.120897    0.157742
     24          1           0       -2.686427    1.798757    0.085118
     25          1           0       -0.853636    1.017670    1.605271
     26          7           0       -4.715183    0.336055   -0.838294
     27          8           0       -4.684392    1.510265   -1.200120
     28          8           0       -5.572588   -0.482438   -1.163199
 ---------------------------------------------------------------------

 SCF Done:  E(RHF) =  -868.336687023     A.U. after   16 cycles
 E2 =    -0.2601564566D+01 EUMP2 =    -0.87093825158874D+03

 The electronic state is 1-A.
 Alpha  occ. eigenvalues --  -20.61361 -20.61347 -20.61289 -20.61283 -15.86415
 Alpha  occ. eigenvalues --  -15.86342 -11.31902 -11.31812 -11.28533 -11.28410
 Alpha  occ. eigenvalues --  -11.28348 -11.28342 -11.28163 -11.28157 -11.27521
 Alpha  occ. eigenvalues --  -11.27423 -11.27419 -11.27350  -1.60430  -1.60362
 Alpha  occ. eigenvalues --   -1.39981  -1.39912  -1.20083  -1.19982  -1.09445
 Alpha  occ. eigenvalues --   -1.09365  -1.05546  -1.05349  -0.96245  -0.96193
 Alpha  occ. eigenvalues --   -0.86958  -0.86713  -0.83106  -0.82987  -0.78189
 Alpha  occ. eigenvalues --   -0.77974  -0.72626  -0.72556  -0.71758  -0.71688
 Alpha  occ. eigenvalues --   -0.71135  -0.71102  -0.65776  -0.65691  -0.65599
 Alpha  occ. eigenvalues --   -0.65191  -0.62952  -0.62579  -0.55935  -0.55916
 Alpha  occ. eigenvalues --   -0.54038  -0.53780  -0.53512  -0.53227  -0.49396
 Alpha  occ. eigenvalues --   -0.49377  -0.49322  -0.49306  -0.45361  -0.45293
 Alpha  occ. eigenvalues --   -0.38171  -0.37939  -0.37270  -0.36729
 Alpha virt. eigenvalues --    0.04356   0.04471   0.10051   0.11037   0.15740
 Alpha virt. eigenvalues --    0.15941   0.19919   0.21598   0.25708   0.26895
 Alpha virt. eigenvalues --    0.27762   0.28610   0.29920   0.31122   0.32153

 Mulliken charges:
               1
     1  C   -0.178129
     2  C   -0.223382
     3  C   -0.174534
     4  C    0.159058
     5  C   -0.171463
     6  C   -0.217646
     7  H    0.223938
     8  H    0.229798
     9  H    0.278026
    10  H    0.277347
    11  H    0.225492
    12  N    0.487781
    13  O   -0.458738
    14  O   -0.459258
    15  C   -0.172658
    16  C   -0.217949
    17  C   -0.170175
    18  C    0.159868
    19  C   -0.178097
    20  C   -0.223626
    21  H    0.230924
    22  H    0.227993
    23  H    0.278568
    24  H    0.273000
    25  H    0.223826
    26  N    0.488077
    27  O   -0.460776
    28  O   -0.457267
 Sum of Mulliken charges =  -0.00000

 Dipole moment (field-independent basis, Debye):
    X=              0.6923    Y=              2.2182    Z=              4.1994  Tot=              4.7995
 Quadrupole moment (field-independent basis, Debye-Ang):
   XX=           -150.8360   YY=            -99.3658   ZZ=           -105.3732
   XY=             24.9220   XZ=             -5.1491   YZ=             -0.6536

 Normal termination of Gaussian 16 at Fri May  7 04:57:31 2021.
