 Gaussian 16, Revision A.03,
 Gaussian 16:  EM64L-G16RevA.03 25-Dec-2016

 -------------
 #p 6-31g* mp2
 -------------

 ------------------------------------------------------
 Input file generated by CHIRIPA (05-May-2021 14:51:08)
 ------------------------------------------------------
 Symbolic Z-matrix:
 Charge =  0 Multiplicity = 1

                         Standard orientation:
 ---------------------------------------------------------------------
 Center     Atomic      Atomic             Coordinates (Angstroms)
 Number     Number       Type             X           Y           Z
 ---------------------------------------------------------------------
      1          6           0        1.515733    1.289566    0.041361
      2          6           0        1.805882    2.483212    0.951860
      3          6           0        0.584120    3.378602    1.160111
      4          1           0        1.158166    1.656270   -0.930554
      5          1           0        0.696198    0.698574    0.473200
      6          1           0        2.625555    3.071009    0.519140
      7          1           0        2.162982    2.113628    1.921655
      8          1           0       -0.235712    2.812277    1.613709
      9          1           0        0.229489    3.775097    0.203226
     10          1           0        0.813906    4.225595    1.814070
     11          6           0        2.727443    0.385096   -0.176404
     12          6           0        2.437294   -0.808550   -1.086903
     13          6           0        3.659056   -1.703940   -1.295154
     14          1           0        3.546979    0.976088   -0.608243
     15          1           0        3.085010    0.018391    0.795511
     16          1           0        2.080194   -0.438966   -2.056699
     17          1           0        1.617621   -1.396347   -0.654184
     18          1           0        4.013687   -2.100435   -0.338269
     19          1           0        4.478888   -1.137615   -1.748753
     20          1           0        3.429271   -2.550933   -1.949113
     21          6           0       -2.435252   -0.141402    0.094543
     22          6           0       -3.056574    0.295610   -1.232469
     23          6           0       -3.680033    1.689957   -1.162525
     24          1           0       -3.206047   -0.121674    0.877123
     25          1           0       -1.669850    0.589038    0.391212
     26          1           0       -3.819610   -0.436170   -1.527240
     27          1           0       -2.284256    0.274656   -2.012021
     28          1           0       -2.925744    2.436114   -0.892529
     29          1           0       -4.469822    1.721250   -0.404994
     30          1           0       -4.118301    1.982345   -2.121842
     31          6           0       -1.807925   -1.533260    0.040500
     32          6           0       -1.186601   -1.970272    1.367513
     33          6           0       -0.563143   -3.364619    1.297568
     34          1           0       -2.573327   -2.263700   -0.256168
     35          1           0       -1.037130   -1.552988   -0.742080
     36          1           0       -1.958921   -1.949318    2.147064
     37          1           0       -0.423565   -1.238492    1.662283
     38          1           0        0.226647   -3.395912    0.540037
     39          1           0       -1.317432   -4.110777    1.027572
     40          1           0       -0.124875   -3.657007    2.256886
 ---------------------------------------------------------------------

 SCF Done:  E(RHF) =  -470.732570954     A.U. after   11 cycles
 E2 =    -0.1585714254D+01 EUMP2 =    -0.47231828520757D+03

 The electronic state is 1-A.
 Alpha  occ. eigenvalues --  -11.21678 -11.21672 -11.21651 -11.21556 -11.21472
 Alpha  occ. eigenvalues --  -11.21412 -11.21372 -11.21295 -11.21148 -11.21126
 Alpha  occ. eigenvalues --  -11.21121 -11.21022  -1.08552  -1.08386  -1.03615
 Alpha  occ. eigenvalues --   -1.03522  -0.96058  -0.95969  -0.87069  -0.86990
 Alpha  occ. eigenvalues --   -0.79686  -0.79594  -0.78407  -0.78176  -0.65504
 Alpha  occ. eigenvalues --   -0.64735  -0.61123  -0.60829  -0.59418  -0.59344
 Alpha  occ. eigenvalues --   -0.57669  -0.57585  -0.55395  -0.55219  -0.52742
 Alpha  occ. eigenvalues --   -0.52678  -0.52478  -0.52398  -0.50017  -0.49907
 Alpha  occ. eigenvalues --   -0.48117  -0.47853  -0.46848  -0.46644  -0.46337
 Alpha  occ. eigenvalues --   -0.45827  -0.45600  -0.45041  -0.43855  -0.43770
 Alpha virt. eigenvalues --    0.19422   0.21641   0.23683   0.24423   0.25645
 Alpha virt. eigenvalues --    0.26405   0.26580   0.27620   0.28468   0.30364
 Alpha virt. eigenvalues --    0.31075   0.31495   0.31588   0.32102   0.32206

 Mulliken charges:
               1
     1  C   -0.309843
     2  C   -0.299223
     3  C   -0.478555
     4  H    0.149275
     5  H    0.160671
     6  H    0.152365
     7  H    0.152014
     8  H    0.157216
     9  H    0.155198
    10  H    0.161050
    11  C   -0.297032
    12  C   -0.308156
    13  C   -0.475546
    14  H    0.150017
    15  H    0.149661
    16  H    0.151819
    17  H    0.159254
    18  H    0.155587
    19  H    0.155562
    20  H    0.160405
    21  C   -0.305346
    22  C   -0.299145
    23  C   -0.476535
    24  H    0.149101
    25  H    0.156656
    26  H    0.151619
    27  H    0.152149
    28  H    0.156295
    29  H    0.154977
    30  H    0.159890
    31  C   -0.302291
    32  C   -0.303509
    33  C   -0.478431
    34  H    0.150008
    35  H    0.153566
    36  H    0.152695
    37  H    0.153232
    38  H    0.157171
    39  H    0.155851
    40  H    0.160309
 Sum of Mulliken charges =  -0.00000

 Dipole moment (field-independent basis, Debye):
    X=              0.0284    Y=              0.0081    Z=              0.0046  Tot=              0.0299
 Quadrupole moment (field-independent basis, Debye-Ang):
   XX=            -84.8201   YY=            -85.7853   ZZ=            -84.1055
   XY=              1.6133   XZ=             -0.3321   YZ=             -0.6113

 Normal termination of Gaussian 16 at Thu May  6 14:51:47 2021.
