 Gaussian 16, Revision A.03,
 Gaussian 16:  EM64L-G16RevA.03 25-Dec-2016

 -------------
 #p 6-31g* mp2
 -------------

 ------------------------------------------------------
 Input file generated by CHIRIPA (05-May-2021 14:57:24)
 ------------------------------------------------------
 Symbolic Z-matrix:
 Charge =  0 Multiplicity = 1

                         Standard orientation:
 ---------------------------------------------------------------------
 Center     Atomic      Atomic             Coordinates (Angstroms)
 Number     Number       Type             X           Y           Z
 ---------------------------------------------------------------------
      1          6           0       -5.064597    1.745210    0.020496
      2          6           0       -3.827358    2.054032   -0.554298
      3          6           0       -2.797612    1.108621   -0.573529
      4          6           0       -3.040690   -0.141418   -0.006427
      5          6           0       -4.262441   -0.479167    0.573693
      6          6           0       -5.277814    0.481823    0.581668
      7          1           0       -5.858946    2.485679    0.031063
      8          1           0       -3.658936    3.034390   -0.990851
      9          1           0       -1.830128    1.321176   -1.011952
     10          1           0       -4.400467   -1.464918    1.001082
     11          1           0       -6.237659    0.239208    1.028749
     12          7           0       -1.958153   -1.150529   -0.020828
     13          8           0       -2.197519   -2.244654    0.485365
     14          8           0       -0.890791   -0.828238   -0.538036
     15          6           0        4.439746    2.118645    0.534334
     16          6           0        4.117474    1.805935   -0.790383
     17          6           0        3.441298    0.621025   -1.095871
     18          6           0        3.101099   -0.232125   -0.047212
     19          6           0        3.408212    0.051454    1.282659
     20          6           0        4.084712    1.241951    1.564810
     21          1           0        4.965143    3.041281    0.762580
     22          1           0        4.391947    2.484907   -1.592696
     23          1           0        3.179473    0.354246   -2.112580
     24          1           0        3.121417   -0.645183    2.061031
     25          1           0        4.333701    1.482217    2.594529
     26          7           0        2.385089   -1.489493   -0.358266
     27          8           0        2.096506   -2.224400    0.583684
     28          8           0        2.126021   -1.716303   -1.538129
 ---------------------------------------------------------------------

 SCF Done:  E(RHF) =  -868.335509255     A.U. after   16 cycles
 E2 =    -0.2601268198D+01 EUMP2 =    -0.87093677745259D+03

 The electronic state is 1-A.
 Alpha  occ. eigenvalues --  -20.60077 -20.60063 -20.59230 -20.59222 -15.85148
 Alpha  occ. eigenvalues --  -15.84312 -11.30800 -11.30240 -11.27419 -11.27389
 Alpha  occ. eigenvalues --  -11.27202 -11.26882 -11.26868 -11.26748 -11.26496
 Alpha  occ. eigenvalues --  -11.26470 -11.26047 -11.26029  -1.59131  -1.58250
 Alpha  occ. eigenvalues --   -1.38688  -1.37817  -1.18999  -1.18468  -1.08337
 Alpha  occ. eigenvalues --   -1.07756  -1.04448  -1.03964  -0.95125  -0.94500
 Alpha  occ. eigenvalues --   -0.85832  -0.85334  -0.81965  -0.81353  -0.76962
 Alpha  occ. eigenvalues --   -0.76285  -0.71457  -0.70569  -0.70473  -0.70112
 Alpha  occ. eigenvalues --   -0.69586  -0.69438  -0.64645  -0.64453  -0.64116
 Alpha  occ. eigenvalues --   -0.63983  -0.61794  -0.61309  -0.54938  -0.54461
 Alpha  occ. eigenvalues --   -0.52759  -0.52546  -0.52257  -0.52071  -0.48127
 Alpha  occ. eigenvalues --   -0.48081  -0.47266  -0.47255  -0.44061  -0.43081
 Alpha  occ. eigenvalues --   -0.36996  -0.36475  -0.36065  -0.35600
 Alpha virt. eigenvalues --    0.05569   0.06310   0.11585   0.12051   0.17017
 Alpha virt. eigenvalues --    0.17688   0.21679   0.22084   0.27564   0.27951
 Alpha virt. eigenvalues --    0.28593   0.29034   0.31201   0.31586   0.32835

 Mulliken charges:
               1
     1  C   -0.171784
     2  C   -0.218507
     3  C   -0.171385
     4  C    0.159055
     5  C   -0.171132
     6  C   -0.218519
     7  H    0.223799
     8  H    0.220976
     9  H    0.273832
    10  H    0.276253
    11  H    0.222381
    12  N    0.489560
    13  O   -0.454808
    14  O   -0.459171
    15  C   -0.173359
    16  C   -0.219534
    17  C   -0.171863
    18  C    0.163702
    19  C   -0.171743
    20  C   -0.219058
    21  H    0.221112
    22  H    0.219046
    23  H    0.274466
    24  H    0.275436
    25  H    0.219852
    26  N    0.496244
    27  O   -0.457186
    28  O   -0.457665
 Sum of Mulliken charges =  -0.00000

 Dipole moment (field-independent basis, Debye):
    X=             -1.4669    Y=              7.6163    Z=              1.1091  Tot=              7.8352
 Quadrupole moment (field-independent basis, Debye-Ang):
   XX=            -67.1699   YY=           -106.7466   ZZ=            -99.9576
   XY=              4.8435   XZ=              1.3226   YZ=             -3.6003

 Normal termination of Gaussian 16 at Thu May  6 01:54:40 2021.
