 Gaussian 16, Revision A.03,
 Gaussian 16:  EM64L-G16RevA.03 25-Dec-2016

 -------------
 #p 6-31g* mp2
 -------------

 ------------------------------------------------------
 Input file generated by CHIRIPA (05-May-2021 14:53:12)
 ------------------------------------------------------
 Symbolic Z-matrix:
 Charge =  0 Multiplicity = 1

                         Standard orientation:
 ---------------------------------------------------------------------
 Center     Atomic      Atomic             Coordinates (Angstroms)
 Number     Number       Type             X           Y           Z
 ---------------------------------------------------------------------
      1          6           0        4.567081   -0.352858   -0.044593
      2          6           0        5.405684    0.925518   -0.066666
      3          6           0        6.902040    0.653712    0.090925
      4          1           0        4.747031   -0.885592    0.899206
      5          1           0        4.906347   -1.019569   -0.849448
      6          1           0        5.064017    1.590207    0.737118
      7          1           0        5.223571    1.455367   -1.010441
      8          1           0        7.264002    0.010508   -0.717700
      9          1           0        7.103542    0.146114    1.039788
     10          1           0        7.482698    1.581263    0.072371
     11          6           0        3.069073   -0.097484   -0.201067
     12          6           0        2.230471   -1.375860   -0.178994
     13          6           0        0.734115   -1.104054   -0.336585
     14          1           0        2.729808    0.569227    0.603788
     15          1           0        2.889124    0.435250   -1.144866
     16          1           0        2.412584   -1.905709    0.764781
     17          1           0        2.572137   -2.040549   -0.982778
     18          1           0        0.532612   -0.596456   -1.285448
     19          1           0        0.372152   -0.460850    0.472040
     20          1           0        0.153456   -2.031605   -0.318031
     21          6           0       -2.962765   -2.344416    0.211952
     22          6           0       -2.476841   -1.590383    1.285187
     23          6           0       -2.483112   -0.193363    1.231872
     24          6           0       -2.984816    0.419571    0.084748
     25          6           0       -3.475858   -0.304038   -1.000867
     26          6           0       -3.459847   -1.699973   -0.925644
     27          1           0       -2.954110   -3.429233    0.261878
     28          1           0       -2.090205   -2.088171    2.169927
     29          1           0       -2.113017    0.414784    2.048331
     30          1           0       -3.854990    0.220580   -1.869458
     31          1           0       -3.837860   -2.283007   -1.760642
     32          7           0       -2.996612    1.897959    0.016708
     33          8           0       -3.443922    2.413977   -1.005189
     34          8           0       -2.558324    2.512709    0.986566
 ---------------------------------------------------------------------

 SCF Done:  E(RHF) =  -669.534087068     A.U. after   15 cycles
 E2 =    -0.2093125487D+01 EUMP2 =    -0.67162721255459D+03

 The electronic state is 1-A.
 Alpha  occ. eigenvalues --  -20.60758 -20.60753 -15.85810 -11.31171 -11.27731
 Alpha  occ. eigenvalues --  -11.27712 -11.27469 -11.26764 -11.26734 -11.21691
 Alpha  occ. eigenvalues --  -11.21556 -11.21411 -11.21351 -11.21085 -11.21043
 Alpha  occ. eigenvalues --   -1.59833  -1.39387  -1.19345  -1.08744  -1.08446
 Alpha  occ. eigenvalues --   -1.04756  -1.03552  -0.96001  -0.95580  -0.87021
 Alpha  occ. eigenvalues --   -0.86153  -0.82413  -0.79624  -0.78255  -0.77459
 Alpha  occ. eigenvalues --   -0.72031  -0.71153  -0.70464  -0.65085  -0.65000
 Alpha  occ. eigenvalues --   -0.64761  -0.62104  -0.60966  -0.59398  -0.57618
 Alpha  occ. eigenvalues --   -0.55335  -0.55256  -0.53515  -0.52849  -0.52476
 Alpha  occ. eigenvalues --   -0.52195  -0.49934  -0.48789  -0.48785  -0.47939
 Alpha  occ. eigenvalues --   -0.46664  -0.45794  -0.45724  -0.44791  -0.43804
 Alpha  occ. eigenvalues --   -0.37277  -0.36250
 Alpha virt. eigenvalues --    0.05049   0.11234   0.16513   0.21293   0.22856
 Alpha virt. eigenvalues --    0.24263   0.26582   0.27111   0.27500   0.28144
 Alpha virt. eigenvalues --    0.28220   0.30898   0.31348   0.31756   0.31906

 Mulliken charges:
               1
     1  C   -0.298117
     2  C   -0.299883
     3  C   -0.475722
     4  H    0.148347
     5  H    0.148825
     6  H    0.153118
     7  H    0.153025
     8  H    0.154698
     9  H    0.154542
    10  H    0.160923
    11  C   -0.298662
    12  C   -0.300297
    13  C   -0.473699
    14  H    0.151100
    15  H    0.151529
    16  H    0.148143
    17  H    0.150475
    18  H    0.156188
    19  H    0.154395
    20  H    0.156029
    21  C   -0.172196
    22  C   -0.212232
    23  C   -0.172450
    24  C    0.161835
    25  C   -0.171532
    26  C   -0.217096
    27  H    0.225275
    28  H    0.223199
    29  H    0.274861
    30  H    0.275401
    31  H    0.223328
    32  N    0.487990
    33  O   -0.460474
    34  O   -0.460865
 Sum of Mulliken charges =  -0.00000

 Dipole moment (field-independent basis, Debye):
    X=             -0.0189    Y=             -5.1739    Z=              0.2320  Tot=              5.1792
 Quadrupole moment (field-independent basis, Debye-Ang):
   XX=            -96.2334   YY=            -99.9142   ZZ=            -89.6480
   XY=             16.1329   XZ=              1.2136   YZ=             -0.0514

 Normal termination of Gaussian 16 at Thu May  6 00:57:25 2021.
