 Gaussian 16, Revision A.03,
 Gaussian 16:  EM64L-G16RevA.03 25-Dec-2016

 -------------
 #p 6-31g* mp2
 -------------

 ------------------------------------------------------
 Input file generated by CHIRIPA (05-May-2021 14:53:17)
 ------------------------------------------------------
 Symbolic Z-matrix:
 Charge =  0 Multiplicity = 1

                         Standard orientation:
 ---------------------------------------------------------------------
 Center     Atomic      Atomic             Coordinates (Angstroms)
 Number     Number       Type             X           Y           Z
 ---------------------------------------------------------------------
      1          6           0        3.578415   -0.478503    0.016673
      2          6           0        2.893994   -1.711439   -0.574445
      3          6           0        3.858502   -2.878972   -0.785123
      4          1           0        4.394947   -0.165964   -0.648564
      5          1           0        4.042453   -0.749499    0.975122
      6          1           0        2.430204   -1.437861   -1.530828
      7          1           0        2.078873   -2.020966    0.092180
      8          1           0        4.312275   -3.179992    0.164655
      9          1           0        4.665601   -2.593574   -1.467575
     10          1           0        3.348308   -3.749815   -1.208436
     11          6           0        2.627168    0.697086    0.233116
     12          6           0        3.311589    1.930022    0.824234
     13          6           0        2.347081    3.097555    1.034913
     14          1           0        2.163130    0.968082   -0.725333
     15          1           0        1.810636    0.384546    0.898353
     16          1           0        4.126710    2.239548    0.157610
     17          1           0        3.775379    1.656444    1.780618
     18          1           0        1.539982    2.812157    1.717364
     19          1           0        1.893308    3.398575    0.085134
     20          1           0        2.857275    3.968398    1.458225
     21          6           0       -2.089195    2.205208   -1.101057
     22          6           0       -3.343009    1.835543   -0.603244
     23          6           0       -3.540054    0.568994   -0.045054
     24          6           0       -2.456429   -0.306830   -0.000561
     25          6           0       -1.195226    0.032058   -0.488220
     26          6           0       -1.021187    1.303875   -1.042061
     27          1           0       -1.945062    3.191140   -1.532984
     28          1           0       -4.174244    2.533477   -0.647740
     29          1           0       -4.500128    0.256853    0.347684
     30          1           0       -0.385655   -0.685310   -0.429941
     31          1           0       -0.046350    1.588240   -1.427900
     32          7           0       -2.652854   -1.650457    0.588068
     33          8           0       -1.682099   -2.403796    0.615511
     34          8           0       -3.773847   -1.924811    1.010846
 ---------------------------------------------------------------------

 SCF Done:  E(RHF) =  -669.535314379     A.U. after   15 cycles
 E2 =    -0.2093097956D+01 EUMP2 =    -0.67162841233427D+03

 The electronic state is 1-A.
 Alpha  occ. eigenvalues --  -20.60721 -20.60715 -15.85770 -11.31087 -11.27664
 Alpha  occ. eigenvalues --  -11.27601 -11.27392 -11.26678 -11.26612 -11.22218
 Alpha  occ. eigenvalues --  -11.22129 -11.21926 -11.21809 -11.21729 -11.21192
 Alpha  occ. eigenvalues --   -1.59795  -1.39350  -1.19258  -1.08982  -1.08664
 Alpha  occ. eigenvalues --   -1.04650  -1.03980  -0.96443  -0.95505  -0.87456
 Alpha  occ. eigenvalues --   -0.86056  -0.82350  -0.80074  -0.78871  -0.77344
 Alpha  occ. eigenvalues --   -0.71990  -0.71117  -0.70367  -0.65649  -0.64909
 Alpha  occ. eigenvalues --   -0.64630  -0.62023  -0.61353  -0.59814  -0.58048
 Alpha  occ. eigenvalues --   -0.55740  -0.55167  -0.53101  -0.52998  -0.52896
 Alpha  occ. eigenvalues --   -0.52723  -0.50380  -0.48750  -0.48747  -0.48362
 Alpha  occ. eigenvalues --   -0.47098  -0.46315  -0.46220  -0.44764  -0.44262
 Alpha  occ. eigenvalues --   -0.37245  -0.36229
 Alpha virt. eigenvalues --    0.05116   0.11337   0.16583   0.19710   0.22984
 Alpha virt. eigenvalues --    0.23043   0.24884   0.25214   0.27214   0.28601
 Alpha virt. eigenvalues --    0.29866   0.30258   0.31336   0.31564   0.32083

 Mulliken charges:
               1
     1  C   -0.297069
     2  C   -0.308082
     3  C   -0.475591
     4  H    0.150284
     5  H    0.153861
     6  H    0.146645
     7  H    0.163111
     8  H    0.157642
     9  H    0.154185
    10  H    0.165139
    11  C   -0.305325
    12  C   -0.299730
    13  C   -0.475993
    14  H    0.139159
    15  H    0.154916
    16  H    0.153151
    17  H    0.156592
    18  H    0.159431
    19  H    0.146631
    20  H    0.163154
    21  C   -0.171353
    22  C   -0.218906
    23  C   -0.170749
    24  C    0.157207
    25  C   -0.177306
    26  C   -0.221393
    27  H    0.225314
    28  H    0.222945
    29  H    0.275072
    30  H    0.283420
    31  H    0.227989
    32  N    0.487908
    33  O   -0.461651
    34  O   -0.460609
 Sum of Mulliken charges =  -0.00000

 Dipole moment (field-independent basis, Debye):
    X=              0.8755    Y=              4.6349    Z=             -1.9425  Tot=              5.1012
 Quadrupole moment (field-independent basis, Debye-Ang):
   XX=            -93.4321   YY=            -98.5245   ZZ=            -94.5058
   XY=            -12.8672   XZ=              4.4255   YZ=              0.4501

 Normal termination of Gaussian 16 at Thu May  6 05:58:15 2021.
