 Gaussian 16, Revision A.03,
 Gaussian 16:  EM64L-G16RevA.03 25-Dec-2016

 -------------
 #p 6-31g* mp2
 -------------

 ------------------------------------------------------
 Input file generated by CHIRIPA (05-May-2021 14:51:07)
 ------------------------------------------------------
 Symbolic Z-matrix:
 Charge =  0 Multiplicity = 1

                         Standard orientation:
 ---------------------------------------------------------------------
 Center     Atomic      Atomic             Coordinates (Angstroms)
 Number     Number       Type             X           Y           Z
 ---------------------------------------------------------------------
      1          6           0       -4.107520    0.067446    0.654814
      2          6           0       -2.788566    0.494102    0.009593
      3          6           0       -1.712652    0.842653    1.038531
      4          1           0       -4.468468    0.875783    1.305392
      5          1           0       -3.926022   -0.799590    1.304969
      6          1           0       -2.972747    1.359218   -0.640228
      7          1           0       -2.430813   -0.315269   -0.639675
      8          1           0       -1.499915   -0.018480    1.680244
      9          1           0       -2.044929    1.665522    1.679687
     10          1           0       -0.778179    1.144928    0.555571
     11          6           0       -5.192995   -0.284195   -0.360971
     12          6           0       -6.511949   -0.710851    0.284250
     13          6           0       -7.587863   -1.059402   -0.744689
     14          1           0       -5.374493    0.582841   -1.011127
     15          1           0       -4.832047   -1.092532   -1.011550
     16          1           0       -6.869702    0.098520    0.933517
     17          1           0       -6.327768   -1.575967    0.934071
     18          1           0       -7.255586   -1.882270   -1.385844
     19          1           0       -7.800600   -0.198269   -1.386401
     20          1           0       -8.522336   -1.361677   -0.261729
     21          6           0        3.947496    0.314552   -0.363829
     22          6           0        3.640166    1.789266   -0.101620
     23          6           0        2.230554    2.186539   -0.540896
     24          1           0        3.823193    0.105533   -1.435185
     25          1           0        3.209617   -0.305934    0.163357
     26          1           0        4.379235    2.406757   -0.628020
     27          1           0        3.765400    1.994842    0.969207
     28          1           0        1.479642    1.595437   -0.006732
     29          1           0        2.096964    2.009694   -1.613034
     30          1           0        2.032055    3.244745   -0.344277
     31          6           0        5.353018   -0.097803    0.069986
     32          6           0        5.660350   -1.572517   -0.192223
     33          6           0        7.069961   -1.969790    0.247053
     34          1           0        6.090899    0.522683   -0.457200
     35          1           0        5.477322    0.111216    1.141343
     36          1           0        5.535114   -1.778093   -1.263050
     37          1           0        4.921280   -2.190009    0.334177
     38          1           0        7.203552   -1.792945    1.319192
     39          1           0        7.820873   -1.378689   -0.287111
     40          1           0        7.268461   -3.027996    0.050434
 ---------------------------------------------------------------------

 SCF Done:  E(RHF) =  -470.733329620     A.U. after   11 cycles
 E2 =    -0.1582167824D+01 EUMP2 =    -0.47231549744338D+03

 The electronic state is 1-A.
 Alpha  occ. eigenvalues --  -11.21601 -11.21599 -11.21591 -11.21577 -11.21401
 Alpha  occ. eigenvalues --  -11.21388 -11.21342 -11.21329 -11.21072 -11.21069
 Alpha  occ. eigenvalues --  -11.21062 -11.21036  -1.08429  -1.08412  -1.03537
 Alpha  occ. eigenvalues --   -1.03506  -0.96004  -0.95942  -0.87041  -0.86943
 Alpha  occ. eigenvalues --   -0.79622  -0.79547  -0.78241  -0.78224  -0.65060
 Alpha  occ. eigenvalues --   -0.65042  -0.60949  -0.60907  -0.59373  -0.59327
 Alpha  occ. eigenvalues --   -0.57681  -0.57497  -0.55279  -0.55248  -0.52798
 Alpha  occ. eigenvalues --   -0.52651  -0.52444  -0.52250  -0.49909  -0.49900
 Alpha  occ. eigenvalues --   -0.47987  -0.47811  -0.46619  -0.46606  -0.45786
 Alpha  occ. eigenvalues --   -0.45764  -0.45705  -0.45692  -0.43789  -0.43732
 Alpha virt. eigenvalues --    0.22283   0.22980   0.23504   0.24712   0.26221
 Alpha virt. eigenvalues --    0.26673   0.26945   0.27536   0.27666   0.28698
 Alpha virt. eigenvalues --    0.30105   0.31429   0.31718   0.31919   0.31986

 Mulliken charges:
               1
     1  C   -0.298580
     2  C   -0.298629
     3  C   -0.484327
     4  H    0.149610
     5  H    0.149364
     6  H    0.152202
     7  H    0.151905
     8  H    0.154506
     9  H    0.155313
    10  H    0.168405
    11  C   -0.298212
    12  C   -0.299620
    13  C   -0.475693
    14  H    0.149559
    15  H    0.149627
    16  H    0.151921
    17  H    0.151873
    18  H    0.155163
    19  H    0.155187
    20  H    0.160205
    21  C   -0.298509
    22  C   -0.299152
    23  C   -0.483033
    24  H    0.149586
    25  H    0.149769
    26  H    0.151936
    27  H    0.152193
    28  H    0.161539
    29  H    0.155281
    30  H    0.160581
    31  C   -0.298320
    32  C   -0.299664
    33  C   -0.475708
    34  H    0.149519
    35  H    0.149733
    36  H    0.151907
    37  H    0.151947
    38  H    0.155206
    39  H    0.155179
    40  H    0.160227
 Sum of Mulliken charges =  -0.00000

 Dipole moment (field-independent basis, Debye):
    X=              0.0107    Y=              0.0078    Z=             -0.0044  Tot=              0.0140
 Quadrupole moment (field-independent basis, Debye-Ang):
   XX=            -86.3668   YY=            -84.0409   ZZ=            -84.3891
   XY=             -0.0568   XZ=             -1.1152   YZ=             -0.2811

 Normal termination of Gaussian 16 at Thu May  6 02:03:17 2021.
