 Gaussian 16, Revision A.03,
 Gaussian 16:  EM64L-G16RevA.03 25-Dec-2016

 -------------
 #p 6-31g* mp2
 -------------

 ------------------------------------------------------
 Input file generated by CHIRIPA (05-May-2021 14:53:14)
 ------------------------------------------------------
 Symbolic Z-matrix:
 Charge =  0 Multiplicity = 1

                         Standard orientation:
 ---------------------------------------------------------------------
 Center     Atomic      Atomic             Coordinates (Angstroms)
 Number     Number       Type             X           Y           Z
 ---------------------------------------------------------------------
      1          6           0        3.831918    0.012470    0.305120
      2          6           0        4.976829   -0.748746   -0.363994
      3          6           0        5.465233   -1.934044    0.469268
      4          1           0        4.162554    0.366961    1.291000
      5          1           0        2.997149   -0.678950    0.485381
      6          1           0        5.808663   -0.055784   -0.544196
      7          1           0        4.643491   -1.101302   -1.348476
      8          1           0        4.652077   -2.647420    0.638008
      9          1           0        5.823869   -1.595962    1.446858
     10          1           0        6.283795   -2.463991   -0.027694
     11          6           0        3.332786    1.200210   -0.515776
     12          6           0        2.187874    1.961426    0.153338
     13          6           0        1.699471    3.146723   -0.679924
     14          1           0        4.167555    1.891630   -0.696037
     15          1           0        3.002149    0.845719   -1.501656
     16          1           0        2.521213    2.313981    1.137820
     17          1           0        1.356041    1.268463    0.333540
     18          1           0        1.340835    2.808642   -1.657514
     19          1           0        2.512627    3.860100   -0.848664
     20          1           0        0.880909    3.676670   -0.182962
     21          6           0       -5.031174    0.701642    0.057733
     22          6           0       -4.785161   -0.352260   -0.828431
     23          6           0       -3.551887   -1.010713   -0.823676
     24          6           0       -2.582886   -0.587331    0.084661
     25          6           0       -2.797770    0.459343    0.979976
     26          6           0       -4.038444    1.103372    0.957523
     27          1           0       -5.992085    1.207542    0.047165
     28          1           0       -5.554270   -0.666388   -1.528317
     29          1           0       -3.334762   -1.829571   -1.498766
     30          1           0       -2.011513    0.749940    1.666104
     31          1           0       -4.226706    1.921536    1.646878
     32          7           0       -1.273357   -1.276771    0.099064
     33          8           0       -0.436190   -0.884740    0.909064
     34          8           0       -1.108913   -2.196131   -0.699917
 ---------------------------------------------------------------------

 SCF Done:  E(RHF) =  -669.536637728     A.U. after   15 cycles
 E2 =    -0.2091320928D+01 EUMP2 =    -0.67162795865581D+03

 The electronic state is 1-A.
 Alpha  occ. eigenvalues --  -20.61070 -20.61063 -15.86076 -11.31341 -11.27899
 Alpha  occ. eigenvalues --  -11.27893 -11.27628 -11.26895 -11.26884 -11.20616
 Alpha  occ. eigenvalues --  -11.20574 -11.20467 -11.20392 -11.20162 -11.20148
 Alpha  occ. eigenvalues --   -1.60116  -1.39673  -1.19505  -1.08921  -1.07401
 Alpha  occ. eigenvalues --   -1.04893  -1.02615  -0.95772  -0.95087  -0.86297
 Alpha  occ. eigenvalues --   -0.86106  -0.82608  -0.78665  -0.77671  -0.77184
 Alpha  occ. eigenvalues --   -0.72301  -0.71419  -0.70615  -0.65164  -0.64896
 Alpha  occ. eigenvalues --   -0.64014  -0.62241  -0.60008  -0.58469  -0.56696
 Alpha  occ. eigenvalues --   -0.55402  -0.54373  -0.53227  -0.52985  -0.51825
 Alpha  occ. eigenvalues --   -0.51516  -0.49103  -0.49060  -0.48987  -0.47005
 Alpha  occ. eigenvalues --   -0.45770  -0.45124  -0.44763  -0.44413  -0.42838
 Alpha  occ. eigenvalues --   -0.37480  -0.36491
 Alpha virt. eigenvalues --    0.04811   0.11160   0.16279   0.21243   0.23888
 Alpha virt. eigenvalues --    0.25087   0.27121   0.27549   0.27983   0.28793
 Alpha virt. eigenvalues --    0.28934   0.30810   0.31983   0.32335   0.32552

 Mulliken charges:
               1
     1  C   -0.304000
     2  C   -0.298811
     3  C   -0.475853
     4  H    0.145077
     5  H    0.169371
     6  H    0.147228
     7  H    0.152050
     8  H    0.159833
     9  H    0.152569
    10  H    0.156523
    11  C   -0.296141
    12  C   -0.310252
    13  C   -0.474551
    14  H    0.144006
    15  H    0.149089
    16  H    0.147242
    17  H    0.171736
    18  H    0.153300
    19  H    0.152743
    20  H    0.152959
    21  C   -0.170370
    22  C   -0.218581
    23  C   -0.170722
    24  C    0.158105
    25  C   -0.170683
    26  C   -0.218512
    27  H    0.226239
    28  H    0.223985
    29  H    0.275812
    30  H    0.276412
    31  H    0.224159
    32  N    0.488845
    33  O   -0.460454
    34  O   -0.458355
 Sum of Mulliken charges =  -0.00000

 Dipole moment (field-independent basis, Debye):
    X=             -4.9218    Y=              2.2071    Z=             -0.0072  Tot=              5.3940
 Quadrupole moment (field-independent basis, Debye-Ang):
   XX=            -71.6894   YY=            -97.3691   ZZ=            -92.5526
   XY=             -2.2407   XZ=              1.2893   YZ=              3.6975

 Normal termination of Gaussian 16 at Thu May  6 08:58:51 2021.
