 Gaussian 16, Revision A.03,
 Gaussian 16:  EM64L-G16RevA.03 25-Dec-2016

 -------------
 #p 6-31g* mp2
 -------------

 ------------------------------------------------------
 Input file generated by CHIRIPA (05-May-2021 14:53:12)
 ------------------------------------------------------
 Symbolic Z-matrix:
 Charge =  0 Multiplicity = 1

                         Standard orientation:
 ---------------------------------------------------------------------
 Center     Atomic      Atomic             Coordinates (Angstroms)
 Number     Number       Type             X           Y           Z
 ---------------------------------------------------------------------
      1          6           0        4.300245   -0.341876   -0.467916
      2          6           0        4.265897   -1.577695    0.431837
      3          6           0        5.139598   -2.716683   -0.094612
      4          1           0        3.970611   -0.622107   -1.477746
      5          1           0        5.338498    0.005073   -0.563059
      6          1           0        3.227844   -1.921389    0.526373
      7          1           0        4.595468   -1.294449    1.439691
      8          1           0        6.183792   -2.396950   -0.172262
      9          1           0        4.808398   -3.027453   -1.090769
     10          1           0        5.100290   -3.590082    0.563787
     11          6           0        3.431708    0.805357    0.045141
     12          6           0        3.466056    2.041177   -0.854612
     13          6           0        2.592355    3.180164   -0.328162
     14          1           0        2.393455    0.458409    0.140284
     15          1           0        3.761342    1.085589    1.054971
     16          1           0        3.136485    1.757930   -1.862466
     17          1           0        4.504109    2.384871   -0.949148
     18          1           0        2.923555    3.490934    0.667995
     19          1           0        1.548161    2.860431   -0.250513
     20          1           0        2.631663    4.053564   -0.986561
     21          6           0       -1.275186    0.100674    1.965466
     22          6           0       -0.889803   -0.234871    0.663387
     23          6           0       -1.848125   -0.393520   -0.342097
     24          6           0       -3.189004   -0.208283   -0.008902
     25          6           0       -3.604446    0.126351    1.279010
     26          6           0       -2.628890    0.279899    2.268588
     27          1           0       -0.524044    0.221935    2.740372
     28          1           0        0.160777   -0.374676    0.425095
     29          1           0       -1.577546   -0.653003   -1.358401
     30          1           0       -4.659365    0.259214    1.486159
     31          1           0       -2.931095    0.540517    3.278932
     32          7           0       -4.212660   -0.373537   -1.064943
     33          8           0       -5.387517   -0.204856   -0.745738
     34          8           0       -3.820759   -0.668616   -2.191876
 ---------------------------------------------------------------------

 SCF Done:  E(RHF) =  -669.535585073     A.U. after   15 cycles
 E2 =    -0.2091296067D+01 EUMP2 =    -0.67162688113984D+03

 The electronic state is 1-A.
 Alpha  occ. eigenvalues --  -20.60760 -20.60755 -15.85814 -11.31181 -11.27758
 Alpha  occ. eigenvalues --  -11.27754 -11.27491 -11.26763 -11.26749 -11.22379
 Alpha  occ. eigenvalues --  -11.22366 -11.22285 -11.22137 -11.21688 -11.21657
 Alpha  occ. eigenvalues --   -1.59836  -1.39389  -1.19356  -1.09229  -1.08748
 Alpha  occ. eigenvalues --   -1.04762  -1.04232  -0.96679  -0.95582  -0.87689
 Alpha  occ. eigenvalues --   -0.86160  -0.82418  -0.80300  -0.79073  -0.77464
 Alpha  occ. eigenvalues --   -0.72032  -0.71159  -0.70458  -0.65912  -0.65007
 Alpha  occ. eigenvalues --   -0.64744  -0.62123  -0.61616  -0.60043  -0.58293
 Alpha  occ. eigenvalues --   -0.55975  -0.55252  -0.53334  -0.53130  -0.53087
 Alpha  occ. eigenvalues --   -0.52840  -0.50615  -0.48798  -0.48787  -0.48608
 Alpha  occ. eigenvalues --   -0.47340  -0.46578  -0.46518  -0.44795  -0.44517
 Alpha  occ. eigenvalues --   -0.37332  -0.36364
 Alpha virt. eigenvalues --    0.05074   0.11227   0.16542   0.19066   0.22705
 Alpha virt. eigenvalues --    0.23688   0.24509   0.26386   0.27298   0.28277
 Alpha virt. eigenvalues --    0.29170   0.30713   0.31277   0.31323   0.31719

 Mulliken charges:
               1
     1  C   -0.298561
     2  C   -0.299731
     3  C   -0.476091
     4  H    0.151380
     5  H    0.153369
     6  H    0.146102
     7  H    0.152514
     8  H    0.157280
     9  H    0.156997
    10  H    0.161940
    11  C   -0.303589
    12  C   -0.299865
    13  C   -0.477029
    14  H    0.141571
    15  H    0.150973
    16  H    0.154023
    17  H    0.155210
    18  H    0.154804
    19  H    0.154582
    20  H    0.164293
    21  C   -0.172890
    22  C   -0.226656
    23  C   -0.172890
    24  C    0.158889
    25  C   -0.170934
    26  C   -0.218635
    27  H    0.226518
    28  H    0.234408
    29  H    0.275803
    30  H    0.275640
    31  H    0.223494
    32  N    0.488049
    33  O   -0.460465
    34  O   -0.460503
 Sum of Mulliken charges =  -0.00000

 Dipole moment (field-independent basis, Debye):
    X=              3.7892    Y=              0.6245    Z=              3.6893  Tot=              5.3253
 Quadrupole moment (field-independent basis, Debye-Ang):
   XX=           -114.2900   YY=            -95.9982   ZZ=            -92.6700
   XY=             -2.6575   XZ=            -14.3808   YZ=             -0.0287

 Normal termination of Gaussian 16 at Wed May  5 16:58:59 2021.
