 Gaussian 16, Revision A.03,
 Gaussian 16:  EM64L-G16RevA.03 25-Dec-2016

 -------------
 #p 6-31g* mp2
 -------------

 ------------------------------------------------------
 Input file generated by CHIRIPA (05-May-2021 14:55:21)
 ------------------------------------------------------
 Symbolic Z-matrix:
 Charge =  0 Multiplicity = 1

                         Standard orientation:
 ---------------------------------------------------------------------
 Center     Atomic      Atomic             Coordinates (Angstroms)
 Number     Number       Type             X           Y           Z
 ---------------------------------------------------------------------
      1          6           0       -0.931417   -1.476702    1.111875
      2          6           0       -2.203012   -2.059421    1.114519
      3          6           0       -3.292865   -1.388028    0.552382
      4          6           0       -3.074209   -0.129731   -0.006339
      5          6           0       -1.819392    0.477229   -0.024340
      6          6           0       -0.743996   -0.212466    0.543456
      7          1           0       -0.090408   -2.005366    1.550755
      8          1           0       -2.351518   -3.041124    1.555257
      9          1           0       -4.287972   -1.815869    0.540869
     10          1           0       -1.702466    1.457100   -0.471105
     11          1           0        0.242422    0.242521    0.539982
     12          7           0       -4.220335    0.590731   -0.604444
     13          8           0       -4.001431    1.698227   -1.090416
     14          8           0       -5.315870    0.034290   -0.575941
     15          6           0        3.159818    0.837334    0.053029
     16          6           0        3.733441    2.227691    0.328436
     17          6           0        2.654085    3.255614    0.669255
     18          1           0        2.439104    0.902151   -0.773599
     19          1           0        2.595873    0.499955    0.933675
     20          1           0        4.297297    2.561765   -0.551949
     21          1           0        4.453016    2.159524    1.154379
     22          1           0        2.097341    2.948527    1.560510
     23          1           0        1.940737    3.353053   -0.155512
     24          1           0        3.086185    4.242439    0.862451
     25          6           0        4.226583   -0.201246   -0.289153
     26          6           0        3.652961   -1.591603   -0.564560
     27          6           0        4.732317   -2.619526   -0.905380
     28          1           0        4.790529    0.136133   -1.169799
     29          1           0        4.947298   -0.266063    0.537475
     30          1           0        2.933385   -1.523435   -1.390503
     31          1           0        3.089105   -1.925677    0.315825
     32          1           0        5.445665   -2.716965   -0.080612
     33          1           0        5.289061   -2.312439   -1.796635
     34          1           0        4.300216   -3.606352   -1.098576
 ---------------------------------------------------------------------

 SCF Done:  E(RHF) =  -669.535530610     A.U. after   15 cycles
 E2 =    -0.2091899202D+01 EUMP2 =    -0.67162742981177D+03

 The electronic state is 1-A.
 Alpha  occ. eigenvalues --  -20.60681 -20.60676 -15.85731 -11.31071 -11.27638
 Alpha  occ. eigenvalues --  -11.27609 -11.27360 -11.26658 -11.26534 -11.22584
 Alpha  occ. eigenvalues --  -11.22553 -11.22468 -11.22312 -11.21892 -11.21820
 Alpha  occ. eigenvalues --   -1.59756  -1.39311  -1.19232  -1.09424  -1.08633
 Alpha  occ. eigenvalues --   -1.04627  -1.04416  -0.96869  -0.95476  -0.87881
 Alpha  occ. eigenvalues --   -0.86031  -0.82310  -0.80489  -0.79313  -0.77345
 Alpha  occ. eigenvalues --   -0.71951  -0.71079  -0.70349  -0.66046  -0.64881
 Alpha  occ. eigenvalues --   -0.64633  -0.61994  -0.61797  -0.60233  -0.58488
 Alpha  occ. eigenvalues --   -0.56151  -0.55138  -0.53518  -0.53352  -0.52964
 Alpha  occ. eigenvalues --   -0.52671  -0.50802  -0.48815  -0.48708  -0.48687
 Alpha  occ. eigenvalues --   -0.47519  -0.46745  -0.46724  -0.44722  -0.44704
 Alpha  occ. eigenvalues --   -0.37216  -0.36229
 Alpha virt. eigenvalues --    0.05165   0.11392   0.16648   0.19671   0.22577
 Alpha virt. eigenvalues --    0.22946   0.24922   0.25720   0.26986   0.28231
 Alpha virt. eigenvalues --    0.29300   0.30106   0.30971   0.31404   0.31472

 Mulliken charges:
               1
     1  C   -0.174233
     2  C   -0.218418
     3  C   -0.171712
     4  C    0.159053
     5  C   -0.174251
     6  C   -0.227302
     7  H    0.225159
     8  H    0.222751
     9  H    0.275044
    10  H    0.275374
    11  H    0.238530
    12  N    0.488018
    13  O   -0.460725
    14  O   -0.460884
    15  C   -0.306266
    16  C   -0.299048
    17  C   -0.478788
    18  H    0.150468
    19  H    0.143103
    20  H    0.156325
    21  H    0.154835
    22  H    0.153923
    23  H    0.154937
    24  H    0.166241
    25  C   -0.297476
    26  C   -0.300510
    27  C   -0.476162
    28  H    0.154257
    29  H    0.152329
    30  H    0.154782
    31  H    0.143907
    32  H    0.156537
    33  H    0.158405
    34  H    0.161799
 Sum of Mulliken charges =  -0.00000

 Dipole moment (field-independent basis, Debye):
    X=              4.3614    Y=             -2.4634    Z=              2.0353  Tot=              5.4068
 Quadrupole moment (field-independent basis, Debye-Ang):
   XX=           -117.6016   YY=            -91.7143   ZZ=            -94.3552
   XY=             10.7326   XZ=             -7.3351   YZ=             -1.6831

 Normal termination of Gaussian 16 at Thu May  6 17:29:45 2021.
