 Gaussian 16, Revision A.03,
 Gaussian 16:  EM64L-G16RevA.03 25-Dec-2016

 -------------
 #p 6-31g* mp2
 -------------

 ------------------------------------------------------
 Input file generated by CHIRIPA (05-May-2021 14:55:25)
 ------------------------------------------------------
 Symbolic Z-matrix:
 Charge =  0 Multiplicity = 1

                         Standard orientation:
 ---------------------------------------------------------------------
 Center     Atomic      Atomic             Coordinates (Angstroms)
 Number     Number       Type             X           Y           Z
 ---------------------------------------------------------------------
      1          6           0        1.362151    1.527195    0.689040
      2          6           0        2.611397    2.145424    0.806076
      3          6           0        3.773360    1.479966    0.404137
      4          6           0        3.648818    0.191330   -0.112774
      5          6           0        2.418543   -0.451340   -0.241963
      6          6           0        1.269874    0.233068    0.166316
      7          1           0        0.464673    2.051500    1.003738
      8          1           0        2.686076    3.150392    1.211670
      9          1           0        4.753174    1.935007    0.483639
     10          1           0        2.375875   -1.453859   -0.650073
     11          1           0        0.301022   -0.249527    0.074260
     12          7           0        4.871900   -0.523191   -0.541644
     13          8           0        4.735351   -1.657876   -0.993841
     14          8           0        5.943941    0.064981   -0.417476
     15          6           0       -4.786487   -0.024273   -0.498961
     16          6           0       -6.133911    0.539393   -0.046508
     17          6           0       -6.870208    1.279564   -1.163562
     18          1           0       -4.159316    0.796960   -0.872027
     19          1           0       -4.947523   -0.704547   -1.346717
     20          1           0       -5.970530    1.217333    0.801030
     21          1           0       -6.757877   -0.283251    0.325703
     22          1           0       -7.062234    0.609828   -2.008062
     23          1           0       -6.270413    2.118936   -1.530033
     24          1           0       -7.830876    1.674263   -0.818325
     25          6           0       -4.038445   -0.767002    0.606713
     26          6           0       -2.691021   -1.330668    0.154261
     27          6           0       -1.954724   -2.070838    1.271314
     28          1           0       -3.877409   -0.086728    1.454469
     29          1           0       -4.665616   -1.588234    0.979779
     30          1           0       -2.067055   -0.508025   -0.217949
     31          1           0       -2.854402   -2.008607   -0.693277
     32          1           0       -2.554520   -2.910211    1.637786
     33          1           0       -1.762700   -1.401102    2.115815
     34          1           0       -0.994056   -2.465538    0.926078
 ---------------------------------------------------------------------

 SCF Done:  E(RHF) =  -669.535335560     A.U. after   15 cycles
 E2 =    -0.2091444246D+01 EUMP2 =    -0.67162677980515D+03

 The electronic state is 1-A.
 Alpha  occ. eigenvalues --  -20.60725 -20.60720 -15.85777 -11.31137 -11.27704
 Alpha  occ. eigenvalues --  -11.27690 -11.27443 -11.26726 -11.26657 -11.22723
 Alpha  occ. eigenvalues --  -11.22264 -11.22211 -11.22120 -11.22099 -11.21582
 Alpha  occ. eigenvalues --   -1.59800  -1.39354  -1.19304  -1.09268  -1.08702
 Alpha  occ. eigenvalues --   -1.04710  -1.04362  -0.96791  -0.95540  -0.87799
 Alpha  occ. eigenvalues --   -0.86107  -0.82372  -0.80442  -0.79048  -0.77421
 Alpha  occ. eigenvalues --   -0.71996  -0.71123  -0.70422  -0.65952  -0.64956
 Alpha  occ. eigenvalues --   -0.64725  -0.62201  -0.61634  -0.60155  -0.58393
 Alpha  occ. eigenvalues --   -0.56070  -0.55203  -0.53501  -0.53220  -0.53033
 Alpha  occ. eigenvalues --   -0.52741  -0.50726  -0.48780  -0.48752  -0.48719
 Alpha  occ. eigenvalues --   -0.47482  -0.46586  -0.46494  -0.44761  -0.44603
 Alpha  occ. eigenvalues --   -0.37289  -0.36303
 Alpha virt. eigenvalues --    0.05110   0.11323   0.16588   0.19425   0.22532
 Alpha virt. eigenvalues --    0.23773   0.25583   0.26160   0.26679   0.27994
 Alpha virt. eigenvalues --    0.28908   0.30520   0.30625   0.30927   0.31903

 Mulliken charges:
               1
     1  C   -0.173958
     2  C   -0.218341
     3  C   -0.171461
     4  C    0.159153
     5  C   -0.173813
     6  C   -0.228237
     7  H    0.224689
     8  H    0.223064
     9  H    0.275375
    10  H    0.275595
    11  H    0.240378
    12  N    0.488001
    13  O   -0.460485
    14  O   -0.460656
    15  C   -0.298799
    16  C   -0.300192
    17  C   -0.476091
    18  H    0.148028
    19  H    0.151957
    20  H    0.151643
    21  H    0.153687
    22  H    0.156588
    23  H    0.155055
    24  H    0.162051
    25  C   -0.297814
    26  C   -0.306185
    27  C   -0.479722
    28  H    0.148652
    29  H    0.153742
    30  H    0.143394
    31  H    0.157830
    32  H    0.163091
    33  H    0.155902
    34  H    0.157881
 Sum of Mulliken charges =  -0.00000

 Dipole moment (field-independent basis, Debye):
    X=             -4.5675    Y=              2.4407    Z=              1.5315  Tot=              5.4004
 Quadrupole moment (field-independent basis, Debye-Ang):
   XX=           -124.3902   YY=            -90.2397   ZZ=            -95.9289
   XY=             11.9825   XZ=              6.5281   YZ=              1.8166

 Normal termination of Gaussian 16 at Thu May  6 14:24:02 2021.
