 Gaussian 16, Revision A.03,
 Gaussian 16:  EM64L-G16RevA.03 25-Dec-2016

 -------------
 #p 6-31g* mp2
 -------------

 ------------------------------------------------------
 Input file generated by CHIRIPA (05-May-2021 14:51:09)
 ------------------------------------------------------
 Symbolic Z-matrix:
 Charge =  0 Multiplicity = 1

                         Standard orientation:
 ---------------------------------------------------------------------
 Center     Atomic      Atomic             Coordinates (Angstroms)
 Number     Number       Type             X           Y           Z
 ---------------------------------------------------------------------
      1          6           0        3.185181    0.117683    0.427773
      2          6           0        3.823150   -0.942192   -0.470918
      3          6           0        4.370146   -2.133321    0.316355
      4          1           0        3.929497    0.468206    1.155833
      5          1           0        2.373762   -0.343499    1.007691
      6          1           0        4.632219   -0.478829   -1.049986
      7          1           0        3.077284   -1.290093   -1.197048
      8          1           0        3.569814   -2.621769    0.881589
      9          1           0        5.133584   -1.805896    1.029486
     10          1           0        4.821703   -2.878815   -0.345607
     11          6           0        2.633705    1.314716   -0.344700
     12          6           0        1.995735    2.374591    0.553991
     13          6           0        1.448740    3.565721   -0.233283
     14          1           0        3.445124    1.775899   -0.924619
     15          1           0        1.889389    0.964194   -1.072760
     16          1           0        2.741602    2.722493    1.280120
     17          1           0        1.186666    1.911229    1.133058
     18          1           0        0.685301    3.238295   -0.946413
     19          1           0        2.249071    4.054169   -0.798516
     20          1           0        0.997182    4.311215    0.428680
     21          6           0       -3.602077   -0.625972    0.267573
     22          6           0       -4.396372    0.525431   -0.349965
     23          6           0       -5.779891    0.693336    0.278903
     24          1           0       -4.172753   -1.558066    0.155887
     25          1           0       -3.496375   -0.451658    1.347312
     26          1           0       -4.499356    0.349694   -1.428448
     27          1           0       -3.823652    1.454860   -0.236966
     28          1           0       -5.693673    0.893265    1.351842
     29          1           0       -6.373215   -0.218181    0.153589
     30          1           0       -6.330432    1.521907   -0.177425
     31          6           0       -2.216809   -0.806428   -0.350645
     32          6           0       -1.422514   -1.957830    0.266892
     33          6           0       -0.038994   -2.125736   -0.361977
     34          1           0       -2.322511   -0.980742   -1.430385
     35          1           0       -1.646132    0.125666   -0.238959
     36          1           0       -1.995233   -2.887260    0.153893
     37          1           0       -1.319530   -1.782092    1.345375
     38          1           0        0.554330   -1.214217   -0.236662
     39          1           0       -0.125213   -2.325665   -1.434914
     40          1           0        0.511546   -2.954307    0.094352
 ---------------------------------------------------------------------

 SCF Done:  E(RHF) =  -470.732833406     A.U. after   11 cycles
 E2 =    -0.1584007008D+01 EUMP2 =    -0.47231684041400D+03

 The electronic state is 1-A.
 Alpha  occ. eigenvalues --  -11.21670 -11.21639 -11.21633 -11.21521 -11.21466
 Alpha  occ. eigenvalues --  -11.21401 -11.21397 -11.21317 -11.21122 -11.21099
 Alpha  occ. eigenvalues --  -11.21094 -11.21012  -1.08500  -1.08415  -1.03595
 Alpha  occ. eigenvalues --   -1.03502  -0.96048  -0.95958  -0.87077  -0.86964
 Alpha  occ. eigenvalues --   -0.79653  -0.79577  -0.78300  -0.78235  -0.65325
 Alpha  occ. eigenvalues --   -0.64930  -0.61052  -0.60844  -0.59402  -0.59327
 Alpha  occ. eigenvalues --   -0.57651  -0.57574  -0.55514  -0.55073  -0.52722
 Alpha  occ. eigenvalues --   -0.52665  -0.52461  -0.52372  -0.50091  -0.49786
 Alpha  occ. eigenvalues --   -0.47973  -0.47882  -0.46728  -0.46585  -0.45941
 Alpha  occ. eigenvalues --   -0.45796  -0.45679  -0.45574  -0.43835  -0.43769
 Alpha virt. eigenvalues --    0.19924   0.22806   0.23566   0.24711   0.26063
 Alpha virt. eigenvalues --    0.26719   0.27168   0.27634   0.27738   0.29600
 Alpha virt. eigenvalues --    0.30616   0.30921   0.31751   0.31912   0.32342

 Mulliken charges:
               1
     1  C   -0.302449
     2  C   -0.301241
     3  C   -0.476398
     4  H    0.150629
     5  H    0.151308
     6  H    0.151528
     7  H    0.155943
     8  H    0.155981
     9  H    0.154680
    10  H    0.160024
    11  C   -0.301202
    12  C   -0.299678
    13  C   -0.475889
    14  H    0.150256
    15  H    0.150905
    16  H    0.152381
    17  H    0.150798
    18  H    0.155322
    19  H    0.155513
    20  H    0.160197
    21  C   -0.298289
    22  C   -0.299777
    23  C   -0.475747
    24  H    0.149898
    25  H    0.149650
    26  H    0.151976
    27  H    0.152131
    28  H    0.155266
    29  H    0.155220
    30  H    0.160429
    31  C   -0.298847
    32  C   -0.300198
    33  C   -0.484600
    34  H    0.149735
    35  H    0.149273
    36  H    0.152393
    37  H    0.151791
    38  H    0.165016
    39  H    0.155176
    40  H    0.160895
 Sum of Mulliken charges =  -0.00000

 Dipole moment (field-independent basis, Debye):
    X=             -0.0134    Y=             -0.0068    Z=             -0.0138  Tot=              0.0205
 Quadrupole moment (field-independent basis, Debye-Ang):
   XX=            -85.0667   YY=            -85.0671   ZZ=            -84.6088
   XY=              1.3706   XZ=              0.4948   YZ=              0.8079

 Normal termination of Gaussian 16 at Wed May  5 19:42:25 2021.
