 Gaussian 16, Revision A.03,
 Gaussian 16:  EM64L-G16RevA.03 25-Dec-2016

 -------------
 #p 6-31g* mp2
 -------------

 ------------------------------------------------------
 Input file generated by CHIRIPA (05-May-2021 14:53:17)
 ------------------------------------------------------
 Symbolic Z-matrix:
 Charge =  0 Multiplicity = 1

                         Standard orientation:
 ---------------------------------------------------------------------
 Center     Atomic      Atomic             Coordinates (Angstroms)
 Number     Number       Type             X           Y           Z
 ---------------------------------------------------------------------
      1          6           0        4.967541   -0.185549    0.344263
      2          6           0        5.736815    0.616850   -0.705670
      3          6           0        7.181744    0.898551   -0.292612
      4          1           0        4.978005    0.363117    1.295999
      5          1           0        5.489939   -1.135166    0.525158
      6          1           0        5.212369    1.564066   -0.885543
      7          1           0        5.724354    0.066300   -1.655068
      8          1           0        7.726084   -0.037709   -0.132263
      9          1           0        7.211190    1.468567    0.641635
     10          1           0        7.713198    1.473238   -1.057564
     11          6           0        3.521490   -0.475099   -0.054265
     12          6           0        2.752216   -1.277498    0.995668
     13          6           0        1.307287   -1.559199    0.582609
     14          1           0        2.999092    0.474518   -0.235161
     15          1           0        3.511025   -1.023765   -1.006001
     16          1           0        2.764677   -0.726949    1.945065
     17          1           0        3.276661   -2.224715    1.175540
     18          1           0        1.277841   -2.129215   -0.351637
     19          1           0        0.762947   -0.622939    0.422260
     20          1           0        0.775832   -2.133886    1.347561
     21          6           0       -3.910982   -2.176962   -0.400670
     22          6           0       -2.609359   -1.738450   -0.665255
     23          6           0       -2.268441   -0.391587   -0.509429
     24          6           0       -3.258510    0.493475   -0.085497
     25          6           0       -4.564085    0.087231    0.186032
     26          6           0       -4.882478   -1.264330    0.023382
     27          1           0       -4.167067   -3.225063   -0.524370
     28          1           0       -1.852834   -2.444973   -0.994712
     29          1           0       -1.268477   -0.025057   -0.707278
     30          1           0       -5.296647    0.815126    0.513048
     31          1           0       -5.894144   -1.602049    0.229595
     32          7           0       -2.909518    1.921826    0.083082
     33          8           0       -3.799989    2.681643    0.457752
     34          8           0       -1.752116    2.254504   -0.162648
 ---------------------------------------------------------------------

 SCF Done:  E(RHF) =  -669.535569129     A.U. after   15 cycles
 E2 =    -0.2091287937D+01 EUMP2 =    -0.67162685706592D+03

 The electronic state is 1-A.
 Alpha  occ. eigenvalues --  -20.60748 -20.60741 -15.85797 -11.31122 -11.27702
 Alpha  occ. eigenvalues --  -11.27657 -11.27438 -11.26716 -11.26680 -11.21868
 Alpha  occ. eigenvalues --  -11.21637 -11.21567 -11.21490 -11.21393 -11.21021
 Alpha  occ. eigenvalues --   -1.59821  -1.39376  -1.19299  -1.08703  -1.08536
 Alpha  occ. eigenvalues --   -1.04696  -1.03690  -0.96168  -0.95541  -0.87199
 Alpha  occ. eigenvalues --   -0.86097  -0.82373  -0.79771  -0.78327  -0.77418
 Alpha  occ. eigenvalues --   -0.72018  -0.71142  -0.70421  -0.65166  -0.64951
 Alpha  occ. eigenvalues --   -0.64700  -0.62077  -0.61070  -0.59532  -0.57757
 Alpha  occ. eigenvalues --   -0.55486  -0.55192  -0.53080  -0.52851  -0.52821
 Alpha  occ. eigenvalues --   -0.52525  -0.50093  -0.48775  -0.48772  -0.48075
 Alpha  occ. eigenvalues --   -0.46766  -0.45880  -0.45768  -0.44788  -0.43924
 Alpha  occ. eigenvalues --   -0.37286  -0.36280
 Alpha virt. eigenvalues --    0.05084   0.11325   0.16571   0.20652   0.22851
 Alpha virt. eigenvalues --    0.24058   0.25773   0.26111   0.27510   0.27947
 Alpha virt. eigenvalues --    0.29306   0.29594   0.31533   0.31594   0.32202

 Mulliken charges:
               1
     1  C   -0.298596
     2  C   -0.300216
     3  C   -0.475873
     4  H    0.151446
     5  H    0.148570
     6  H    0.154716
     7  H    0.151075
     8  H    0.154389
     9  H    0.156041
    10  H    0.160770
    11  C   -0.300310
    12  C   -0.298898
    13  C   -0.483532
    14  H    0.155171
    15  H    0.147564
    16  H    0.156362
    17  H    0.151902
    18  H    0.148379
    19  H    0.159568
    20  H    0.161793
    21  C   -0.171065
    22  C   -0.220250
    23  C   -0.172708
    24  C    0.158293
    25  C   -0.170971
    26  C   -0.218632
    27  H    0.225318
    28  H    0.225548
    29  H    0.279807
    30  H    0.275278
    31  H    0.223115
    32  N    0.488049
    33  O   -0.460413
    34  O   -0.461690
 Sum of Mulliken charges =  -0.00000

 Dipole moment (field-independent basis, Debye):
    X=             -1.1310    Y=             -4.9887    Z=             -0.5459  Tot=              5.1443
 Quadrupole moment (field-independent basis, Debye-Ang):
   XX=            -83.2001   YY=            -99.6228   ZZ=            -94.8753
   XY=             14.6181   XZ=              0.3308   YZ=              0.8082

 Normal termination of Gaussian 16 at Thu May  6 09:08:12 2021.
