 Gaussian 16, Revision A.03,
 Gaussian 16:  EM64L-G16RevA.03 25-Dec-2016

 -------------
 #p 6-31g* mp2
 -------------

 ------------------------------------------------------
 Input file generated by CHIRIPA (05-May-2021 14:53:14)
 ------------------------------------------------------
 Symbolic Z-matrix:
 Charge =  0 Multiplicity = 1

                         Standard orientation:
 ---------------------------------------------------------------------
 Center     Atomic      Atomic             Coordinates (Angstroms)
 Number     Number       Type             X           Y           Z
 ---------------------------------------------------------------------
      1          6           0        3.933364   -0.607531    0.012236
      2          6           0        3.053114   -1.857788    0.012019
      3          6           0        3.832637   -3.129645    0.347456
      4          1           0        4.749026   -0.740999   -0.711524
      5          1           0        4.405285   -0.500025    0.998709
      6          1           0        2.581908   -1.962139   -0.973726
      7          1           0        2.239343   -1.721251    0.735725
      8          1           0        4.289756   -3.051045    1.339154
      9          1           0        4.634268   -3.293302   -0.380009
     10          1           0        3.184118   -4.011262    0.341730
     11          6           0        3.168384    0.672016   -0.321370
     12          6           0        4.048635    1.922273   -0.321153
     13          6           0        3.269111    3.194130   -0.656591
     14          1           0        2.696464    0.564510   -1.307843
     15          1           0        2.352723    0.805484    0.402389
     16          1           0        4.862406    1.785736   -1.044859
     17          1           0        4.519840    2.026624    0.664591
     18          1           0        2.467481    3.357787    0.070875
     19          1           0        2.811993    3.115530   -1.648289
     20          1           0        3.917631    4.075747   -0.650864
     21          6           0       -5.185425   -0.112450   -0.616755
     22          6           0       -4.225896   -0.895797   -1.266517
     23          6           0       -2.886949   -0.855450   -0.866340
     24          6           0       -2.541005   -0.016753    0.192056
     25          6           0       -3.473786    0.775669    0.859345
     26          6           0       -4.806974    0.719316    0.442235
     27          1           0       -6.223314   -0.150009   -0.934199
     28          1           0       -4.516927   -1.542682   -2.089248
     29          1           0       -2.123624   -1.451344   -1.351791
     30          1           0       -3.153348    1.410782    1.676272
     31          1           0       -5.550010    1.328780    0.948692
     32          7           0       -1.126570    0.034432    0.624668
     33          8           0       -0.847393    0.781542    1.559828
     34          8           0       -0.323894   -0.673528    0.020399
 ---------------------------------------------------------------------

 SCF Done:  E(RHF) =  -669.536360691     A.U. after   15 cycles
 E2 =    -0.2092125220D+01 EUMP2 =    -0.67162848591104D+03

 The electronic state is 1-A.
 Alpha  occ. eigenvalues --  -20.61087 -20.61074 -15.86081 -11.31367 -11.27922
 Alpha  occ. eigenvalues --  -11.27918 -11.27652 -11.26918 -11.26909 -11.20322
 Alpha  occ. eigenvalues --  -11.19992 -11.19891 -11.19835 -11.19777 -11.19622
 Alpha  occ. eigenvalues --   -1.60125  -1.39682  -1.19529  -1.08942  -1.06894
 Alpha  occ. eigenvalues --   -1.04917  -1.02141  -0.95790  -0.94630  -0.86320
 Alpha  occ. eigenvalues --   -0.85655  -0.82627  -0.78174  -0.77681  -0.76648
 Alpha  occ. eigenvalues --   -0.72283  -0.71427  -0.70637  -0.65183  -0.64921
 Alpha  occ. eigenvalues --   -0.63536  -0.62264  -0.59552  -0.57999  -0.56225
 Alpha  occ. eigenvalues --   -0.55425  -0.53936  -0.53251  -0.53009  -0.51388
 Alpha  occ. eigenvalues --   -0.51051  -0.49139  -0.49067  -0.48584  -0.46500
 Alpha  occ. eigenvalues --   -0.45228  -0.45046  -0.44206  -0.43964  -0.42352
 Alpha  occ. eigenvalues --   -0.37504  -0.36516
 Alpha virt. eigenvalues --    0.04828   0.11140   0.16333   0.21273   0.24323
 Alpha virt. eigenvalues --    0.25555   0.27200   0.28063   0.28180   0.29040
 Alpha virt. eigenvalues --    0.29460   0.30912   0.32367   0.32654   0.33050

 Mulliken charges:
               1
     1  C   -0.298449
     2  C   -0.299333
     3  C   -0.475386
     4  H    0.141426
     5  H    0.145024
     6  H    0.148579
     7  H    0.172870
     8  H    0.151526
     9  H    0.149101
    10  H    0.155274
    11  C   -0.300933
    12  C   -0.298529
    13  C   -0.475198
    14  H    0.145434
    15  H    0.171498
    16  H    0.146038
    17  H    0.149127
    18  H    0.158843
    19  H    0.151302
    20  H    0.154664
    21  C   -0.170402
    22  C   -0.218573
    23  C   -0.170721
    24  C    0.158202
    25  C   -0.170412
    26  C   -0.218609
    27  H    0.226274
    28  H    0.224100
    29  H    0.276039
    30  H    0.275916
    31  H    0.224066
    32  N    0.490267
    33  O   -0.460469
    34  O   -0.458556
 Sum of Mulliken charges =  -0.00000

 Dipole moment (field-independent basis, Debye):
    X=             -5.4983    Y=             -0.1743    Z=             -1.4112  Tot=              5.6792
 Quadrupole moment (field-independent basis, Debye-Ang):
   XX=            -71.7478   YY=            -95.0401   ZZ=            -92.4471
   XY=              0.1675   XZ=              2.1536   YZ=              3.3460

 Normal termination of Gaussian 16 at Thu May  6 20:24:09 2021.
