 Gaussian 16, Revision A.03,
 Gaussian 16:  EM64L-G16RevA.03 25-Dec-2016

 -------------
 #p 6-31g* mp2
 -------------

 ------------------------------------------------------
 Input file generated by CHIRIPA (05-May-2021 14:55:22)
 ------------------------------------------------------
 Symbolic Z-matrix:
 Charge =  0 Multiplicity = 1

                         Standard orientation:
 ---------------------------------------------------------------------
 Center     Atomic      Atomic             Coordinates (Angstroms)
 Number     Number       Type             X           Y           Z
 ---------------------------------------------------------------------
      1          6           0        3.897479   -2.416340   -0.020773
      2          6           0        4.983334   -1.617586   -0.394179
      3          6           0        4.874086   -0.223816   -0.390111
      4          6           0        3.658767    0.340300   -0.005322
      5          6           0        2.558879   -0.428574    0.371996
      6          6           0        2.690844   -1.820335    0.360450
      7          1           0        3.991170   -3.498274   -0.026837
      8          1           0        5.921636   -2.077705   -0.690701
      9          1           0        5.698815    0.418327   -0.674527
     10          1           0        1.636318    0.059038    0.662743
     11          1           0        1.845888   -2.438166    0.650931
     12          7           0        3.531085    1.814759    0.002942
     13          8           0        2.449594    2.287311    0.346029
     14          8           0        4.514917    2.469969   -0.333823
     15          6           0       -4.070008   -0.485637   -0.199399
     16          6           0       -2.842378   -0.054472    0.603724
     17          6           0       -1.569499   -0.785707    0.176091
     18          1           0       -4.212279   -1.569107   -0.086279
     19          1           0       -3.883177   -0.304696   -1.266990
     20          1           0       -3.032003   -0.234888    1.669608
     21          1           0       -2.703124    1.028128    0.488833
     22          1           0       -1.352903   -0.596428   -0.880252
     23          1           0       -1.683651   -1.866621    0.307232
     24          1           0       -0.704237   -0.462248    0.763079
     25          6           0       -5.350306    0.236570    0.216510
     26          6           0       -6.577936   -0.194594   -0.586613
     27          6           0       -7.850815    0.536641   -0.158980
     28          1           0       -5.537136    0.055629    1.284101
     29          1           0       -5.208034    1.320040    0.103390
     30          1           0       -6.717189   -1.277195   -0.471722
     31          1           0       -6.388310   -0.014179   -1.652496
     32          1           0       -7.736663    1.617554   -0.290120
     33          1           0       -8.067410    0.347361    0.897363
     34          1           0       -8.716077    0.213181   -0.745967
 ---------------------------------------------------------------------

 SCF Done:  E(RHF) =  -669.535544627     A.U. after   15 cycles
 E2 =    -0.2090934133D+01 EUMP2 =    -0.67162647876071D+03

 The electronic state is 1-A.
 Alpha  occ. eigenvalues --  -20.60725 -20.60720 -15.85776 -11.31119 -11.27696
 Alpha  occ. eigenvalues --  -11.27663 -11.27437 -11.26713 -11.26682 -11.21887
 Alpha  occ. eigenvalues --  -11.21703 -11.21690 -11.21595 -11.21480 -11.21118
 Alpha  occ. eigenvalues --   -1.59800  -1.39354  -1.19294  -1.08696  -1.08618
 Alpha  occ. eigenvalues --   -1.04695  -1.03764  -0.96246  -0.95533  -0.87273
 Alpha  occ. eigenvalues --   -0.86094  -0.82364  -0.79828  -0.78406  -0.77412
 Alpha  occ. eigenvalues --   -0.71997  -0.71122  -0.70418  -0.65239  -0.64949
 Alpha  occ. eigenvalues --   -0.64704  -0.62098  -0.61149  -0.59608  -0.57836
 Alpha  occ. eigenvalues --   -0.55521  -0.55209  -0.53086  -0.53001  -0.52763
 Alpha  occ. eigenvalues --   -0.52583  -0.50167  -0.48753  -0.48752  -0.48143
 Alpha  occ. eigenvalues --   -0.46829  -0.45959  -0.45861  -0.44764  -0.44022
 Alpha  occ. eigenvalues --   -0.37281  -0.36293
 Alpha virt. eigenvalues --    0.05115   0.11355   0.16606   0.20261   0.22779
 Alpha virt. eigenvalues --    0.23863   0.25877   0.26470   0.27183   0.27953
 Alpha virt. eigenvalues --    0.28846   0.30140   0.31301   0.31542   0.32041

 Mulliken charges:
               1
     1  C   -0.170856
     2  C   -0.218901
     3  C   -0.170557
     4  C    0.159983
     5  C   -0.178154
     6  C   -0.221104
     7  H    0.225333
     8  H    0.223168
     9  H    0.275332
    10  H    0.283375
    11  H    0.224891
    12  N    0.487551
    13  O   -0.460520
    14  O   -0.460648
    15  C   -0.299290
    16  C   -0.299187
    17  C   -0.480618
    18  H    0.148300
    19  H    0.150856
    20  H    0.152544
    21  H    0.159150
    22  H    0.160411
    23  H    0.152141
    24  H    0.153962
    25  C   -0.298806
    26  C   -0.299827
    27  C   -0.475899
    28  H    0.149705
    29  H    0.152031
    30  H    0.151232
    31  H    0.152467
    32  H    0.156279
    33  H    0.155219
    34  H    0.160437
 Sum of Mulliken charges =  -0.00000

 Dipole moment (field-independent basis, Debye):
    X=              0.2984    Y=             -5.1508    Z=             -0.0597  Tot=              5.1598
 Quadrupole moment (field-independent basis, Debye-Ang):
   XX=            -87.6364   YY=            -98.6041   ZZ=            -94.6850
   XY=            -18.2493   XZ=             -1.7724   YZ=             -0.7104

 Normal termination of Gaussian 16 at Thu May  6 15:52:52 2021.
