 Gaussian 16, Revision A.03,
 Gaussian 16:  EM64L-G16RevA.03 25-Dec-2016

 -------------
 #p 6-31g* mp2
 -------------

 ------------------------------------------------------
 Input file generated by CHIRIPA (05-May-2021 14:55:23)
 ------------------------------------------------------
 Symbolic Z-matrix:
 Charge =  0 Multiplicity = 1

                         Standard orientation:
 ---------------------------------------------------------------------
 Center     Atomic      Atomic             Coordinates (Angstroms)
 Number     Number       Type             X           Y           Z
 ---------------------------------------------------------------------
      1          6           0        5.132778   -0.085346   -0.791404
      2          6           0        4.480790    1.132869   -0.573725
      3          6           0        3.188082    1.161249   -0.042077
      4          6           0        2.574272   -0.052906    0.261821
      5          6           0        3.197643   -1.282748    0.056425
      6          6           0        4.490257   -1.287147   -0.476190
      7          1           0        6.136948   -0.098077   -1.204776
      8          1           0        4.977343    2.067756   -0.817584
      9          1           0        2.660198    2.090141    0.136575
     10          1           0        2.676975   -2.198345    0.309416
     11          1           0        4.994175   -2.234719   -0.644180
     12          7           0        1.205790   -0.035555    0.825164
     13          8           0        0.686703   -1.119026    1.084540
     14          8           0        0.678174    1.061187    0.996670
     15          6           0       -3.463983   -0.615335    0.095972
     16          6           0       -4.052629   -1.764752   -0.722760
     17          6           0       -3.804833   -3.132194   -0.085191
     18          1           0       -2.383729   -0.775006    0.216402
     19          1           0       -3.897195   -0.634111    1.105610
     20          1           0       -3.619467   -1.742978   -1.730983
     21          1           0       -5.131574   -1.602228   -0.841418
     22          1           0       -4.251957   -3.178522    0.913075
     23          1           0       -2.731260   -3.320072    0.018455
     24          1           0       -4.233974   -3.939414   -0.686935
     25          6           0       -3.703543    0.758096   -0.528548
     26          6           0       -3.114896    1.907513    0.290185
     27          6           0       -3.362691    3.274955   -0.347385
     28          1           0       -3.270329    0.776871   -1.538186
     29          1           0       -4.783796    0.917766   -0.648977
     30          1           0       -2.035952    1.744989    0.408843
     31          1           0       -3.548057    1.885738    1.298407
     32          1           0       -4.436265    3.462832   -0.451031
     33          1           0       -2.915568    3.321283   -1.345650
     34          1           0       -2.933550    4.082175    0.254359
 ---------------------------------------------------------------------

 SCF Done:  E(RHF) =  -669.536935922     A.U. after   15 cycles
 E2 =    -0.2091785891D+01 EUMP2 =    -0.67162872181352D+03

 The electronic state is 1-A.
 Alpha  occ. eigenvalues --  -20.61171 -20.61164 -15.86166 -11.31418 -11.27968
 Alpha  occ. eigenvalues --  -11.27965 -11.27693 -11.26957 -11.26947 -11.20475
 Alpha  occ. eigenvalues --  -11.20064 -11.20028 -11.19966 -11.19906 -11.19847
 Alpha  occ. eigenvalues --   -1.60204  -1.39763  -1.19576  -1.08994  -1.07068
 Alpha  occ. eigenvalues --   -1.04959  -1.02263  -0.95845  -0.94751  -0.86363
 Alpha  occ. eigenvalues --   -0.85773  -0.82683  -0.78309  -0.77745  -0.76835
 Alpha  occ. eigenvalues --   -0.72379  -0.71507  -0.70683  -0.65232  -0.64961
 Alpha  occ. eigenvalues --   -0.63701  -0.62306  -0.59667  -0.58117  -0.56344
 Alpha  occ. eigenvalues --   -0.55467  -0.54052  -0.53295  -0.53049  -0.51489
 Alpha  occ. eigenvalues --   -0.51171  -0.49192  -0.49151  -0.48686  -0.46635
 Alpha  occ. eigenvalues --   -0.45454  -0.45019  -0.44425  -0.44181  -0.42496
 Alpha  occ. eigenvalues --   -0.37549  -0.36556
 Alpha virt. eigenvalues --    0.04740   0.11100   0.16237   0.21235   0.24197
 Alpha virt. eigenvalues --    0.25488   0.27171   0.27877   0.28178   0.28986
 Alpha virt. eigenvalues --    0.29272   0.30865   0.32260   0.32605   0.32988

 Mulliken charges:
               1
     1  C   -0.170278
     2  C   -0.218592
     3  C   -0.170624
     4  C    0.157782
     5  C   -0.170412
     6  C   -0.218615
     7  H    0.226498
     8  H    0.224331
     9  H    0.276169
    10  H    0.276073
    11  H    0.224298
    12  N    0.489738
    13  O   -0.458773
    14  O   -0.459322
    15  C   -0.304860
    16  C   -0.298064
    17  C   -0.475551
    18  H    0.169836
    19  H    0.147140
    20  H    0.147361
    21  H    0.147258
    22  H    0.154011
    23  H    0.159892
    24  H    0.154103
    25  C   -0.296569
    26  C   -0.311420
    27  C   -0.474179
    28  H    0.143645
    29  H    0.143030
    30  H    0.180454
    31  H    0.148299
    32  H    0.149848
    33  H    0.150088
    34  H    0.157405
 Sum of Mulliken charges =  -0.00000

 Dipole moment (field-independent basis, Debye):
    X=              5.3385    Y=             -0.1115    Z=             -1.8308  Tot=              5.6448
 Quadrupole moment (field-independent basis, Debye-Ang):
   XX=            -71.3203   YY=            -91.6046   ZZ=            -96.6901
   XY=             -0.2460   XZ=             -5.0710   YZ=              0.2749

 Normal termination of Gaussian 16 at Wed May  5 17:34:44 2021.
