 Gaussian 16, Revision A.03,
 Gaussian 16:  EM64L-G16RevA.03 25-Dec-2016

 -------------
 #p 6-31g* mp2
 -------------

 ------------------------------------------------------
 Input file generated by CHIRIPA (05-May-2021 14:57:26)
 ------------------------------------------------------
 Symbolic Z-matrix:
 Charge =  0 Multiplicity = 1

                         Standard orientation:
 ---------------------------------------------------------------------
 Center     Atomic      Atomic             Coordinates (Angstroms)
 Number     Number       Type             X           Y           Z
 ---------------------------------------------------------------------
      1          6           0        1.479154    2.509075    0.748149
      2          6           0        2.453003    1.802821    1.461831
      3          6           0        2.933741    0.579120    0.986440
      4          6           0        2.416205    0.088902   -0.211531
      5          6           0        1.445553    0.768974   -0.945442
      6          6           0        0.979418    1.990812   -0.451096
      7          1           0        1.111377    3.458952    1.124806
      8          1           0        2.842921    2.202893    2.393470
      9          1           0        3.687325    0.011549    1.518784
     10          1           0        1.076000    0.344685   -1.871093
     11          1           0        0.223078    2.537117   -1.007464
     12          7           0        2.917411   -1.205589   -0.724840
     13          8           0        2.445306   -1.615963   -1.782831
     14          8           0        3.772871   -1.785325   -0.059460
     15          6           0       -2.763324    1.887337   -1.050765
     16          6           0       -2.853047    0.683278   -1.756960
     17          6           0       -2.617015   -0.535851   -1.114652
     18          6           0       -2.292057   -0.513931    0.240787
     19          6           0       -2.194983    0.669138    0.971687
     20          6           0       -2.435156    1.876444    0.308907
     21          1           0       -2.948288    2.829794   -1.557677
     22          1           0       -3.107721    0.688707   -2.812969
     23          1           0       -2.679699   -1.482612   -1.637274
     24          1           0       -1.939160    0.631785    2.023626
     25          1           0       -2.364766    2.810000    0.859872
     26          7           0       -2.039988   -1.798310    0.931606
     27          8           0       -1.755347   -1.752032    2.126376
     28          8           0       -2.131828   -2.826965    0.265219
 ---------------------------------------------------------------------

 SCF Done:  E(RHF) =  -868.335427177     A.U. after   16 cycles
 E2 =    -0.2604169379D+01 EUMP2 =    -0.87093959655617D+03

 The electronic state is 1-A.
 Alpha  occ. eigenvalues --  -20.60991 -20.60962 -20.60632 -20.60620 -15.86041
 Alpha  occ. eigenvalues --  -15.85686 -11.31670 -11.31190 -11.28269 -11.28248
 Alpha  occ. eigenvalues --  -11.28114 -11.27731 -11.27709 -11.27567 -11.27400
 Alpha  occ. eigenvalues --  -11.27362 -11.26835 -11.26812  -1.60048  -1.59696
 Alpha  occ. eigenvalues --   -1.39593  -1.39248  -1.19899  -1.19360  -1.09264
 Alpha  occ. eigenvalues --   -1.08756  -1.05331  -1.04774  -0.96033  -0.95568
 Alpha  occ. eigenvalues --   -0.86728  -0.86182  -0.82854  -0.82391  -0.77838
 Alpha  occ. eigenvalues --   -0.77408  -0.72256  -0.71906  -0.71376  -0.71015
 Alpha  occ. eigenvalues --   -0.71007  -0.70518  -0.65544  -0.65351  -0.65019
 Alpha  occ. eigenvalues --   -0.64818  -0.62651  -0.62151  -0.55857  -0.55362
 Alpha  occ. eigenvalues --   -0.54046  -0.53418  -0.52956  -0.52641  -0.49037
 Alpha  occ. eigenvalues --   -0.48992  -0.48674  -0.48649  -0.44938  -0.44622
 Alpha  occ. eigenvalues --   -0.38038  -0.37644  -0.36861  -0.35988
 Alpha virt. eigenvalues --    0.04641   0.05117   0.10551   0.11385   0.16015
 Alpha virt. eigenvalues --    0.16579   0.20235   0.21760   0.26292   0.26948
 Alpha virt. eigenvalues --    0.27916   0.28458   0.30166   0.31416   0.32101

 Mulliken charges:
               1
     1  C   -0.177346
     2  C   -0.217279
     3  C   -0.169585
     4  C    0.160113
     5  C   -0.174641
     6  C   -0.208817
     7  H    0.219227
     8  H    0.223437
     9  H    0.277389
    10  H    0.273461
    11  H    0.218406
    12  N    0.488768
    13  O   -0.460485
    14  O   -0.457770
    15  C   -0.180609
    16  C   -0.221077
    17  C   -0.171139
    18  C    0.160274
    19  C   -0.163729
    20  C   -0.219622
    21  H    0.224580
    22  H    0.226250
    23  H    0.281089
    24  H    0.276422
    25  H    0.219295
    26  N    0.487787
    27  O   -0.459824
    28  O   -0.454573
 Sum of Mulliken charges =  -0.00000

 Dipole moment (field-independent basis, Debye):
    X=             -2.6958    Y=              8.7239    Z=             -0.5722  Tot=              9.1489
 Quadrupole moment (field-independent basis, Debye-Ang):
   XX=           -108.2654   YY=           -108.9851   ZZ=           -100.4609
   XY=              1.3258   XZ=             13.9497   YZ=              3.6989

 Normal termination of Gaussian 16 at Thu May  6 16:28:18 2021.
