 Gaussian 16, Revision A.03,
 Gaussian 16:  EM64L-G16RevA.03 25-Dec-2016

 -------------
 #p 6-31g* mp2
 -------------

 ------------------------------------------------------
 Input file generated by CHIRIPA (05-May-2021 14:57:24)
 ------------------------------------------------------
 Symbolic Z-matrix:
 Charge =  0 Multiplicity = 1

                         Standard orientation:
 ---------------------------------------------------------------------
 Center     Atomic      Atomic             Coordinates (Angstroms)
 Number     Number       Type             X           Y           Z
 ---------------------------------------------------------------------
      1          6           0        2.387794    2.279780    1.178144
      2          6           0        2.232037    1.032493    1.791769
      3          6           0        2.619527   -0.137124    1.131167
      4          6           0        3.161630   -0.022151   -0.147972
      5          6           0        3.329540    1.205936   -0.785859
      6          6           0        2.935083    2.362375   -0.106447
      7          1           0        2.084077    3.183248    1.698622
      8          1           0        1.807298    0.965326    2.789331
      9          1           0        2.510173   -1.115629    1.582817
     10          1           0        3.756034    1.241041   -1.780991
     11          1           0        3.057223    3.329683   -0.585448
     12          7           0        3.575535   -1.253396   -0.857278
     13          8           0        4.050516   -1.125214   -1.983600
     14          8           0        3.417136   -2.323316   -0.273481
     15          6           0       -0.966803   -1.084493    1.044352
     16          6           0       -2.172163   -1.772788    1.217207
     17          6           0       -3.356583   -1.281355    0.660261
     18          6           0       -3.299006   -0.093406   -0.066891
     19          6           0       -2.113677    0.615297   -0.256694
     20          6           0       -0.941451    0.105255    0.309249
     21          1           0       -0.051453   -1.473479    1.480497
     22          1           0       -2.194840   -2.697001    1.787612
     23          1           0       -4.303499   -1.793970    0.778564
     24          1           0       -2.122568    1.534090   -0.830419
     25          1           0       -0.006796    0.641914    0.173382
     26          7           0       -4.546444    0.436703   -0.661268
     27          8           0       -4.469126    1.485406   -1.297570
     28          8           0       -5.577883   -0.206538   -0.479583
 ---------------------------------------------------------------------

 SCF Done:  E(RHF) =  -868.336071808     A.U. after   16 cycles
 E2 =    -0.2603709296D+01 EUMP2 =    -0.87093978110400D+03

 The electronic state is 1-A.
 Alpha  occ. eigenvalues --  -20.61792 -20.61770 -20.60822 -20.60814 -15.86845
 Alpha  occ. eigenvalues --  -15.85868 -11.32471 -11.31220 -11.29056 -11.28964
 Alpha  occ. eigenvalues --  -11.28707 -11.28062 -11.28020 -11.27758 -11.27748
 Alpha  occ. eigenvalues --  -11.27506 -11.26798 -11.26625  -1.60852  -1.59895
 Alpha  occ. eigenvalues --   -1.40400  -1.39449  -1.20671  -1.19371  -1.09970
 Alpha  occ. eigenvalues --   -1.08783  -1.06085  -1.04758  -0.96767  -0.95625
 Alpha  occ. eigenvalues --   -0.87421  -0.86171  -0.83582  -0.82452  -0.78615
 Alpha  occ. eigenvalues --   -0.77502  -0.73051  -0.72192  -0.72086  -0.71703
 Alpha  occ. eigenvalues --   -0.71216  -0.70513  -0.66256  -0.66001  -0.65025
 Alpha  occ. eigenvalues --   -0.64831  -0.63383  -0.62167  -0.56477  -0.55319
 Alpha  occ. eigenvalues --   -0.54529  -0.54078  -0.53107  -0.52592  -0.49829
 Alpha  occ. eigenvalues --   -0.49797  -0.48848  -0.48836  -0.45749  -0.44858
 Alpha  occ. eigenvalues --   -0.38677  -0.37721  -0.37304  -0.36331
 Alpha virt. eigenvalues --    0.03878   0.05012   0.09747   0.11410   0.15331
 Alpha virt. eigenvalues --    0.16513   0.19533   0.21902   0.25051   0.26874
 Alpha virt. eigenvalues --    0.27544   0.29172   0.30179   0.30588   0.32479

 Mulliken charges:
               1
     1  C   -0.174947
     2  C   -0.224005
     3  C   -0.185331
     4  C    0.162832
     5  C   -0.171756
     6  C   -0.218610
     7  H    0.232265
     8  H    0.228673
     9  H    0.274059
    10  H    0.280978
    11  H    0.230141
    12  N    0.488702
    13  O   -0.454784
    14  O   -0.460243
    15  C   -0.173896
    16  C   -0.217825
    17  C   -0.171731
    18  C    0.159366
    19  C   -0.173818
    20  C   -0.224879
    21  H    0.219603
    22  H    0.224334
    23  H    0.275699
    24  H    0.273475
    25  H    0.235034
    26  N    0.488009
    27  O   -0.461407
    28  O   -0.459937
 Sum of Mulliken charges =  -0.00000

 Dipole moment (field-independent basis, Debye):
    X=              3.2774    Y=              2.6074    Z=              4.4837  Tot=              6.1355
 Quadrupole moment (field-independent basis, Debye-Ang):
   XX=           -141.7653   YY=           -100.3227   ZZ=           -102.8603
   XY=             23.3659   XZ=             -1.8086   YZ=             -4.7619

 Normal termination of Gaussian 16 at Fri May  7 03:27:09 2021.
