 Gaussian 16, Revision A.03,
 Gaussian 16:  EM64L-G16RevA.03 25-Dec-2016

 -------------
 #p 6-31g* mp2
 -------------

 ------------------------------------------------------
 Input file generated by CHIRIPA (05-May-2021 14:51:07)
 ------------------------------------------------------
 Symbolic Z-matrix:
 Charge =  0 Multiplicity = 1

                         Standard orientation:
 ---------------------------------------------------------------------
 Center     Atomic      Atomic             Coordinates (Angstroms)
 Number     Number       Type             X           Y           Z
 ---------------------------------------------------------------------
      1          6           0       -3.860207    0.879287   -0.041621
      2          6           0       -3.031422    2.155013    0.112068
      3          6           0       -3.894605    3.414284    0.195401
      4          1           0       -4.481736    0.959890   -0.943924
      5          1           0       -4.551982    0.795201    0.807951
      6          1           0       -2.340450    2.235952   -0.736827
      7          1           0       -2.411652    2.071284    1.014005
      8          1           0       -4.573857    3.359725    1.052280
      9          1           0       -4.502250    3.525329   -0.708500
     10          1           0       -3.281856    4.314501    0.304987
     11          6           0       -3.011421   -0.388041   -0.126297
     12          6           0       -3.840207   -1.663768   -0.279985
     13          6           0       -2.977023   -2.923039   -0.363318
     14          1           0       -2.319646   -0.303956   -0.975869
     15          1           0       -2.389893   -0.468645    0.776006
     16          1           0       -4.459976   -1.580039   -1.181923
     17          1           0       -4.531179   -1.744707    0.568910
     18          1           0       -2.369378   -3.034084    0.540583
     19          1           0       -2.297772   -2.868480   -1.220197
     20          1           0       -3.589772   -3.823256   -0.472904
     21          6           0        3.865174    0.256805   -0.298987
     22          6           0        5.286200    0.383558    0.251111
     23          6           0        6.132916    1.392430   -0.525446
     24          1           0        3.913001   -0.039040   -1.355932
     25          1           0        3.379719    1.242196   -0.271880
     26          1           0        5.768355   -0.602050    0.224261
     27          1           0        5.234981    0.678949    1.306922
     28          1           0        5.677325    2.387244   -0.488276
     29          1           0        6.213731    1.098967   -1.577088
     30          1           0        7.144894    1.467198   -0.115359
     31          6           0        3.006453   -0.748051    0.466904
     32          6           0        1.585429   -0.874802   -0.083194
     33          6           0        0.738712   -1.883675    0.693363
     34          1           0        3.491909   -1.733441    0.439798
     35          1           0        2.958627   -0.452206    1.523850
     36          1           0        1.636647   -1.170195   -1.139004
     37          1           0        1.103274    0.110805   -0.056344
     38          1           0        0.657898   -1.590212    1.745004
     39          1           0        1.194303   -2.878490    0.656192
     40          1           0       -0.273265   -1.958443    0.283276
 ---------------------------------------------------------------------

 SCF Done:  E(RHF) =  -470.732446324     A.U. after   11 cycles
 E2 =    -0.1583591826D+01 EUMP2 =    -0.47231603814944D+03

 The electronic state is 1-A.
 Alpha  occ. eigenvalues --  -11.21627 -11.21624 -11.21569 -11.21513 -11.21423
 Alpha  occ. eigenvalues --  -11.21363 -11.21352 -11.21289 -11.21089 -11.21080
 Alpha  occ. eigenvalues --  -11.21048 -11.20864  -1.08465  -1.08366  -1.03578
 Alpha  occ. eigenvalues --   -1.03446  -0.96019  -0.95901  -0.87047  -0.86916
 Alpha  occ. eigenvalues --   -0.79679  -0.79482  -0.78279  -0.78186  -0.65091
 Alpha  occ. eigenvalues --   -0.64999  -0.60966  -0.60856  -0.59622  -0.59109
 Alpha  occ. eigenvalues --   -0.57692  -0.57446  -0.55297  -0.55196  -0.52801
 Alpha  occ. eigenvalues --   -0.52672  -0.52365  -0.52279  -0.49950  -0.49850
 Alpha  occ. eigenvalues --   -0.48049  -0.47704  -0.46656  -0.46562  -0.45784
 Alpha  occ. eigenvalues --   -0.45741  -0.45722  -0.45643  -0.43814  -0.43615
 Alpha virt. eigenvalues --    0.21800   0.23165   0.23492   0.24835   0.26239
 Alpha virt. eigenvalues --    0.26464   0.27003   0.27343   0.27911   0.29303
 Alpha virt. eigenvalues --    0.30742   0.31255   0.31500   0.31765   0.32253

 Mulliken charges:
               1
     1  C   -0.298040
     2  C   -0.299771
     3  C   -0.475704
     4  H    0.149719
     5  H    0.149602
     6  H    0.152033
     7  H    0.151765
     8  H    0.155240
     9  H    0.155290
    10  H    0.160238
    11  C   -0.302566
    12  C   -0.298827
    13  C   -0.480971
    14  H    0.150142
    15  H    0.152987
    16  H    0.151935
    17  H    0.152009
    18  H    0.159413
    19  H    0.155394
    20  H    0.161190
    21  C   -0.298157
    22  C   -0.299556
    23  C   -0.475657
    24  H    0.149400
    25  H    0.149392
    26  H    0.151862
    27  H    0.151837
    28  H    0.155104
    29  H    0.155089
    30  H    0.160131
    31  C   -0.298310
    32  C   -0.299421
    33  C   -0.486414
    34  H    0.149358
    35  H    0.149328
    36  H    0.150909
    37  H    0.152287
    38  H    0.152681
    39  H    0.153875
    40  H    0.175181
 Sum of Mulliken charges =  -0.00000

 Dipole moment (field-independent basis, Debye):
    X=             -0.0698    Y=             -0.0127    Z=             -0.0055  Tot=              0.0711
 Quadrupole moment (field-independent basis, Debye-Ang):
   XX=            -85.5520   YY=            -85.6799   ZZ=            -83.5784
   XY=             -0.1748   XZ=              0.0874   YZ=              0.6416

 Normal termination of Gaussian 16 at Wed May  5 15:01:17 2021.
