 Gaussian 16, Revision A.03,
 Gaussian 16:  EM64L-G16RevA.03 25-Dec-2016

 -------------
 #p 6-31g* mp2
 -------------

 ------------------------------------------------------
 Input file generated by CHIRIPA (05-May-2021 14:57:25)
 ------------------------------------------------------
 Symbolic Z-matrix:
 Charge =  0 Multiplicity = 1

                         Standard orientation:
 ---------------------------------------------------------------------
 Center     Atomic      Atomic             Coordinates (Angstroms)
 Number     Number       Type             X           Y           Z
 ---------------------------------------------------------------------
      1          6           0        2.565091    2.667708    0.163276
      2          6           0        1.813015    1.922570    1.077427
      3          6           0        1.952914    0.533249    1.146464
      4          6           0        2.858190   -0.081137    0.282581
      5          6           0        3.621737    0.633698   -0.638992
      6          6           0        3.465464    2.022033   -0.690510
      7          1           0        2.450054    3.746583    0.116451
      8          1           0        1.113014    2.421335    1.741713
      9          1           0        1.383242   -0.067935    1.844655
     10          1           0        4.311529    0.108323   -1.288288
     11          1           0        4.050852    2.598168   -1.401449
     12          7           0        3.014962   -1.551426    0.346394
     13          8           0        3.819269   -2.068909   -0.425576
     14          8           0        2.330564   -2.158516    1.167173
     15          6           0       -5.111652    0.570522    0.525007
     16          6           0       -4.192480    1.519814    0.066216
     17          6           0       -2.926712    1.125804   -0.377784
     18          6           0       -2.611998   -0.231923   -0.349122
     19          6           0       -3.506008   -1.201623    0.102230
     20          6           0       -4.766092   -0.784777    0.541520
     21          1           0       -6.092723    0.885468    0.868087
     22          1           0       -4.458111    2.573043    0.052262
     23          1           0       -2.195897    1.839627   -0.738039
     24          1           0       -3.212389   -2.244313    0.104241
     25          1           0       -5.477919   -1.524220    0.897290
     26          7           0       -1.274995   -0.661132   -0.816671
     27          8           0       -1.022068   -1.863388   -0.781375
     28          8           0       -0.505295    0.212837   -1.209580
 ---------------------------------------------------------------------

 SCF Done:  E(RHF) =  -868.336670113     A.U. after   16 cycles
 E2 =    -0.2601542758D+01 EUMP2 =    -0.87093821287136D+03

 The electronic state is 1-A.
 Alpha  occ. eigenvalues --  -20.60849 -20.60815 -20.59488 -20.59460 -15.85850
 Alpha  occ. eigenvalues --  -15.84534 -11.31339 -11.29928 -11.27956 -11.27869
 Alpha  occ. eigenvalues --  -11.27668 -11.26978 -11.26913 -11.26600 -11.26558
 Alpha  occ. eigenvalues --  -11.26419 -11.25686 -11.25640  -1.59904  -1.58529
 Alpha  occ. eigenvalues --   -1.39449  -1.38093  -1.19520  -1.18132  -1.08894
 Alpha  occ. eigenvalues --   -1.07550  -1.04934  -1.03605  -0.95709  -0.94384
 Alpha  occ. eigenvalues --   -0.86325  -0.85025  -0.82533  -0.81249  -0.77571
 Alpha  occ. eigenvalues --   -0.76261  -0.72072  -0.71256  -0.70784  -0.70617
 Alpha  occ. eigenvalues --   -0.69798  -0.69365  -0.65164  -0.64933  -0.63854
 Alpha  occ. eigenvalues --   -0.63694  -0.62277  -0.61004  -0.55426  -0.54188
 Alpha  occ. eigenvalues --   -0.53270  -0.53023  -0.51864  -0.51773  -0.48860
 Alpha  occ. eigenvalues --   -0.48820  -0.47537  -0.47521  -0.44809  -0.43492
 Alpha  occ. eigenvalues --   -0.37511  -0.36548  -0.36095  -0.35115
 Alpha virt. eigenvalues --    0.04938   0.06362   0.11103   0.12466   0.16429
 Alpha virt. eigenvalues --    0.17798   0.21247   0.22292   0.27136   0.28001
 Alpha virt. eigenvalues --    0.28304   0.29200   0.30810   0.31705   0.32422

 Mulliken charges:
               1
     1  C   -0.169992
     2  C   -0.214855
     3  C   -0.161659
     4  C    0.170995
     5  C   -0.167743
     6  C   -0.217064
     7  H    0.218412
     8  H    0.213748
     9  H    0.269504
    10  H    0.273013
    11  H    0.218511
    12  N    0.490678
    13  O   -0.464050
    14  O   -0.460804
    15  C   -0.171100
    16  C   -0.218711
    17  C   -0.173481
    18  C    0.157614
    19  C   -0.170610
    20  C   -0.218521
    21  H    0.225833
    22  H    0.222021
    23  H    0.272707
    24  H    0.279353
    25  H    0.224898
    26  N    0.485514
    27  O   -0.451042
    28  O   -0.463170
 Sum of Mulliken charges =  -0.00000

 Dipole moment (field-independent basis, Debye):
    X=             -5.4208    Y=              6.3756    Z=              1.3116  Tot=              8.4708
 Quadrupole moment (field-independent basis, Debye-Ang):
   XX=            -82.2062   YY=           -102.9323   ZZ=           -104.7154
   XY=             13.4334   XZ=             -7.0086   YZ=             -0.7628

 Normal termination of Gaussian 16 at Fri May  7 11:08:38 2021.
