 Gaussian 16, Revision A.03,
 Gaussian 16:  EM64L-G16RevA.03 25-Dec-2016

 -------------
 #p 6-31g* mp2
 -------------

 ------------------------------------------------------
 Input file generated by CHIRIPA (05-May-2021 14:57:21)
 ------------------------------------------------------
 Symbolic Z-matrix:
 Charge =  0 Multiplicity = 1

                         Standard orientation:
 ---------------------------------------------------------------------
 Center     Atomic      Atomic             Coordinates (Angstroms)
 Number     Number       Type             X           Y           Z
 ---------------------------------------------------------------------
      1          6           0       -5.976693   -1.626937    0.387148
      2          6           0       -4.655364   -2.026196    0.160868
      3          6           0       -3.668885   -1.080925   -0.135563
      4          6           0       -4.040508    0.261195   -0.198029
      5          6           0       -5.348384    0.690296    0.022471
      6          6           0       -6.318384   -0.272354    0.317351
      7          1           0       -6.736612   -2.367997    0.616821
      8          1           0       -4.387117   -3.077491    0.214419
      9          1           0       -2.638371   -1.362389   -0.315109
     10          1           0       -5.585391    1.745575   -0.037807
     11          1           0       -7.343750    0.040611    0.492626
     12          7           0       -3.004890    1.271110   -0.511026
     13          8           0       -3.357951    2.447360   -0.560238
     14          8           0       -1.859722    0.867309   -0.701215
     15          6           0        1.789610    0.242801    0.769288
     16          6           0        2.205531   -0.968686    0.207298
     17          6           0        3.544757   -1.166793   -0.141667
     18          6           0        4.445299   -0.127382    0.086229
     19          6           0        4.061667    1.091034    0.644422
     20          6           0        2.717370    1.266988    0.985674
     21          1           0        0.747298    0.388091    1.037377
     22          1           0        1.487223   -1.765840    0.038112
     23          1           0        3.893891   -2.094642   -0.578267
     24          1           0        4.800914    1.867171    0.801084
     25          1           0        2.397205    2.208897    1.421962
     26          7           0        5.865762   -0.325383   -0.279123
     27          8           0        6.639552    0.605963   -0.068222
     28          8           0        6.178433   -1.408173   -0.769467
 ---------------------------------------------------------------------

 SCF Done:  E(RHF) =  -868.339230563     A.U. after   16 cycles
 E2 =    -0.2598399449D+01 EUMP2 =    -0.87093763001181D+03

 The electronic state is 1-A.
 Alpha  occ. eigenvalues --  -20.61802 -20.61733 -20.60205 -20.60198 -15.86804
 Alpha  occ. eigenvalues --  -15.85256 -11.31995 -11.30461 -11.28583 -11.28506
 Alpha  occ. eigenvalues --  -11.28218 -11.27518 -11.27476 -11.27070 -11.27027
 Alpha  occ. eigenvalues --  -11.26607 -11.26010 -11.25925  -1.60833  -1.59284
 Alpha  occ. eigenvalues --   -1.40395  -1.38843  -1.20144  -1.18619  -1.09565
 Alpha  occ. eigenvalues --   -1.08009  -1.05522  -1.04018  -0.96432  -0.94873
 Alpha  occ. eigenvalues --   -0.86926  -0.85407  -0.83274  -0.81729  -0.78351
 Alpha  occ. eigenvalues --   -0.76828  -0.73032  -0.72145  -0.71477  -0.71245
 Alpha  occ. eigenvalues --   -0.70607  -0.69635  -0.65798  -0.65517  -0.64263
 Alpha  occ. eigenvalues --   -0.64022  -0.62878  -0.61389  -0.56010  -0.54398
 Alpha  occ. eigenvalues --   -0.53854  -0.53610  -0.52331  -0.52111  -0.49797
 Alpha  occ. eigenvalues --   -0.49757  -0.48241  -0.48220  -0.45833  -0.44285
 Alpha  occ. eigenvalues --   -0.38101  -0.37117  -0.36521  -0.35637
 Alpha virt. eigenvalues --    0.04149   0.05734   0.10540   0.12037   0.15664
 Alpha virt. eigenvalues --    0.17282   0.20524   0.22168   0.26415   0.27205
 Alpha virt. eigenvalues --    0.28186   0.29114   0.30594   0.31809   0.31973

 Mulliken charges:
               1
     1  C   -0.170001
     2  C   -0.217936
     3  C   -0.170894
     4  C    0.158278
     5  C   -0.170427
     6  C   -0.218197
     7  H    0.228362
     8  H    0.224827
     9  H    0.269885
    10  H    0.277164
    11  H    0.226143
    12  N    0.489460
    13  O   -0.455343
    14  O   -0.469277
    15  C   -0.166537
    16  C   -0.218504
    17  C   -0.171626
    18  C    0.157193
    19  C   -0.171263
    20  C   -0.219472
    21  H    0.237366
    22  H    0.217024
    23  H    0.272186
    24  H    0.273692
    25  H    0.224636
    26  N    0.488335
    27  O   -0.461978
    28  O   -0.463098
 Sum of Mulliken charges =  -0.00000

 Dipole moment (field-independent basis, Debye):
    X=             -9.1846    Y=             -2.7512    Z=              2.4273  Tot=              9.8903
 Quadrupole moment (field-independent basis, Debye-Ang):
   XX=           -117.8458   YY=           -100.2013   ZZ=           -106.1743
   XY=             15.9362   XZ=              1.5897   YZ=              2.8552

 Normal termination of Gaussian 16 at Thu May  6 08:05:21 2021.
