 Gaussian 16, Revision A.03,
 Gaussian 16:  EM64L-G16RevA.03 25-Dec-2016

 -------------
 #p 6-31g* mp2
 -------------

 ------------------------------------------------------
 Input file generated by CHIRIPA (05-May-2021 14:55:19)
 ------------------------------------------------------
 Symbolic Z-matrix:
 Charge =  0 Multiplicity = 1

                         Standard orientation:
 ---------------------------------------------------------------------
 Center     Atomic      Atomic             Coordinates (Angstroms)
 Number     Number       Type             X           Y           Z
 ---------------------------------------------------------------------
      1          6           0        2.475149    1.972326   -0.144940
      2          6           0        2.072288    0.645392   -0.327893
      3          6           0        3.005507   -0.394089   -0.271958
      4          6           0        4.339379   -0.069179   -0.030073
      5          6           0        4.771792    1.242914    0.156267
      6          6           0        3.821242    2.266333    0.096131
      7          1           0        1.743471    2.773581   -0.190023
      8          1           0        1.027568    0.414104   -0.515269
      9          1           0        2.721007   -1.430149   -0.410012
     10          1           0        5.820309    1.442303    0.341396
     11          1           0        4.136979    3.295925    0.238590
     12          7           0        5.336510   -1.161129    0.031366
     13          8           0        6.505668   -0.848567    0.245865
     14          8           0        4.930021   -2.308886   -0.136141
     15          6           0       -6.009374    0.223998   -0.031994
     16          6           0       -7.225042   -0.697969    0.068568
     17          6           0       -8.548683    0.048494   -0.100426
     18          1           0       -6.088927    1.009779    0.731659
     19          1           0       -6.022981    0.732279   -1.006088
     20          1           0       -7.208399   -1.205403    1.041631
     21          1           0       -7.142490   -1.481759   -0.695288
     22          1           0       -8.591128    0.541178   -1.077187
     23          1           0       -8.657412    0.819104    0.669599
     24          1           0       -9.404466   -0.629597   -0.025011
     25          6           0       -4.678729   -0.507615    0.134904
     26          6           0       -3.463061    0.414352    0.034342
     27          6           0       -2.139420   -0.332111    0.203337
     28          1           0       -4.665122   -1.015895    1.108999
     29          1           0       -4.599176   -1.293395   -0.628748
     30          1           0       -3.545613    1.198142    0.798198
     31          1           0       -3.479704    0.921786   -0.938720
     32          1           0       -2.030691   -1.102720   -0.566689
     33          1           0       -2.096974   -0.824795    1.180097
     34          1           0       -1.283637    0.345981    0.127921
 ---------------------------------------------------------------------

 SCF Done:  E(RHF) =  -669.535536398     A.U. after   15 cycles
 E2 =    -0.2090622848D+01 EUMP2 =    -0.67162615924621D+03

 The electronic state is 1-A.
 Alpha  occ. eigenvalues --  -20.60720 -20.60715 -15.85773 -11.31132 -11.27704
 Alpha  occ. eigenvalues --  -11.27689 -11.27445 -11.26722 -11.26676 -11.22390
 Alpha  occ. eigenvalues --  -11.22111 -11.21989 -11.21974 -11.21848 -11.21396
 Alpha  occ. eigenvalues --   -1.59796  -1.39350  -1.19304  -1.09003  -1.08702
 Alpha  occ. eigenvalues --   -1.04704  -1.04142  -0.96608  -0.95538  -0.87634
 Alpha  occ. eigenvalues --   -0.86105  -0.82368  -0.80212  -0.78780  -0.77417
 Alpha  occ. eigenvalues --   -0.71992  -0.71119  -0.70417  -0.65625  -0.64956
 Alpha  occ. eigenvalues --   -0.64740  -0.62089  -0.61526  -0.59999  -0.58202
 Alpha  occ. eigenvalues --   -0.55875  -0.55216  -0.53450  -0.53054  -0.53031
 Alpha  occ. eigenvalues --   -0.52647  -0.50529  -0.48753  -0.48747  -0.48519
 Alpha  occ. eigenvalues --   -0.47221  -0.46332  -0.46230  -0.44756  -0.44390
 Alpha  occ. eigenvalues --   -0.37289  -0.36305
 Alpha virt. eigenvalues --    0.05117   0.11319   0.16604   0.20208   0.22455
 Alpha virt. eigenvalues --    0.23767   0.25835   0.26131   0.26953   0.28233
 Alpha virt. eigenvalues --    0.28361   0.30249   0.30832   0.31443   0.31967

 Mulliken charges:
               1
     1  C   -0.172753
     2  C   -0.225325
     3  C   -0.172694
     4  C    0.158848
     5  C   -0.171289
     6  C   -0.218531
     7  H    0.225062
     8  H    0.233903
     9  H    0.276165
    10  H    0.275390
    11  H    0.223148
    12  N    0.488014
    13  O   -0.460680
    14  O   -0.460428
    15  C   -0.298707
    16  C   -0.300130
    17  C   -0.476004
    18  H    0.150081
    19  H    0.149824
    20  H    0.152831
    21  H    0.152775
    22  H    0.155436
    23  H    0.155459
    24  H    0.161612
    25  C   -0.299391
    26  C   -0.299206
    27  C   -0.480667
    28  H    0.151375
    29  H    0.151120
    30  H    0.153132
    31  H    0.152092
    32  H    0.157415
    33  H    0.161118
    34  H    0.151003
 Sum of Mulliken charges =  -0.00000

 Dipole moment (field-independent basis, Debye):
    X=             -3.7390    Y=              3.8118    Z=             -0.1929  Tot=              5.3430
 Quadrupole moment (field-independent basis, Debye-Ang):
   XX=           -123.2343   YY=            -93.5212   ZZ=            -94.4401
   XY=             20.3511   XZ=             -0.3087   YZ=              0.7819

 Normal termination of Gaussian 16 at Thu May  6 14:02:40 2021.
