 Gaussian 16, Revision A.03,
 Gaussian 16:  EM64L-G16RevA.03 25-Dec-2016

 -------------
 #p 6-31g* mp2
 -------------

 ------------------------------------------------------
 Input file generated by CHIRIPA (05-May-2021 14:53:18)
 ------------------------------------------------------
 Symbolic Z-matrix:
 Charge =  0 Multiplicity = 1

                         Standard orientation:
 ---------------------------------------------------------------------
 Center     Atomic      Atomic             Coordinates (Angstroms)
 Number     Number       Type             X           Y           Z
 ---------------------------------------------------------------------
      1          6           0        3.716892    0.285829   -0.207694
      2          6           0        3.290798    1.710260   -0.564664
      3          6           0        1.780861    1.842844   -0.765429
      4          1           0        3.389833   -0.398067   -1.002844
      5          1           0        3.195505   -0.026901    0.707593
      6          1           0        3.813884    2.020717   -1.478235
      7          1           0        3.619077    2.390871    0.231337
      8          1           0        1.244678    1.559234    0.145984
      9          1           0        1.440592    1.186977   -1.573301
     10          1           0        1.498276    2.869138   -1.019842
     11          6           0        5.223583    0.137309   -0.003848
     12          6           0        5.649677   -1.287121    0.353121
     13          6           0        7.159614   -1.419705    0.553887
     14          1           0        5.744970    0.450040   -0.919135
     15          1           0        5.550641    0.821205    0.791302
     16          1           0        5.321398   -1.967733   -0.442879
     17          1           0        5.126591   -1.597579    1.266693
     18          1           0        7.499883   -0.763838    1.361759
     19          1           0        7.695797   -1.136096   -0.357527
     20          1           0        7.442199   -2.445999    0.808300
     21          6           0       -5.990681   -0.511568    0.015789
     22          6           0       -5.182514   -1.047290   -0.992371
     23          6           0       -3.797097   -0.861682   -0.965507
     24          6           0       -3.250846   -0.131811    0.089096
     25          6           0       -4.029459    0.414425    1.108251
     26          6           0       -5.412594    0.216296    1.061041
     27          1           0       -7.066019   -0.660617   -0.012982
     28          1           0       -5.628715   -1.612993   -1.805346
     29          1           0       -3.147983   -1.265404   -1.733020
     30          1           0       -3.555706    0.973783    1.905808
     31          1           0       -6.037769    0.633500    1.845351
     32          7           0       -1.785375    0.071311    0.128306
     33          8           0       -1.328573    0.718180    1.068268
     34          8           0       -1.121290   -0.420196   -0.781667
 ---------------------------------------------------------------------

 SCF Done:  E(RHF) =  -669.536332501     A.U. after   15 cycles
 E2 =    -0.2091671114D+01 EUMP2 =    -0.67162800361490D+03

 The electronic state is 1-A.
 Alpha  occ. eigenvalues --  -20.61006 -20.60994 -15.86011 -11.31325 -11.27881
 Alpha  occ. eigenvalues --  -11.27878 -11.27616 -11.26884 -11.26874 -11.20737
 Alpha  occ. eigenvalues --  -11.20377 -11.20337 -11.20077 -11.19984 -11.18880
 Alpha  occ. eigenvalues --   -1.60039  -1.39599  -1.19486  -1.08893  -1.07224
 Alpha  occ. eigenvalues --   -1.04880  -1.02245  -0.95740  -0.94660  -0.86281
 Alpha  occ. eigenvalues --   -0.85669  -0.82572  -0.78361  -0.77628  -0.76960
 Alpha  occ. eigenvalues --   -0.72228  -0.71346  -0.70595  -0.65142  -0.64883
 Alpha  occ. eigenvalues --   -0.63869  -0.62227  -0.59649  -0.58141  -0.56277
 Alpha  occ. eigenvalues --   -0.55384  -0.53943  -0.53213  -0.52971  -0.51389
 Alpha  occ. eigenvalues --   -0.51127  -0.49107  -0.48969  -0.48459  -0.46547
 Alpha  occ. eigenvalues --   -0.45420  -0.44994  -0.44467  -0.44372  -0.42522
 Alpha  occ. eigenvalues --   -0.37464  -0.36480
 Alpha virt. eigenvalues --    0.04896   0.11176   0.16397   0.21312   0.23976
 Alpha virt. eigenvalues --    0.25677   0.27230   0.27837   0.28181   0.28657
 Alpha virt. eigenvalues --    0.29500   0.30890   0.32366   0.32760   0.32823

 Mulliken charges:
               1
     1  C   -0.296763
     2  C   -0.299965
     3  C   -0.483011
     4  H    0.150440
     5  H    0.153298
     6  H    0.144210
     7  H    0.146036
     8  H    0.180082
     9  H    0.160704
    10  H    0.147164
    11  C   -0.297410
    12  C   -0.298686
    13  C   -0.474967
    14  H    0.146448
    15  H    0.147136
    16  H    0.151086
    17  H    0.151694
    18  H    0.153882
    19  H    0.153659
    20  H    0.157594
    21  C   -0.170523
    22  C   -0.218585
    23  C   -0.170738
    24  C    0.159112
    25  C   -0.170656
    26  C   -0.218567
    27  H    0.226086
    28  H    0.223917
    29  H    0.275842
    30  H    0.275844
    31  H    0.223910
    32  N    0.489117
    33  O   -0.459510
    34  O   -0.457881
 Sum of Mulliken charges =  -0.00000

 Dipole moment (field-independent basis, Debye):
    X=             -5.6314    Y=             -0.8303    Z=             -0.0783  Tot=              5.6928
 Quadrupole moment (field-independent basis, Debye-Ang):
   XX=            -64.4997   YY=            -94.4720   ZZ=            -90.5492
   XY=              2.7812   XZ=             -0.6276   YZ=              3.1215

 Normal termination of Gaussian 16 at Thu May  6 01:14:31 2021.
