 Gaussian 16, Revision A.03,
 Gaussian 16:  EM64L-G16RevA.03 25-Dec-2016

 -------------
 #p 6-31g* mp2
 -------------

 ------------------------------------------------------
 Input file generated by CHIRIPA (05-May-2021 14:55:23)
 ------------------------------------------------------
 Symbolic Z-matrix:
 Charge =  0 Multiplicity = 1

                         Standard orientation:
 ---------------------------------------------------------------------
 Center     Atomic      Atomic             Coordinates (Angstroms)
 Number     Number       Type             X           Y           Z
 ---------------------------------------------------------------------
      1          6           0       -1.009476    0.470244    1.551017
      2          6           0       -2.081121   -0.231195    2.113228
      3          6           0       -3.210761   -0.534887    1.347570
      4          6           0       -3.235350   -0.120011    0.016945
      5          6           0       -2.183603    0.580286   -0.571870
      6          6           0       -1.064042    0.873035    0.212621
      7          1           0       -0.135859    0.701909    2.153113
      8          1           0       -2.041499   -0.545263    3.152380
      9          1           0       -4.054475   -1.076650    1.757518
     10          1           0       -2.252119    0.880145   -1.610527
     11          1           0       -0.233264    1.417915   -0.226652
     12          7           0       -4.425915   -0.435724   -0.803592
     13          8           0       -4.423077   -0.059057   -1.973528
     14          8           0       -5.339373   -1.053868   -0.261255
     15          6           0        4.005168    0.841856   -0.214726
     16          6           0        2.713043    1.654735   -0.127387
     17          6           0        2.959659    3.163139   -0.168505
     18          1           0        4.668218    1.129120    0.612793
     19          1           0        4.532385    1.102968   -1.142765
     20          1           0        2.187735    1.391152    0.799539
     21          1           0        2.052912    1.365365   -0.955100
     22          1           0        3.462388    3.446074   -1.098995
     23          1           0        3.597977    3.472007    0.665612
     24          1           0        2.022599    3.725025   -0.104760
     25          6           0        3.775007   -0.667833   -0.174854
     26          6           0        5.067130   -1.480712   -0.262192
     27          6           0        4.820515   -2.989116   -0.221074
     28          1           0        3.247789   -0.928944    0.753186
     29          1           0        3.111956   -0.955097   -1.002373
     30          1           0        5.727262   -1.191342    0.565520
     31          1           0        5.592438   -1.217129   -1.189118
     32          1           0        4.182197   -3.297984   -1.055192
     33          1           0        4.317787   -3.272051    0.709417
     34          1           0        5.757575   -3.551001   -0.284820
 ---------------------------------------------------------------------

 SCF Done:  E(RHF) =  -669.535064664     A.U. after   15 cycles
 E2 =    -0.2091938499D+01 EUMP2 =    -0.67162700316230D+03

 The electronic state is 1-A.
 Alpha  occ. eigenvalues --  -20.60700 -20.60695 -15.85751 -11.31097 -11.27663
 Alpha  occ. eigenvalues --  -11.27639 -11.27389 -11.26686 -11.26579 -11.22919
 Alpha  occ. eigenvalues --  -11.22322 -11.22213 -11.22149 -11.22135 -11.21556
 Alpha  occ. eigenvalues --   -1.59776  -1.39330  -1.19260  -1.09332  -1.08659
 Alpha  occ. eigenvalues --   -1.04666  -1.04406  -0.96810  -0.95502  -0.87828
 Alpha  occ. eigenvalues --   -0.86065  -0.82336  -0.80552  -0.79118  -0.77374
 Alpha  occ. eigenvalues --   -0.71971  -0.71099  -0.70383  -0.65959  -0.64910
 Alpha  occ. eigenvalues --   -0.64688  -0.62057  -0.61797  -0.60184  -0.58425
 Alpha  occ. eigenvalues --   -0.56072  -0.55168  -0.53531  -0.53231  -0.52989
 Alpha  occ. eigenvalues --   -0.52755  -0.50747  -0.48854  -0.48728  -0.48660
 Alpha  occ. eigenvalues --   -0.47571  -0.46626  -0.46540  -0.44740  -0.44645
 Alpha  occ. eigenvalues --   -0.37240  -0.36258
 Alpha virt. eigenvalues --    0.05140   0.11361   0.16620   0.19597   0.22424
 Alpha virt. eigenvalues --    0.23679   0.24345   0.25761   0.26683   0.28102
 Alpha virt. eigenvalues --    0.29044   0.29714   0.30845   0.31589   0.31702

 Mulliken charges:
               1
     1  C   -0.175378
     2  C   -0.218408
     3  C   -0.171440
     4  C    0.158915
     5  C   -0.173287
     6  C   -0.223875
     7  H    0.225915
     8  H    0.222858
     9  H    0.275147
    10  H    0.275215
    11  H    0.236095
    12  N    0.488030
    13  O   -0.460714
    14  O   -0.460747
    15  C   -0.297473
    16  C   -0.307362
    17  C   -0.477444
    18  H    0.152046
    19  H    0.153716
    20  H    0.145053
    21  H    0.150140
    22  H    0.160810
    23  H    0.159219
    24  H    0.158946
    25  C   -0.298772
    26  C   -0.300437
    27  C   -0.476165
    28  H    0.146927
    29  H    0.151822
    30  H    0.152515
    31  H    0.153764
    32  H    0.157025
    33  H    0.155002
    34  H    0.162341
 Sum of Mulliken charges =  -0.00000

 Dipole moment (field-independent basis, Debye):
    X=              4.4814    Y=              1.1079    Z=              2.8302  Tot=              5.4148
 Quadrupole moment (field-independent basis, Debye-Ang):
   XX=           -120.7915   YY=            -95.6004   ZZ=            -90.7928
   XY=             -2.9369   XZ=            -11.3505   YZ=             -2.4143

 Normal termination of Gaussian 16 at Thu May  6 03:05:52 2021.
