 Gaussian 16, Revision A.03,
 Gaussian 16:  EM64L-G16RevA.03 25-Dec-2016

 -------------
 #p 6-31g* mp2
 -------------

 ------------------------------------------------------
 Input file generated by CHIRIPA (05-May-2021 14:57:23)
 ------------------------------------------------------
 Symbolic Z-matrix:
 Charge =  0 Multiplicity = 1

                         Standard orientation:
 ---------------------------------------------------------------------
 Center     Atomic      Atomic             Coordinates (Angstroms)
 Number     Number       Type             X           Y           Z
 ---------------------------------------------------------------------
      1          6           0        3.520516    2.669822   -0.029130
      2          6           0        2.435004    2.021652   -0.627512
      3          6           0        2.332148    0.627871   -0.590868
      4          6           0        3.337318   -0.089808    0.055554
      5          6           0        4.431074    0.526950    0.661026
      6          6           0        4.513336    1.921721    0.612098
      7          1           0        3.592418    3.752929   -0.062368
      8          1           0        1.662487    2.600077   -1.126197
      9          1           0        1.502576    0.100464   -1.045918
     10          1           0        5.185566   -0.076622    1.150782
     11          1           0        5.357491    2.422414    1.077668
     12          7           0        3.239329   -1.565865    0.100850
     13          8           0        4.138049   -2.175372    0.676560
     14          8           0        2.265662   -2.085344   -0.440215
     15          6           0       -4.949330    1.715412    0.523267
     16          6           0       -5.085005    0.466485    1.138324
     17          6           0       -4.206492   -0.576269    0.829410
     18          6           0       -3.199185   -0.334141   -0.103325
     19          6           0       -3.038171    0.899061   -0.733069
     20          6           0       -3.928146    1.927341   -0.408823
     21          1           0       -5.636231    2.519826    0.769194
     22          1           0       -5.877132    0.299033    1.862574
     23          1           0       -4.288728   -1.552971    1.290614
     24          1           0       -2.238673    1.035795   -1.451069
     25          1           0       -3.820390    2.896243   -0.888052
     26          7           0       -2.263076   -1.430395   -0.438474
     27          8           0       -1.383966   -1.191591   -1.263565
     28          8           0       -2.426189   -2.507688    0.130273
 ---------------------------------------------------------------------

 SCF Done:  E(RHF) =  -868.336545769     A.U. after   16 cycles
 E2 =    -0.2600024754D+01 EUMP2 =    -0.87093657052284D+03

 The electronic state is 1-A.
 Alpha  occ. eigenvalues --  -20.60753 -20.60705 -20.59887 -20.59801 -15.85786
 Alpha  occ. eigenvalues --  -15.84904 -11.31316 -11.30528 -11.27960 -11.27858
 Alpha  occ. eigenvalues --  -11.27656 -11.27194 -11.27045 -11.27021 -11.26982
 Alpha  occ. eigenvalues --  -11.26912 -11.26267 -11.26255  -1.59778  -1.58932
 Alpha  occ. eigenvalues --   -1.39338  -1.38468  -1.19497  -1.18756  -1.08854
 Alpha  occ. eigenvalues --   -1.08119  -1.04931  -1.04197  -0.95663  -0.94893
 Alpha  occ. eigenvalues --   -0.86320  -0.85584  -0.82502  -0.81717  -0.77534
 Alpha  occ. eigenvalues --   -0.76698  -0.71992  -0.71142  -0.71070  -0.70607
 Alpha  occ. eigenvalues --   -0.70274  -0.69860  -0.65151  -0.64935  -0.64404
 Alpha  occ. eigenvalues --   -0.64218  -0.62286  -0.61514  -0.55413  -0.54724
 Alpha  occ. eigenvalues --   -0.53242  -0.53029  -0.52528  -0.52292  -0.48742
 Alpha  occ. eigenvalues --   -0.48731  -0.47921  -0.47837  -0.44700  -0.43816
 Alpha  occ. eigenvalues --   -0.37476  -0.36786  -0.36542  -0.35819
 Alpha virt. eigenvalues --    0.04988   0.05826   0.11109   0.11830   0.16426
 Alpha virt. eigenvalues --    0.17240   0.20973   0.21975   0.26572   0.27484
 Alpha virt. eigenvalues --    0.28336   0.29066   0.30915   0.31425   0.32301

 Mulliken charges:
               1
     1  C   -0.171353
     2  C   -0.220177
     3  C   -0.177505
     4  C    0.156636
     5  C   -0.171014
     6  C   -0.219444
     7  H    0.221702
     8  H    0.216898
     9  H    0.293166
    10  H    0.274471
    11  H    0.220813
    12  N    0.485804
    13  O   -0.466069
    14  O   -0.446757
    15  C   -0.171194
    16  C   -0.218152
    17  C   -0.170489
    18  C    0.159879
    19  C   -0.171661
    20  C   -0.218104
    21  H    0.225548
    22  H    0.224387
    23  H    0.277697
    24  H    0.269097
    25  H    0.221241
    26  N    0.489952
    27  O   -0.462809
    28  O   -0.452565
 Sum of Mulliken charges =  -0.00000

 Dipole moment (field-independent basis, Debye):
    X=             -3.2284    Y=              8.7210    Z=              1.0187  Tot=              9.3550
 Quadrupole moment (field-independent basis, Debye-Ang):
   XX=            -78.0243   YY=           -107.7073   ZZ=           -102.9518
   XY=              7.4353   XZ=             -3.6962   YZ=             -2.7110

 Normal termination of Gaussian 16 at Thu May  6 01:49:31 2021.
