 Gaussian 16, Revision A.03,
 Gaussian 16:  EM64L-G16RevA.03 25-Dec-2016

 -------------
 #p 6-31g* mp2
 -------------

 ------------------------------------------------------
 Input file generated by CHIRIPA (05-May-2021 14:51:10)
 ------------------------------------------------------
 Symbolic Z-matrix:
 Charge =  0 Multiplicity = 1

                         Standard orientation:
 ---------------------------------------------------------------------
 Center     Atomic      Atomic             Coordinates (Angstroms)
 Number     Number       Type             X           Y           Z
 ---------------------------------------------------------------------
      1          6           0       -2.411397   -0.613188    0.025073
      2          6           0       -1.839070   -2.020026   -0.151664
      3          6           0       -0.313553   -2.054120   -0.054568
      4          1           0       -1.979164    0.049984   -0.736716
      5          1           0       -2.096162   -0.216460    1.000074
      6          1           0       -2.156439   -2.414522   -1.125454
      7          1           0       -2.272862   -2.679969    0.610513
      8          1           0        0.018683   -1.685538    0.921325
      9          1           0        0.135768   -1.418582   -0.824506
     10          1           0        0.074360   -3.069346   -0.183792
     11          6           0       -3.935294   -0.562827   -0.069427
     12          6           0       -4.507621    0.844010    0.107310
     13          6           0       -6.033138    0.878104    0.010214
     14          1           0       -4.250529   -0.959555   -1.044429
     15          1           0       -4.367527   -1.225999    0.692361
     16          1           0       -4.073829    1.503954   -0.654868
     17          1           0       -4.190253    1.238506    1.081099
     18          1           0       -6.482459    0.242566    0.780151
     19          1           0       -6.365374    0.509522   -0.965680
     20          1           0       -6.421051    1.893331    0.139437
     21          6           0        3.156182   -0.121349    0.304932
     22          6           0        4.169701   -1.060059   -0.350497
     23          6           0        4.123266   -2.475508    0.225819
     24          1           0        3.345789   -0.084835    1.386441
     25          1           0        2.146845   -0.536831    0.178403
     26          1           0        5.176691   -0.642233   -0.223974
     27          1           0        3.977780   -1.094194   -1.430599
     28          1           0        3.130764   -2.915978    0.086090
     29          1           0        4.336487   -2.461449    1.299570
     30          1           0        4.855839   -3.129792   -0.256997
     31          6           0        3.190509    1.297364   -0.260578
     32          6           0        2.176991    2.236075    0.394853
     33          6           0        2.223424    3.651524   -0.181464
     34          1           0        4.199845    1.712846   -0.134049
     35          1           0        3.000902    1.260849   -1.342086
     36          1           0        2.368912    2.270209    1.474953
     37          1           0        1.170001    1.818247    0.268328
     38          1           0        2.010204    3.637464   -1.255215
     39          1           0        3.215927    4.091993   -0.041735
     40          1           0        1.490853    4.305807    0.301352
 ---------------------------------------------------------------------

 SCF Done:  E(RHF) =  -470.732780425     A.U. after   11 cycles
 E2 =    -0.1583496951D+01 EUMP2 =    -0.47231627737580D+03

 The electronic state is 1-A.
 Alpha  occ. eigenvalues --  -11.21687 -11.21639 -11.21534 -11.21486 -11.21473
 Alpha  occ. eigenvalues --  -11.21409 -11.21287 -11.21194 -11.21144 -11.21100
 Alpha  occ. eigenvalues --  -11.21026 -11.20963  -1.08500  -1.08318  -1.03607
 Alpha  occ. eigenvalues --   -1.03435  -0.96068  -0.95880  -0.87097  -0.86895
 Alpha  occ. eigenvalues --   -0.79715  -0.79481  -0.78343  -0.78083  -0.65130
 Alpha  occ. eigenvalues --   -0.64963  -0.60998  -0.60842  -0.59432  -0.59249
 Alpha  occ. eigenvalues --   -0.57739  -0.57449  -0.55354  -0.55173  -0.52764
 Alpha  occ. eigenvalues --   -0.52629  -0.52563  -0.52223  -0.50008  -0.49819
 Alpha  occ. eigenvalues --   -0.48083  -0.47794  -0.46698  -0.46527  -0.46039
 Alpha  occ. eigenvalues --   -0.45774  -0.45654  -0.45248  -0.43846  -0.43678
 Alpha virt. eigenvalues --    0.21305   0.22938   0.23895   0.24332   0.25959
 Alpha virt. eigenvalues --    0.26543   0.27035   0.27232   0.27901   0.29940
 Alpha virt. eigenvalues --    0.30276   0.31091   0.31775   0.31950   0.32001

 Mulliken charges:
               1
     1  C   -0.298860
     2  C   -0.300219
     3  C   -0.479778
     4  H    0.149339
     5  H    0.150101
     6  H    0.152175
     7  H    0.152513
     8  H    0.158430
     9  H    0.155927
    10  H    0.161275
    11  C   -0.298311
    12  C   -0.299730
    13  C   -0.475758
    14  H    0.149663
    15  H    0.149908
    16  H    0.152014
    17  H    0.152130
    18  H    0.155258
    19  H    0.155225
    20  H    0.160434
    21  C   -0.310408
    22  C   -0.298429
    23  C   -0.478037
    24  H    0.147951
    25  H    0.164977
    26  H    0.151221
    27  H    0.150870
    28  H    0.157974
    29  H    0.154610
    30  H    0.159496
    31  C   -0.297446
    32  C   -0.300314
    33  C   -0.475515
    34  H    0.149009
    35  H    0.148438
    36  H    0.151602
    37  H    0.152381
    38  H    0.154770
    39  H    0.155106
    40  H    0.160007
 Sum of Mulliken charges =  -0.00000

 Dipole moment (field-independent basis, Debye):
    X=             -0.0917    Y=             -0.0405    Z=              0.0114  Tot=              0.1009
 Quadrupole moment (field-independent basis, Debye-Ang):
   XX=            -85.8078   YY=            -85.9126   ZZ=            -83.3670
   XY=              0.4934   XZ=              0.3407   YZ=              0.3628

 Normal termination of Gaussian 16 at Thu May  6 05:21:43 2021.
