 Gaussian 16, Revision A.03,
 Gaussian 16:  EM64L-G16RevA.03 25-Dec-2016

 -------------
 #p 6-31g* mp2
 -------------

 ------------------------------------------------------
 Input file generated by CHIRIPA (05-May-2021 14:57:22)
 ------------------------------------------------------
 Symbolic Z-matrix:
 Charge =  0 Multiplicity = 1

                         Standard orientation:
 ---------------------------------------------------------------------
 Center     Atomic      Atomic             Coordinates (Angstroms)
 Number     Number       Type             X           Y           Z
 ---------------------------------------------------------------------
      1          6           0       -1.680171   -0.313259   -0.088161
      2          6           0       -2.460495   -1.435709   -0.384338
      3          6           0       -3.855899   -1.349752   -0.386863
      4          6           0       -4.440424   -0.120155   -0.087346
      5          6           0       -3.690212    1.016066    0.211777
      6          6           0       -2.296434    0.906895    0.208428
      7          1           0       -0.596819   -0.389049   -0.088481
      8          1           0       -1.984623   -2.384585   -0.615045
      9          1           0       -4.484038   -2.202925   -0.612593
     10          1           0       -4.193308    1.948379    0.437842
     11          1           0       -1.692944    1.780260    0.438816
     12          7           0       -5.916816   -0.016868   -0.086909
     13          8           0       -6.407534    1.077868    0.180272
     14          8           0       -6.555338   -1.032604   -0.353757
     15          6           0        1.914167    1.038587    0.671894
     16          6           0        2.453003   -0.027732    1.399315
     17          6           0        3.717004   -0.535278    1.084280
     18          6           0        4.417802    0.050033    0.030912
     19          6           0        3.907953    1.113365   -0.712504
     20          6           0        2.642078    1.604733   -0.379839
     21          1           0        0.931532    1.426578    0.923469
     22          1           0        1.889957   -0.469374    2.216614
     23          1           0        4.157982   -1.359963    1.630951
     24          1           0        4.493040    1.532911   -1.521869
     25          1           0        2.226109    2.432937   -0.946490
     26          7           0        5.756935   -0.478720   -0.311933
     27          8           0        6.354232    0.054418   -1.244476
     28          8           0        6.183894   -1.416284    0.358379
 ---------------------------------------------------------------------

 SCF Done:  E(RHF) =  -868.336461046     A.U. after   16 cycles
 E2 =    -0.2600888711D+01 EUMP2 =    -0.87093734975751D+03

 The electronic state is 1-A.
 Alpha  occ. eigenvalues --  -20.61533 -20.61528 -20.61284 -20.61276 -15.86591
 Alpha  occ. eigenvalues --  -15.86343 -11.32184 -11.31835 -11.28737 -11.28722
 Alpha  occ. eigenvalues --  -11.28652 -11.28477 -11.28397 -11.28193 -11.27881
 Alpha  occ. eigenvalues --  -11.27852 -11.27603 -11.27419  -1.60603  -1.60356
 Alpha  occ. eigenvalues --   -1.40149  -1.39905  -1.20382  -1.20038  -1.09779
 Alpha  occ. eigenvalues --   -1.09414  -1.05790  -1.05468  -0.96578  -0.96211
 Alpha  occ. eigenvalues --   -0.87193  -0.86878  -0.83372  -0.83051  -0.78345
 Alpha  occ. eigenvalues --   -0.78078  -0.72805  -0.72562  -0.71928  -0.71765
 Alpha  occ. eigenvalues --   -0.71681  -0.70977  -0.66034  -0.65815  -0.65690
 Alpha  occ. eigenvalues --   -0.65488  -0.63107  -0.62820  -0.56474  -0.55942
 Alpha  occ. eigenvalues --   -0.54080  -0.53877  -0.53782  -0.53571  -0.49583
 Alpha  occ. eigenvalues --   -0.49546  -0.49330  -0.49303  -0.45503  -0.45282
 Alpha  occ. eigenvalues --   -0.38425  -0.38042  -0.37379  -0.37071
 Alpha virt. eigenvalues --    0.04104   0.04473   0.10209   0.10550   0.15397
 Alpha virt. eigenvalues --    0.15913   0.18267   0.21968   0.24539   0.26290
 Alpha virt. eigenvalues --    0.27600   0.29341   0.29394   0.30952   0.31881

 Mulliken charges:
               1
     1  C   -0.177365
     2  C   -0.219612
     3  C   -0.169503
     4  C    0.158671
     5  C   -0.169309
     6  C   -0.223739
     7  H    0.228953
     8  H    0.226738
     9  H    0.278045
    10  H    0.277007
    11  H    0.215036
    12  N    0.487967
    13  O   -0.459404
    14  O   -0.458302
    15  C   -0.181498
    16  C   -0.222466
    17  C   -0.169903
    18  C    0.160222
    19  C   -0.170026
    20  C   -0.219147
    21  H    0.224090
    22  H    0.226892
    23  H    0.278848
    24  H    0.279192
    25  H    0.226096
    26  N    0.487733
    27  O   -0.457419
    28  O   -0.457795
 Sum of Mulliken charges =  -0.00000

 Dipole moment (field-independent basis, Debye):
    X=              0.6665    Y=              1.3828    Z=              1.1379  Tot=              1.9108
 Quadrupole moment (field-independent basis, Debye-Ang):
   XX=           -191.6969   YY=            -97.8683   ZZ=           -102.8332
   XY=              9.9258   XZ=              4.5567   YZ=             -1.4460

 Normal termination of Gaussian 16 at Thu May  6 19:33:02 2021.
