 Gaussian 16, Revision A.03,
 Gaussian 16:  EM64L-G16RevA.03 25-Dec-2016

 -------------
 #p 6-31g* mp2
 -------------

 ------------------------------------------------------
 Input file generated by CHIRIPA (05-May-2021 14:51:12)
 ------------------------------------------------------
 Symbolic Z-matrix:
 Charge =  0 Multiplicity = 1

                         Standard orientation:
 ---------------------------------------------------------------------
 Center     Atomic      Atomic             Coordinates (Angstroms)
 Number     Number       Type             X           Y           Z
 ---------------------------------------------------------------------
      1          6           0        3.898887    0.980250   -0.163892
      2          6           0        2.646794    1.799203    0.151646
      3          6           0        2.827603    3.290039   -0.135595
      4          1           0        4.741388    1.368924    0.424386
      5          1           0        4.164168    1.121435   -1.220816
      6          1           0        2.383153    1.655423    1.207315
      7          1           0        1.807132    1.408412   -0.437308
      8          1           0        3.067908    3.452593   -1.191261
      9          1           0        3.647201    3.701007    0.462707
     10          1           0        1.920539    3.856602    0.097006
     11          6           0        3.733707   -0.512039    0.118093
     12          6           0        4.985801   -1.330991   -0.197445
     13          6           0        4.804992   -2.821828    0.089796
     14          1           0        3.468426   -0.653224    1.175017
     15          1           0        2.891207   -0.900713   -0.470185
     16          1           0        5.825462   -0.940200    0.391509
     17          1           0        5.249442   -1.187212   -1.253114
     18          1           0        3.985393   -3.232796   -0.508506
     19          1           0        4.564687   -2.984381    1.145462
     20          1           0        5.712055   -3.388390   -0.142805
     21          6           0       -3.143530   -0.474888   -0.246990
     22          6           0       -1.947745    0.054666    0.545255
     23          6           0       -0.608899   -0.435766   -0.006799
     24          1           0       -3.122579   -1.573276   -0.239868
     25          1           0       -3.044027   -0.167169   -1.297135
     26          1           0       -2.050180   -0.252787    1.593871
     27          1           0       -1.971652    1.151920    0.536407
     28          1           0       -0.480556   -0.116503   -1.046125
     29          1           0       -0.559530   -1.529192    0.017346
     30          1           0        0.232275   -0.045263    0.574400
     31          6           0       -4.489064    0.006677    0.292789
     32          6           0       -5.684850   -0.522877   -0.499456
     33          6           0       -7.023695   -0.032445    0.052597
     34          1           0       -4.588567   -0.301043    1.342933
     35          1           0       -4.510015    1.105065    0.285666
     36          1           0       -5.660942   -1.620132   -0.490608
     37          1           0       -5.582415   -0.215424   -1.548073
     38          1           0       -7.073065    1.060981    0.028452
     39          1           0       -7.152039   -0.351708    1.091925
     40          1           0       -7.864870   -0.422948   -0.528602
 ---------------------------------------------------------------------

 SCF Done:  E(RHF) =  -470.732640553     A.U. after   11 cycles
 E2 =    -0.1583171776D+01 EUMP2 =    -0.47231581232955D+03

 The electronic state is 1-A.
 Alpha  occ. eigenvalues --  -11.21595 -11.21576 -11.21570 -11.21522 -11.21391
 Alpha  occ. eigenvalues --  -11.21362 -11.21331 -11.21301 -11.21066 -11.21045
 Alpha  occ. eigenvalues --  -11.21043 -11.20977  -1.08425  -1.08386  -1.03536
 Alpha  occ. eigenvalues --   -1.03473  -0.95963  -0.95946  -0.87017  -0.86936
 Alpha  occ. eigenvalues --   -0.79666  -0.79498  -0.78258  -0.78174  -0.65070
 Alpha  occ. eigenvalues --   -0.65006  -0.60981  -0.60837  -0.59498  -0.59170
 Alpha  occ. eigenvalues --   -0.57604  -0.57524  -0.55277  -0.55211  -0.52824
 Alpha  occ. eigenvalues --   -0.52537  -0.52424  -0.52312  -0.49972  -0.49836
 Alpha  occ. eigenvalues --   -0.48001  -0.47759  -0.46699  -0.46504  -0.45795
 Alpha  occ. eigenvalues --   -0.45747  -0.45708  -0.45622  -0.43777  -0.43622
 Alpha virt. eigenvalues --    0.22132   0.23032   0.23823   0.24671   0.25927
 Alpha virt. eigenvalues --    0.26221   0.26682   0.27580   0.27895   0.29267
 Alpha virt. eigenvalues --    0.30560   0.31226   0.31733   0.31861   0.32103

 Mulliken charges:
               1
     1  C   -0.297543
     2  C   -0.306311
     3  C   -0.475157
     4  H    0.149203
     5  H    0.149179
     6  H    0.150483
     7  H    0.160609
     8  H    0.154917
     9  H    0.154888
    10  H    0.159811
    11  C   -0.300983
    12  C   -0.299578
    13  C   -0.475649
    14  H    0.148873
    15  H    0.153460
    16  H    0.151783
    17  H    0.151824
    18  H    0.155344
    19  H    0.155059
    20  H    0.160068
    21  C   -0.298413
    22  C   -0.300035
    23  C   -0.481944
    24  H    0.149616
    25  H    0.149306
    26  H    0.151794
    27  H    0.151812
    28  H    0.153114
    29  H    0.154451
    30  H    0.170151
    31  C   -0.298222
    32  C   -0.299609
    33  C   -0.475689
    34  H    0.149495
    35  H    0.149574
    36  H    0.151920
    37  H    0.151855
    38  H    0.155156
    39  H    0.155174
    40  H    0.160215
 Sum of Mulliken charges =  -0.00000

 Dipole moment (field-independent basis, Debye):
    X=              0.0038    Y=             -0.0065    Z=             -0.0028  Tot=              0.0080
 Quadrupole moment (field-independent basis, Debye-Ang):
   XX=            -85.9707   YY=            -85.4667   ZZ=            -83.5918
   XY=              0.3391   XZ=              0.5364   YZ=             -0.2935

 Normal termination of Gaussian 16 at Thu May  6 03:56:03 2021.
