 Gaussian 16, Revision A.03,
 Gaussian 16:  EM64L-G16RevA.03 25-Dec-2016

 -------------
 #p 6-31g* mp2
 -------------

 ------------------------------------------------------
 Input file generated by CHIRIPA (05-May-2021 14:51:11)
 ------------------------------------------------------
 Symbolic Z-matrix:
 Charge =  0 Multiplicity = 1

                         Standard orientation:
 ---------------------------------------------------------------------
 Center     Atomic      Atomic             Coordinates (Angstroms)
 Number     Number       Type             X           Y           Z
 ---------------------------------------------------------------------
      1          6           0       -2.924433    0.403228   -0.953703
      2          6           0       -2.413104    1.782202   -0.535424
      3          6           0       -1.714049    2.524142   -1.675003
      4          1           0       -2.081258   -0.197433   -1.321410
      5          1           0       -3.618307    0.517743   -1.797990
      6          1           0       -1.721468    1.665243    0.308718
      7          1           0       -3.257563    2.379584   -0.168490
      8          1           0       -2.398651    2.670117   -2.516795
      9          1           0       -0.853827    1.951718   -2.036875
     10          1           0       -1.356457    3.507497   -1.354067
     11          6           0       -3.625658   -0.350795    0.174774
     12          6           0       -4.136987   -1.729770   -0.243506
     13          6           0       -4.836041   -2.471709    0.896074
     14          1           0       -2.931784   -0.465310    1.019061
     15          1           0       -4.468832    0.249865    0.542481
     16          1           0       -3.292527   -2.327151   -0.610439
     17          1           0       -4.828623   -1.612811   -1.087648
     18          1           0       -5.696263   -1.899286    1.257945
     19          1           0       -4.151440   -2.617685    1.737865
     20          1           0       -5.193634   -3.455064    0.575137
     21          6           0        3.939645   -0.400773    0.351422
     22          6           0        4.247142   -0.950188   -1.041981
     23          6           0        5.580008   -1.696946   -1.102098
     24          1           0        4.752067    0.270683    0.661362
     25          1           0        3.928613   -1.231038    1.071099
     26          1           0        4.256223   -0.119313   -1.759046
     27          1           0        3.433799   -1.620264   -1.348719
     28          1           0        5.578442   -2.544318   -0.408874
     29          1           0        6.405538   -1.034839   -0.821531
     30          1           0        5.779903   -2.081246   -2.107192
     31          6           0        2.610446    0.348341    0.427507
     32          6           0        2.302949    0.897755    1.820911
     33          6           0        0.970082    1.644513    1.881027
     34          1           0        2.621477    1.178605   -0.292169
     35          1           0        1.798024   -0.323116    0.117568
     36          1           0        3.116291    1.567832    2.127649
     37          1           0        2.293869    0.066881    2.537975
     38          1           0        0.144553    0.982406    1.600461
     39          1           0        0.971650    2.491886    1.187804
     40          1           0        0.770188    2.028813    2.886122
 ---------------------------------------------------------------------

 SCF Done:  E(RHF) =  -470.733165603     A.U. after   11 cycles
 E2 =    -0.1582905505D+01 EUMP2 =    -0.47231607110756D+03

 The electronic state is 1-A.
 Alpha  occ. eigenvalues --  -11.21660 -11.21636 -11.21595 -11.21463 -11.21456
 Alpha  occ. eigenvalues --  -11.21395 -11.21379 -11.21309 -11.21136 -11.21097
 Alpha  occ. eigenvalues --  -11.21068 -11.21001  -1.08481  -1.08390  -1.03587
 Alpha  occ. eigenvalues --   -1.03475  -0.96037  -0.95936  -0.87058  -0.86951
 Alpha  occ. eigenvalues --   -0.79688  -0.79510  -0.78304  -0.78189  -0.65131
 Alpha  occ. eigenvalues --   -0.65014  -0.61017  -0.60864  -0.59397  -0.59309
 Alpha  occ. eigenvalues --   -0.57673  -0.57513  -0.55325  -0.55231  -0.52726
 Alpha  occ. eigenvalues --   -0.52641  -0.52471  -0.52357  -0.50031  -0.49841
 Alpha  occ. eigenvalues --   -0.48099  -0.47774  -0.46746  -0.46492  -0.45919
 Alpha  occ. eigenvalues --   -0.45762  -0.45718  -0.45489  -0.43834  -0.43741
 Alpha virt. eigenvalues --    0.21018   0.23100   0.23760   0.25051   0.25455
 Alpha virt. eigenvalues --    0.26549   0.26835   0.27801   0.27897   0.29195
 Alpha virt. eigenvalues --    0.30970   0.31260   0.31669   0.31911   0.32141

 Mulliken charges:
               1
     1  C   -0.298063
     2  C   -0.307771
     3  C   -0.475413
     4  H    0.148928
     5  H    0.149351
     6  H    0.161877
     7  H    0.151285
     8  H    0.154695
     9  H    0.155281
    10  H    0.159608
    11  C   -0.298477
    12  C   -0.299553
    13  C   -0.475668
    14  H    0.148616
    15  H    0.149937
    16  H    0.151609
    17  H    0.152092
    18  H    0.155270
    19  H    0.155008
    20  H    0.160189
    21  C   -0.298299
    22  C   -0.299705
    23  C   -0.475740
    24  H    0.149886
    25  H    0.149585
    26  H    0.152101
    27  H    0.151798
    28  H    0.155213
    29  H    0.155281
    30  H    0.160395
    31  C   -0.298367
    32  C   -0.299810
    33  C   -0.479630
    34  H    0.150009
    35  H    0.148825
    36  H    0.152310
    37  H    0.151966
    38  H    0.157606
    39  H    0.156886
    40  H    0.160887
 Sum of Mulliken charges =  -0.00000

 Dipole moment (field-independent basis, Debye):
    X=              0.0401    Y=              0.0146    Z=              0.0258  Tot=              0.0499
 Quadrupole moment (field-independent basis, Debye-Ang):
   XX=            -84.9123   YY=            -84.6168   ZZ=            -85.2390
   XY=              0.2602   XZ=              0.6820   YZ=              0.0965

 Normal termination of Gaussian 16 at Wed May  5 15:16:07 2021.
