 Gaussian 16, Revision A.03,
 Gaussian 16:  EM64L-G16RevA.03 25-Dec-2016

 -------------
 #p 6-31g* mp2
 -------------

 ------------------------------------------------------
 Input file generated by CHIRIPA (05-May-2021 14:55:23)
 ------------------------------------------------------
 Symbolic Z-matrix:
 Charge =  0 Multiplicity = 1

                         Standard orientation:
 ---------------------------------------------------------------------
 Center     Atomic      Atomic             Coordinates (Angstroms)
 Number     Number       Type             X           Y           Z
 ---------------------------------------------------------------------
      1          6           0        5.755834   -0.066661    0.267767
      2          6           0        4.918630    0.870447    0.882127
      3          6           0        3.529703    0.771213    0.757297
      4          6           0        3.009586   -0.282522    0.007355
      5          6           0        3.817435   -1.231875   -0.616663
      6          6           0        5.203539   -1.112987   -0.478352
      7          1           0        6.833690    0.018060    0.369975
      8          1           0        5.344762    1.684078    1.462180
      9          1           0        2.858379    1.482846    1.222399
     10          1           0        3.363263   -2.031975   -1.188491
     11          1           0        5.851292   -1.842208   -0.956574
     12          7           0        1.540686   -0.397980   -0.131934
     13          8           0        1.107269   -1.335581   -0.798035
     14          8           0        0.850592    0.451311    0.427631
     15          6           0       -4.298436   -0.407705    0.060551
     16          6           0       -5.770066   -0.724411    0.328855
     17          6           0       -6.026827   -2.218801    0.525486
     18          1           0       -3.968055   -0.958368   -0.830832
     19          1           0       -3.692198   -0.777642    0.899013
     20          1           0       -6.373493   -0.352756   -0.509217
     21          1           0       -6.097033   -0.172780    1.219591
     22          1           0       -5.449660   -2.600490    1.373892
     23          1           0       -5.727690   -2.781488   -0.364739
     24          1           0       -7.085140   -2.422662    0.715948
     25          6           0       -4.025862    1.082246   -0.138147
     26          6           0       -2.554232    1.398952   -0.406451
     27          6           0       -2.297470    2.893343   -0.603083
     28          1           0       -4.632099    1.452183   -0.976608
     29          1           0       -4.356242    1.632909    0.753236
     30          1           0       -2.227264    0.847321   -1.297188
     31          1           0       -1.950805    1.027297    0.431621
     32          1           0       -2.596607    3.456029    0.287143
     33          1           0       -2.874637    3.275030   -1.451489
     34          1           0       -1.239157    3.097204   -0.793544
 ---------------------------------------------------------------------

 SCF Done:  E(RHF) =  -669.536003078     A.U. after   15 cycles
 E2 =    -0.2091147783D+01 EUMP2 =    -0.67162715086140D+03

 The electronic state is 1-A.
 Alpha  occ. eigenvalues --  -20.60964 -20.60955 -15.85993 -11.31312 -11.27874
 Alpha  occ. eigenvalues --  -11.27871 -11.27611 -11.26881 -11.26871 -11.20648
 Alpha  occ. eigenvalues --  -11.20252 -11.20154 -11.20031 -11.19748 -11.19681
 Alpha  occ. eigenvalues --   -1.60019  -1.39576  -1.19479  -1.08884  -1.07145
 Alpha  occ. eigenvalues --   -1.04875  -1.02257  -0.95726  -0.94778  -0.86276
 Alpha  occ. eigenvalues --   -0.85807  -0.82562  -0.78330  -0.77613  -0.76873
 Alpha  occ. eigenvalues --   -0.72210  -0.71333  -0.70588  -0.65136  -0.64878
 Alpha  occ. eigenvalues --   -0.63790  -0.62222  -0.59665  -0.58153  -0.56341
 Alpha  occ. eigenvalues --   -0.55377  -0.54100  -0.53207  -0.52967  -0.51500
 Alpha  occ. eigenvalues --   -0.51191  -0.49041  -0.48964  -0.48735  -0.46608
 Alpha  occ. eigenvalues --   -0.45356  -0.44988  -0.44430  -0.44279  -0.42520
 Alpha  occ. eigenvalues --   -0.37459  -0.36476
 Alpha virt. eigenvalues --    0.04910   0.11179   0.16407   0.21311   0.24055
 Alpha virt. eigenvalues --    0.25491   0.27232   0.27912   0.28173   0.28859
 Alpha virt. eigenvalues --    0.29143   0.30884   0.32360   0.32586   0.32988

 Mulliken charges:
               1
     1  C   -0.170581
     2  C   -0.218530
     3  C   -0.170919
     4  C    0.157683
     5  C   -0.170575
     6  C   -0.218585
     7  H    0.226054
     8  H    0.223897
     9  H    0.275736
    10  H    0.275893
    11  H    0.223873
    12  N    0.490203
    13  O   -0.458857
    14  O   -0.460926
    15  C   -0.297077
    16  C   -0.298678
    17  C   -0.474835
    18  H    0.151467
    19  H    0.152000
    20  H    0.149323
    21  H    0.149232
    22  H    0.154712
    23  H    0.154921
    24  H    0.156532
    25  C   -0.298758
    26  C   -0.300704
    27  C   -0.475550
    28  H    0.143449
    29  H    0.144211
    30  H    0.153941
    31  H    0.173958
    32  H    0.148684
    33  H    0.147769
    34  H    0.161037
 Sum of Mulliken charges =  -0.00000

 Dipole moment (field-independent basis, Debye):
    X=              5.5858    Y=              0.2781    Z=              0.5243  Tot=              5.6173
 Quadrupole moment (field-independent basis, Debye-Ang):
   XX=            -65.8958   YY=            -93.6794   ZZ=            -92.8911
   XY=             -0.7770   XZ=              1.3399   YZ=              3.0830

 Normal termination of Gaussian 16 at Thu May  6 14:17:04 2021.
