 Gaussian 16, Revision A.03,
 Gaussian 16:  EM64L-G16RevA.03 25-Dec-2016

 -------------
 #p 6-31g* mp2
 -------------

 ------------------------------------------------------
 Input file generated by CHIRIPA (05-May-2021 14:55:21)
 ------------------------------------------------------
 Symbolic Z-matrix:
 Charge =  0 Multiplicity = 1

                         Standard orientation:
 ---------------------------------------------------------------------
 Center     Atomic      Atomic             Coordinates (Angstroms)
 Number     Number       Type             X           Y           Z
 ---------------------------------------------------------------------
      1          6           0       -5.126506    2.065252    0.296594
      2          6           0       -5.493017    0.803835    0.777237
      3          6           0       -4.662862   -0.302411    0.573252
      4          6           0       -3.467999   -0.110347   -0.118632
      5          6           0       -3.075117    1.133741   -0.609731
      6          6           0       -3.920851    2.225896   -0.394138
      7          1           0       -5.777441    2.919137    0.459563
      8          1           0       -6.428756    0.676117    1.314011
      9          1           0       -4.922146   -1.290157    0.934566
     10          1           0       -2.136127    1.229861   -1.141217
     11          1           0       -3.633650    3.204354   -0.768543
     12          7           0       -2.580905   -1.274022   -0.340726
     13          8           0       -1.533463   -1.078476   -0.953313
     14          8           0       -2.949841   -2.359622    0.101989
     15          6           0        4.022380   -0.402872   -0.255112
     16          6           0        3.089406   -1.184005    0.670833
     17          6           0        1.886158   -1.775349   -0.064218
     18          1           0        3.455664    0.402944   -0.741361
     19          1           0        4.371949   -1.067308   -1.057434
     20          1           0        2.742793   -0.518665    1.471958
     21          1           0        3.658453   -1.987936    1.155082
     22          1           0        2.214810   -2.460713   -0.852168
     23          1           0        1.293948   -0.983093   -0.533493
     24          1           0        1.232493   -2.329540    0.616556
     25          6           0        5.229980    0.194386    0.465104
     26          6           0        6.162955    0.975518   -0.460841
     27          6           0        7.366202    1.566863    0.274210
     28          1           0        4.880410    0.858821    1.267427
     29          1           0        5.796696   -0.611431    0.951355
     30          1           0        5.593908    1.779449   -0.945089
     31          1           0        6.509567    0.310178   -1.261964
     32          1           0        7.958412    0.774606    0.743485
     33          1           0        7.037550    2.252226    1.062162
     34          1           0        8.019867    2.121053   -0.406564
 ---------------------------------------------------------------------

 SCF Done:  E(RHF) =  -669.535651794     A.U. after   15 cycles
 E2 =    -0.2090843831D+01 EUMP2 =    -0.67162649562491D+03

 The electronic state is 1-A.
 Alpha  occ. eigenvalues --  -20.60871 -20.60857 -15.85904 -11.31261 -11.27832
 Alpha  occ. eigenvalues --  -11.27825 -11.27571 -11.26845 -11.26835 -11.21191
 Alpha  occ. eigenvalues --  -11.20845 -11.20751 -11.20661 -11.20583 -11.19510
 Alpha  occ. eigenvalues --   -1.59929  -1.39485  -1.19433  -1.08830  -1.07762
 Alpha  occ. eigenvalues --   -1.04835  -1.02758  -0.95670  -0.95165  -0.86238
 Alpha  occ. eigenvalues --   -0.86167  -0.82501  -0.78845  -0.77575  -0.77517
 Alpha  occ. eigenvalues --   -0.72127  -0.71248  -0.70543  -0.65089  -0.64839
 Alpha  occ. eigenvalues --   -0.64406  -0.62184  -0.60162  -0.58609  -0.56778
 Alpha  occ. eigenvalues --   -0.55338  -0.54460  -0.53165  -0.52928  -0.51826
 Alpha  occ. eigenvalues --   -0.51588  -0.49172  -0.48881  -0.48822  -0.47137
 Alpha  occ. eigenvalues --   -0.45926  -0.45111  -0.45041  -0.44762  -0.42998
 Alpha  occ. eigenvalues --   -0.37413  -0.36439
 Alpha virt. eigenvalues --    0.04969   0.11216   0.16447   0.21327   0.23467
 Alpha virt. eigenvalues --    0.25114   0.27191   0.27307   0.28002   0.28183
 Alpha virt. eigenvalues --    0.28997   0.30867   0.32041   0.32334   0.32614

 Mulliken charges:
               1
     1  C   -0.170737
     2  C   -0.218525
     3  C   -0.170807
     4  C    0.158084
     5  C   -0.170755
     6  C   -0.218496
     7  H    0.225852
     8  H    0.223708
     9  H    0.275828
    10  H    0.275129
    11  H    0.223634
    12  N    0.490674
    13  O   -0.461027
    14  O   -0.459707
    15  C   -0.296909
    16  C   -0.301215
    17  C   -0.473506
    18  H    0.147201
    19  H    0.149101
    20  H    0.146901
    21  H    0.148148
    22  H    0.151404
    23  H    0.167445
    24  H    0.163983
    25  C   -0.297352
    26  C   -0.298928
    27  C   -0.475240
    28  H    0.147388
    29  H    0.148987
    30  H    0.150279
    31  H    0.151811
    32  H    0.154963
    33  H    0.153964
    34  H    0.158719
 Sum of Mulliken charges =  -0.00000

 Dipole moment (field-independent basis, Debye):
    X=             -3.4158    Y=              4.0487    Z=              0.7284  Tot=              5.3470
 Quadrupole moment (field-independent basis, Debye-Ang):
   XX=            -73.0053   YY=            -93.8420   ZZ=            -94.7028
   XY=            -12.9468   XZ=             -4.9040   YZ=             -2.2124

 Normal termination of Gaussian 16 at Thu May  6 07:47:12 2021.
