 Gaussian 16, Revision A.03,
 Gaussian 16:  EM64L-G16RevA.03 25-Dec-2016

 -------------
 #p 6-31g* mp2
 -------------

 ------------------------------------------------------
 Input file generated by CHIRIPA (05-May-2021 14:57:24)
 ------------------------------------------------------
 Symbolic Z-matrix:
 Charge =  0 Multiplicity = 1

                         Standard orientation:
 ---------------------------------------------------------------------
 Center     Atomic      Atomic             Coordinates (Angstroms)
 Number     Number       Type             X           Y           Z
 ---------------------------------------------------------------------
      1          6           0        4.852227    1.408531    1.340288
      2          6           0        3.656236    1.890980    0.798652
      3          6           0        2.845629    1.062449    0.016987
      4          6           0        3.263400   -0.249032   -0.203864
      5          6           0        4.449459   -0.758988    0.321969
      6          6           0        5.244330    0.087416    1.100641
      7          1           0        5.475814    2.059096    1.946341
      8          1           0        3.349217    2.916534    0.983108
      9          1           0        1.914848    1.410110   -0.414518
     10          1           0        4.729091   -1.785968    0.120634
     11          1           0        6.172639   -0.289969    1.520005
     12          7           0        2.413576   -1.135621   -1.029793
     13          8           0        2.803939   -2.287105   -1.209623
     14          8           0        1.373213   -0.662258   -1.481687
     15          6           0       -3.806305   -2.143492    1.143527
     16          6           0       -2.790449   -1.994349    0.193626
     17          6           0       -2.558280   -0.754349   -0.408906
     18          6           0       -3.364516    0.320085   -0.036262
     19          6           0       -4.384382    0.203242    0.906876
     20          6           0       -4.598634   -1.046154    1.496499
     21          1           0       -3.979701   -3.110402    1.606574
     22          1           0       -2.173561   -2.844811   -0.082435
     23          1           0       -1.778669   -0.610873   -1.147174
     24          1           0       -4.982934    1.069413    1.161631
     25          1           0       -5.388278   -1.159043    2.233902
     26          7           0       -3.128214    1.637791   -0.667302
     27          8           0       -3.852349    2.568843   -0.321748
     28          8           0       -2.223340    1.714606   -1.495516
 ---------------------------------------------------------------------

 SCF Done:  E(RHF) =  -868.339886568     A.U. after   16 cycles
 E2 =    -0.2598422616D+01 EUMP2 =    -0.87093830918458D+03

 The electronic state is 1-A.
 Alpha  occ. eigenvalues --  -20.61029 -20.61021 -20.60265 -20.60247 -15.86062
 Alpha  occ. eigenvalues --  -15.85304 -11.31212 -11.30516 -11.27797 -11.27693
 Alpha  occ. eigenvalues --  -11.27491 -11.27168 -11.26913 -11.26867 -11.26768
 Alpha  occ. eigenvalues --  -11.26694 -11.26164 -11.25988  -1.60099  -1.59344
 Alpha  occ. eigenvalues --   -1.39653  -1.38894  -1.19374  -1.18701  -1.08816
 Alpha  occ. eigenvalues --   -1.08141  -1.04738  -1.04060  -0.95680  -0.94984
 Alpha  occ. eigenvalues --   -0.86149  -0.85475  -0.82512  -0.81804  -0.77576
 Alpha  occ. eigenvalues --   -0.76851  -0.72291  -0.71525  -0.71409  -0.70671
 Alpha  occ. eigenvalues --   -0.70478  -0.69803  -0.65028  -0.64738  -0.64348
 Alpha  occ. eigenvalues --   -0.64056  -0.62074  -0.61370  -0.55263  -0.54612
 Alpha  occ. eigenvalues --   -0.53093  -0.52821  -0.52440  -0.52131  -0.49044
 Alpha  occ. eigenvalues --   -0.49037  -0.48292  -0.48266  -0.45104  -0.44335
 Alpha  occ. eigenvalues --   -0.37360  -0.36725  -0.36335  -0.35668
 Alpha virt. eigenvalues --    0.04909   0.05637   0.11319   0.11974   0.16427
 Alpha virt. eigenvalues --    0.17137   0.21460   0.22178   0.27435   0.27965
 Alpha virt. eigenvalues --    0.28358   0.29142   0.31029   0.31664   0.32481

 Mulliken charges:
               1
     1  C   -0.170306
     2  C   -0.219296
     3  C   -0.172369
     4  C    0.156491
     5  C   -0.171256
     6  C   -0.219014
     7  H    0.226106
     8  H    0.226742
     9  H    0.283921
    10  H    0.274309
    11  H    0.223048
    12  N    0.490120
    13  O   -0.461947
    14  O   -0.464644
    15  C   -0.171183
    16  C   -0.222251
    17  C   -0.176438
    18  C    0.155123
    19  C   -0.172093
    20  C   -0.219798
    21  H    0.223592
    22  H    0.229418
    23  H    0.295353
    24  H    0.272508
    25  H    0.220317
    26  N    0.487016
    27  O   -0.464957
    28  O   -0.458512
 Sum of Mulliken charges =  -0.00000

 Dipole moment (field-independent basis, Debye):
    X=              2.4196    Y=             -1.5141    Z=              5.0338  Tot=              5.7867
 Quadrupole moment (field-independent basis, Debye-Ang):
   XX=            -76.4707   YY=           -106.6571   ZZ=           -106.0669
   XY=             21.1473   XZ=              0.1105   YZ=              0.3201

 Normal termination of Gaussian 16 at Thu May  6 01:53:49 2021.
