 Gaussian 16, Revision A.03,
 Gaussian 16:  EM64L-G16RevA.03 25-Dec-2016

 -------------
 #p 6-31g* mp2
 -------------

 ------------------------------------------------------
 Input file generated by CHIRIPA (05-May-2021 14:51:13)
 ------------------------------------------------------
 Symbolic Z-matrix:
 Charge =  0 Multiplicity = 1

                         Standard orientation:
 ---------------------------------------------------------------------
 Center     Atomic      Atomic             Coordinates (Angstroms)
 Number     Number       Type             X           Y           Z
 ---------------------------------------------------------------------
      1          6           0        3.201463   -0.728224    0.449988
      2          6           0        1.757787   -0.546721   -0.019949
      3          6           0        0.773235   -1.438955    0.736602
      4          1           0        3.490386   -1.781136    0.328145
      5          1           0        3.259747   -0.510548    1.525448
      6          1           0        1.702507   -0.763333   -1.094491
      7          1           0        1.472331    0.505919    0.102847
      8          1           0        0.798925   -1.218435    1.808662
      9          1           0        1.030410   -2.494898    0.604521
     10          1           0       -0.252809   -1.293087    0.384727
     11          6           0        4.197534    0.157024   -0.296945
     12          6           0        5.641210   -0.024479    0.172993
     13          6           0        6.625762    0.867754   -0.583559
     14          1           0        4.139250   -0.060652   -1.372405
     15          1           0        3.908610    1.209935   -0.175102
     16          1           0        5.926666   -1.077120    0.050196
     17          1           0        5.696490    0.192132    1.247534
     18          1           0        6.368587    1.923698   -0.451478
     19          1           0        6.600071    0.647234   -1.655619
     20          1           0        7.651806    0.721887   -0.231684
     21          6           0       -3.799329    0.994962   -0.341611
     22          6           0       -3.177179    2.069095    0.551223
     23          6           0       -3.385250    3.482961    0.007640
     24          1           0       -3.367446    1.069259   -1.349035
     25          1           0       -4.874870    1.193610   -0.447184
     26          1           0       -2.103385    1.867690    0.656205
     27          1           0       -3.610452    1.992107    1.556689
     28          1           0       -4.452930    3.708485   -0.080673
     29          1           0       -2.937301    3.583360   -0.986274
     30          1           0       -2.932577    4.235051    0.661327
     31          6           0       -3.599668   -0.423761    0.188568
     32          6           0       -4.221819   -1.497894   -0.704265
     33          6           0       -4.013746   -2.911760   -0.160683
     34          1           0       -2.524127   -0.622410    0.294141
     35          1           0       -4.031550   -0.498058    1.195991
     36          1           0       -3.788544   -1.420907   -1.709733
     37          1           0       -5.295611   -1.296489   -0.809249
     38          1           0       -4.461696   -3.012160    0.833230
     39          1           0       -2.946066   -3.137284   -0.072370
     40          1           0       -4.466419   -3.663852   -0.814370
 ---------------------------------------------------------------------

 SCF Done:  E(RHF) =  -470.733368514     A.U. after   11 cycles
 E2 =    -0.1582685062D+01 EUMP2 =    -0.47231605357571D+03

 The electronic state is 1-A.
 Alpha  occ. eigenvalues --  -11.21661 -11.21623 -11.21598 -11.21590 -11.21439
 Alpha  occ. eigenvalues --  -11.21394 -11.21379 -11.21333 -11.21124 -11.21088
 Alpha  occ. eigenvalues --  -11.21070 -11.21047  -1.08467  -1.08423  -1.03570
 Alpha  occ. eigenvalues --   -1.03519  -0.96023  -0.95965  -0.87044  -0.86978
 Alpha  occ. eigenvalues --   -0.79642  -0.79571  -0.78278  -0.78238  -0.65099
 Alpha  occ. eigenvalues --   -0.65069  -0.60966  -0.60921  -0.59427  -0.59311
 Alpha  occ. eigenvalues --   -0.57668  -0.57549  -0.55308  -0.55251  -0.52768
 Alpha  occ. eigenvalues --   -0.52655  -0.52472  -0.52348  -0.49962  -0.49900
 Alpha  occ. eigenvalues --   -0.47991  -0.47872  -0.46664  -0.46611  -0.45823
 Alpha  occ. eigenvalues --   -0.45773  -0.45744  -0.45698  -0.43790  -0.43751
 Alpha virt. eigenvalues --    0.20768   0.23045   0.23902   0.24397   0.26040
 Alpha virt. eigenvalues --    0.26612   0.27177   0.27449   0.27992   0.29031
 Alpha virt. eigenvalues --    0.30388   0.31440   0.31738   0.31897   0.32097

 Mulliken charges:
               1
     1  C   -0.298594
     2  C   -0.299042
     3  C   -0.484503
     4  H    0.149849
     5  H    0.149759
     6  H    0.151811
     7  H    0.151718
     8  H    0.156046
     9  H    0.155626
    10  H    0.167089
    11  C   -0.298280
    12  C   -0.299686
    13  C   -0.475731
    14  H    0.149531
    15  H    0.149709
    16  H    0.152001
    17  H    0.152016
    18  H    0.155225
    19  H    0.155197
    20  H    0.160344
    21  C   -0.297586
    22  C   -0.299862
    23  C   -0.475727
    24  H    0.149499
    25  H    0.149590
    26  H    0.151906
    27  H    0.152012
    28  H    0.155223
    29  H    0.155232
    30  H    0.160126
    31  C   -0.308210
    32  C   -0.299032
    33  C   -0.476608
    34  H    0.158305
    35  H    0.149935
    36  H    0.151609
    37  H    0.151969
    38  H    0.155280
    39  H    0.156111
    40  H    0.160143
 Sum of Mulliken charges =  -0.00000

 Dipole moment (field-independent basis, Debye):
    X=              0.0151    Y=             -0.0052    Z=              0.0090  Tot=              0.0184
 Quadrupole moment (field-independent basis, Debye-Ang):
   XX=            -84.6735   YY=            -85.7473   ZZ=            -84.2941
   XY=             -0.5807   XZ=             -0.2156   YZ=              1.1088

 Normal termination of Gaussian 16 at Wed May  5 16:51:46 2021.
