 Gaussian 16, Revision A.03,
 Gaussian 16:  EM64L-G16RevA.03 25-Dec-2016

 -------------
 #p 6-31g* mp2
 -------------

 ------------------------------------------------------
 Input file generated by CHIRIPA (05-May-2021 14:57:22)
 ------------------------------------------------------
 Symbolic Z-matrix:
 Charge =  0 Multiplicity = 1

                         Standard orientation:
 ---------------------------------------------------------------------
 Center     Atomic      Atomic             Coordinates (Angstroms)
 Number     Number       Type             X           Y           Z
 ---------------------------------------------------------------------
      1          6           0       -6.038520    0.259105   -0.273831
      2          6           0       -5.227776   -0.026226   -1.377372
      3          6           0       -3.867880   -0.302205   -1.206883
      4          6           0       -3.349496   -0.284227    0.087043
      5          6           0       -4.131406   -0.003518    1.206466
      6          6           0       -5.488717    0.269531    1.012298
      7          1           0       -7.093916    0.472354   -0.415468
      8          1           0       -5.652042   -0.035025   -2.377355
      9          1           0       -3.217417   -0.526252   -2.043614
     10          1           0       -3.679827   -0.002145    2.191094
     11          1           0       -6.115960    0.490793    1.871166
     12          7           0       -1.911204   -0.574842    0.280065
     13          8           0       -1.478696   -0.552758    1.430320
     14          8           0       -1.243612   -0.819208   -0.722554
     15          6           0        5.237360   -1.670532    0.012663
     16          6           0        3.866152   -1.934327   -0.069326
     17          6           0        2.942411   -0.885620   -0.107571
     18          6           0        3.426949    0.420678   -0.061794
     19          6           0        4.786923    0.715760    0.019987
     20          6           0        5.692567   -0.348661    0.056980
     21          1           0        5.947914   -2.491296    0.041886
     22          1           0        3.509765   -2.959919   -0.103893
     23          1           0        1.875401   -1.061381   -0.170962
     24          1           0        5.111971    1.748562    0.052864
     25          1           0        6.756892   -0.140810    0.120663
     26          7           0        2.458606    1.539216   -0.101619
     27          8           0        2.910996    2.681251   -0.059955
     28          8           0        1.265563    1.252710   -0.173745
 ---------------------------------------------------------------------

 SCF Done:  E(RHF) =  -868.338786140     A.U. after   16 cycles
 E2 =    -0.2600325150D+01 EUMP2 =    -0.87093911128906D+03

 The electronic state is 1-A.
 Alpha  occ. eigenvalues --  -20.60394 -20.60339 -20.59496 -20.59396 -15.85374
 Alpha  occ. eigenvalues --  -15.84498 -11.30798 -11.29945 -11.27371 -11.27368
 Alpha  occ. eigenvalues --  -11.27142 -11.26655 -11.26425 -11.26411 -11.26402
 Alpha  occ. eigenvalues --  -11.26355 -11.25696 -11.25564  -1.59377  -1.58538
 Alpha  occ. eigenvalues --   -1.38943  -1.38073  -1.18971  -1.18166  -1.08360
 Alpha  occ. eigenvalues --   -1.07571  -1.04388  -1.03573  -0.95191  -0.94370
 Alpha  occ. eigenvalues --   -0.85785  -0.84971  -0.82031  -0.81191  -0.77060
 Alpha  occ. eigenvalues --   -0.76192  -0.71619  -0.70895  -0.70478  -0.70093
 Alpha  occ. eigenvalues --   -0.69867  -0.69277  -0.64634  -0.64402  -0.63817
 Alpha  occ. eigenvalues --   -0.63593  -0.61738  -0.60879  -0.54901  -0.54130
 Alpha  occ. eigenvalues --   -0.52705  -0.52489  -0.51929  -0.51664  -0.48426
 Alpha  occ. eigenvalues --   -0.48348  -0.47531  -0.47376  -0.44334  -0.43441
 Alpha  occ. eigenvalues --   -0.36954  -0.36208  -0.35990  -0.35188
 Alpha virt. eigenvalues --    0.05499   0.06316   0.11665   0.12460   0.16973
 Alpha virt. eigenvalues --    0.17752   0.21744   0.22557   0.27657   0.28428
 Alpha virt. eigenvalues --    0.28652   0.29570   0.31283   0.32050   0.32890

 Mulliken charges:
               1
     1  C   -0.170959
     2  C   -0.218586
     3  C   -0.169752
     4  C    0.160635
     5  C   -0.170148
     6  C   -0.218605
     7  H    0.224356
     8  H    0.222325
     9  H    0.275305
    10  H    0.275474
    11  H    0.222410
    12  N    0.492885
    13  O   -0.459716
    14  O   -0.460441
    15  C   -0.171278
    16  C   -0.221272
    17  C   -0.175522
    18  C    0.154545
    19  C   -0.171895
    20  C   -0.220081
    21  H    0.220963
    22  H    0.221988
    23  H    0.299451
    24  H    0.271799
    25  H    0.218565
    26  N    0.486545
    27  O   -0.470361
    28  O   -0.448630
 Sum of Mulliken charges =  -0.00000

 Dipole moment (field-independent basis, Debye):
    X=             -2.0742    Y=             -2.9659    Z=             -0.5356  Tot=              3.6587
 Quadrupole moment (field-independent basis, Debye-Ang):
   XX=            -48.1373   YY=           -108.3394   ZZ=           -100.9827
   XY=            -11.8900   XZ=              1.7633   YZ=              1.5108

 Normal termination of Gaussian 16 at Thu May  6 11:12:55 2021.
