 Gaussian 16, Revision A.03,
 Gaussian 16:  EM64L-G16RevA.03 25-Dec-2016

 -------------
 #p 6-31g* mp2
 -------------

 ------------------------------------------------------
 Input file generated by CHIRIPA (05-May-2021 14:57:24)
 ------------------------------------------------------
 Symbolic Z-matrix:
 Charge =  0 Multiplicity = 1

                         Standard orientation:
 ---------------------------------------------------------------------
 Center     Atomic      Atomic             Coordinates (Angstroms)
 Number     Number       Type             X           Y           Z
 ---------------------------------------------------------------------
      1          6           0        2.021229    1.672958    0.818757
      2          6           0        2.244818    0.496024    1.540806
      3          6           0        3.240799   -0.401583    1.144736
      4          6           0        3.997953   -0.089297    0.016691
      5          6           0        3.799250    1.075139   -0.723510
      6          6           0        2.797790    1.958256   -0.309108
      7          1           0        1.245399    2.364612    1.133554
      8          1           0        1.643262    0.271864    2.417121
      9          1           0        3.435128   -1.319937    1.685364
     10          1           0        4.415043    1.271268   -1.592849
     11          1           0        2.626373    2.871523   -0.871786
     12          7           0        5.055255   -1.031883   -0.412314
     13          8           0        5.708689   -0.733690   -1.409681
     14          8           0        5.210513   -2.051027    0.256922
     15          6           0       -2.769320    2.226149   -0.082762
     16          6           0       -1.984781    1.094272    0.161931
     17          6           0       -2.558323   -0.180717    0.161800
     18          6           0       -3.925631   -0.287655   -0.087844
     19          6           0       -4.733798    0.820972   -0.335031
     20          6           0       -4.138910    2.086134   -0.330026
     21          1           0       -2.315488    3.212774   -0.080768
     22          1           0       -0.920884    1.199999    0.354263
     23          1           0       -1.974350   -1.073821    0.348238
     24          1           0       -5.791661    0.683845   -0.523552
     25          1           0       -4.750646    2.963399   -0.520372
     26          7           0       -4.544113   -1.632226   -0.090562
     27          8           0       -5.750977   -1.699646   -0.313206
     28          8           0       -3.810304   -2.593222    0.130002
 ---------------------------------------------------------------------

 SCF Done:  E(RHF) =  -868.336661318     A.U. after   16 cycles
 E2 =    -0.2600469728D+01 EUMP2 =    -0.87093713104638D+03

 The electronic state is 1-A.
 Alpha  occ. eigenvalues --  -20.61295 -20.61288 -20.61144 -20.61139 -15.86353
 Alpha  occ. eigenvalues --  -15.86202 -11.31947 -11.31683 -11.28501 -11.28496
 Alpha  occ. eigenvalues --  -11.28418 -11.28280 -11.28250 -11.28093 -11.27646
 Alpha  occ. eigenvalues --  -11.27633 -11.27341 -11.27301  -1.60363  -1.60217
 Alpha  occ. eigenvalues --   -1.39910  -1.39767  -1.20146  -1.19876  -1.09537
 Alpha  occ. eigenvalues --   -1.09263  -1.05560  -1.05296  -0.96324  -0.96074
 Alpha  occ. eigenvalues --   -0.86966  -0.86704  -0.83135  -0.82897  -0.78112
 Alpha  occ. eigenvalues --   -0.77921  -0.72568  -0.72419  -0.71687  -0.71542
 Alpha  occ. eigenvalues --   -0.71336  -0.71012  -0.65806  -0.65594  -0.65535
 Alpha  occ. eigenvalues --   -0.65295  -0.62883  -0.62645  -0.56184  -0.55823
 Alpha  occ. eigenvalues --   -0.53956  -0.53653  -0.53620  -0.53314  -0.49346
 Alpha  occ. eigenvalues --   -0.49308  -0.49187  -0.49165  -0.45264  -0.45147
 Alpha  occ. eigenvalues --   -0.38187  -0.37885  -0.37150  -0.36896
 Alpha virt. eigenvalues --    0.04335   0.04620   0.10430   0.10745   0.15600
 Alpha virt. eigenvalues --    0.16071   0.19227   0.21819   0.25680   0.26419
 Alpha virt. eigenvalues --    0.27588   0.28947   0.30194   0.30775   0.31979

 Mulliken charges:
               1
     1  C   -0.177640
     2  C   -0.221148
     3  C   -0.169559
     4  C    0.160552
     5  C   -0.169984
     6  C   -0.217965
     7  H    0.219753
     8  H    0.226116
     9  H    0.279563
    10  H    0.278521
    11  H    0.224364
    12  N    0.487856
    13  O   -0.458094
    14  O   -0.457234
    15  C   -0.172560
    16  C   -0.223554
    17  C   -0.172547
    18  C    0.159468
    19  C   -0.170456
    20  C   -0.217955
    21  H    0.221487
    22  H    0.222027
    23  H    0.277101
    24  H    0.277326
    25  H    0.224649
    26  N    0.487961
    27  O   -0.458993
    28  O   -0.459056
 Sum of Mulliken charges =  -0.00000

 Dipole moment (field-independent basis, Debye):
    X=             -1.3656    Y=              7.8861    Z=              1.4583  Tot=              8.1353
 Quadrupole moment (field-independent basis, Debye-Ang):
   XX=           -146.5195   YY=           -106.5269   ZZ=           -102.7347
   XY=             -7.0697   XZ=              5.8358   YZ=             -3.8515

 Normal termination of Gaussian 16 at Thu May  6 18:01:38 2021.
