 Gaussian 16, Revision A.03,
 Gaussian 16:  EM64L-G16RevA.03 25-Dec-2016

 -------------
 #p 6-31g* mp2
 -------------

 ------------------------------------------------------
 Input file generated by CHIRIPA (05-May-2021 14:57:24)
 ------------------------------------------------------
 Symbolic Z-matrix:
 Charge =  0 Multiplicity = 1

                         Standard orientation:
 ---------------------------------------------------------------------
 Center     Atomic      Atomic             Coordinates (Angstroms)
 Number     Number       Type             X           Y           Z
 ---------------------------------------------------------------------
      1          6           0        3.844279    2.467615    0.457543
      2          6           0        2.685916    1.710619    0.661677
      3          6           0        2.669428    0.344241    0.366232
      4          6           0        3.834315   -0.235361   -0.134159
      5          6           0        5.004020    0.492078   -0.348428
      6          6           0        4.997601    1.857006   -0.045971
      7          1           0        3.848190    3.528487    0.689776
      8          1           0        1.788769    2.182166    1.052595
      9          1           0        1.786426   -0.265426    0.514661
     10          1           0        5.882938   -0.006015   -0.739355
     11          1           0        5.898644    2.442423   -0.205511
     12          7           0        3.828985   -1.681116   -0.450645
     13          8           0        4.868255   -2.168079   -0.890443
     14          8           0        2.785638   -2.299960   -0.252917
     15          6           0       -1.552693   -0.346526    1.100847
     16          6           0       -1.735647    0.614869    0.101464
     17          6           0       -2.995883    0.813840   -0.470168
     18          6           0       -4.055857    0.030302   -0.016501
     19          6           0       -3.905410   -0.935454    0.977467
     20          6           0       -2.636249   -1.117260    1.534894
     21          1           0       -0.570245   -0.494424    1.539387
     22          1           0       -0.895956    1.214879   -0.237586
     23          1           0       -3.165608    1.551155   -1.245396
     24          1           0       -4.761556   -1.518334    1.294772
     25          1           0       -2.497110   -1.864623    2.310868
     26          7           0       -5.394737    0.231858   -0.614143
     27          8           0       -6.312448   -0.471306   -0.197005
     28          8           0       -5.501088    1.089184   -1.488395
 ---------------------------------------------------------------------

 SCF Done:  E(RHF) =  -868.336810967     A.U. after   16 cycles
 E2 =    -0.2600116299D+01 EUMP2 =    -0.87093692726555D+03

 The electronic state is 1-A.
 Alpha  occ. eigenvalues --  -20.61528 -20.61509 -20.60922 -20.60914 -15.86580
 Alpha  occ. eigenvalues --  -15.85977 -11.32061 -11.31419 -11.28764 -11.28572
 Alpha  occ. eigenvalues --  -11.28348 -11.28028 -11.27962 -11.27849 -11.27746
 Alpha  occ. eigenvalues --  -11.27585 -11.27140 -11.26997  -1.60592  -1.59994
 Alpha  occ. eigenvalues --   -1.40145  -1.39545  -1.20235  -1.19609  -1.09590
 Alpha  occ. eigenvalues --   -1.09010  -1.05676  -1.05023  -0.96418  -0.95828
 Alpha  occ. eigenvalues --   -0.87052  -0.86436  -0.83262  -0.82655  -0.78310
 Alpha  occ. eigenvalues --   -0.77670  -0.72796  -0.72197  -0.71916  -0.71377
 Alpha  occ. eigenvalues --   -0.71316  -0.70740  -0.65892  -0.65675  -0.65279
 Alpha  occ. eigenvalues --   -0.65063  -0.63035  -0.62356  -0.56137  -0.55589
 Alpha  occ. eigenvalues --   -0.53965  -0.53760  -0.53331  -0.53128  -0.49563
 Alpha  occ. eigenvalues --   -0.49543  -0.48962  -0.48944  -0.45526  -0.44934
 Alpha  occ. eigenvalues --   -0.38178  -0.37608  -0.37276  -0.36609
 Alpha virt. eigenvalues --    0.04242   0.04858   0.10378   0.11014   0.15666
 Alpha virt. eigenvalues --    0.16273   0.17613   0.22144   0.24870   0.25797
 Alpha virt. eigenvalues --    0.27611   0.29173   0.30480   0.31082   0.32927

 Mulliken charges:
               1
     1  C   -0.169911
     2  C   -0.221892
     3  C   -0.178066
     4  C    0.160701
     5  C   -0.168966
     6  C   -0.218046
     7  H    0.228789
     8  H    0.220067
     9  H    0.272605
    10  H    0.278616
    11  H    0.227079
    12  N    0.487603
    13  O   -0.456573
    14  O   -0.461780
    15  C   -0.171387
    16  C   -0.220017
    17  C   -0.169870
    18  C    0.159128
    19  C   -0.170035
    20  C   -0.217157
    21  H    0.222471
    22  H    0.217203
    23  H    0.276115
    24  H    0.277318
    25  H    0.227171
    26  N    0.488024
    27  O   -0.459008
    28  O   -0.460180
 Sum of Mulliken charges =  -0.00000

 Dipole moment (field-independent basis, Debye):
    X=              4.8669    Y=              4.3380    Z=              3.1795  Tot=              7.2535
 Quadrupole moment (field-independent basis, Debye-Ang):
   XX=           -136.1000   YY=           -105.3834   ZZ=           -104.2825
   XY=             25.1061   XZ=             -7.5094   YZ=             -3.5238

 Normal termination of Gaussian 16 at Wed May  5 22:42:48 2021.
