 Gaussian 16, Revision A.03,
 Gaussian 16:  EM64L-G16RevA.03 25-Dec-2016

 -------------
 #p 6-31g* mp2
 -------------

 ------------------------------------------------------
 Input file generated by CHIRIPA (05-May-2021 14:57:25)
 ------------------------------------------------------
 Symbolic Z-matrix:
 Charge =  0 Multiplicity = 1

                         Standard orientation:
 ---------------------------------------------------------------------
 Center     Atomic      Atomic             Coordinates (Angstroms)
 Number     Number       Type             X           Y           Z
 ---------------------------------------------------------------------
      1          6           0        5.143263    1.447181    0.777525
      2          6           0        4.735569    0.262022    1.398577
      3          6           0        3.738151   -0.532881    0.826007
      4          6           0        3.167310   -0.110620   -0.373629
      5          6           0        3.551953    1.064925   -1.016617
      6          6           0        4.551197    1.844150   -0.425968
      7          1           0        5.918790    2.058591    1.229333
      8          1           0        5.193613   -0.048744    2.333277
      9          1           0        3.403511   -1.455031    1.285434
     10          1           0        3.076788    1.348641   -1.947822
     11          1           0        4.865824    2.764074   -0.910524
     12          7           0        2.110422   -0.943850   -0.989353
     13          8           0        1.623182   -0.549827   -2.046699
     14          8           0        1.789284   -1.975180   -0.402952
     15          6           0       -1.529126   -1.566003    1.115831
     16          6           0       -2.039063   -0.563354    1.947205
     17          6           0       -3.043342    0.295251    1.490291
     18          6           0       -3.516711    0.122108    0.190586
     19          6           0       -3.028971   -0.867331   -0.661711
     20          6           0       -2.024834   -1.714529   -0.183682
     21          1           0       -0.749033   -2.228557    1.478974
     22          1           0       -1.655987   -0.445679    2.956883
     23          1           0       -3.456051    1.079871    2.112754
     24          1           0       -3.430835   -0.960114   -1.663367
     25          1           0       -1.630690   -2.492318   -0.831555
     26          7           0       -4.579822    1.025036   -0.304304
     27          8           0       -4.979979    0.851794   -1.453434
     28          8           0       -4.992799    1.888897    0.466300
 ---------------------------------------------------------------------

 SCF Done:  E(RHF) =  -868.340115784     A.U. after   16 cycles
 E2 =    -0.2599068077D+01 EUMP2 =    -0.87093918386152D+03

 The electronic state is 1-A.
 Alpha  occ. eigenvalues --  -20.61691 -20.61629 -20.60047 -20.60032 -15.86680
 Alpha  occ. eigenvalues --  -15.85087 -11.31822 -11.30246 -11.28399 -11.28326
 Alpha  occ. eigenvalues --  -11.28051 -11.27343 -11.27294 -11.26856 -11.26707
 Alpha  occ. eigenvalues --  -11.26367 -11.25829 -11.25556  -1.60712  -1.59123
 Alpha  occ. eigenvalues --   -1.40277  -1.38682  -1.19970  -1.18382  -1.09405
 Alpha  occ. eigenvalues --   -1.07791  -1.05341  -1.03748  -0.96282  -0.94666
 Alpha  occ. eigenvalues --   -0.86749  -0.85138  -0.83126  -0.81509  -0.78199
 Alpha  occ. eigenvalues --   -0.76605  -0.72930  -0.72010  -0.71310  -0.71075
 Alpha  occ. eigenvalues --   -0.70444  -0.69421  -0.65628  -0.65340  -0.64016
 Alpha  occ. eigenvalues --   -0.63719  -0.62694  -0.61099  -0.55843  -0.54177
 Alpha  occ. eigenvalues --   -0.53678  -0.53429  -0.52102  -0.51817  -0.49691
 Alpha  occ. eigenvalues --   -0.49646  -0.48077  -0.48046  -0.45725  -0.44134
 Alpha  occ. eigenvalues --   -0.37932  -0.36934  -0.36311  -0.35348
 Alpha virt. eigenvalues --    0.04304   0.05919   0.10724   0.12308   0.15837
 Alpha virt. eigenvalues --    0.17485   0.20862   0.22542   0.26788   0.27662
 Alpha virt. eigenvalues --    0.28413   0.29347   0.30554   0.31738   0.32488

 Mulliken charges:
               1
     1  C   -0.169943
     2  C   -0.218476
     3  C   -0.171519
     4  C    0.158846
     5  C   -0.169846
     6  C   -0.218335
     7  H    0.227863
     8  H    0.224287
     9  H    0.271886
    10  H    0.277837
    11  H    0.226294
    12  N    0.490813
    13  O   -0.455464
    14  O   -0.471976
    15  C   -0.170916
    16  C   -0.221545
    17  C   -0.173257
    18  C    0.157022
    19  C   -0.171838
    20  C   -0.213324
    21  H    0.231946
    22  H    0.217047
    23  H    0.270958
    24  H    0.274566
    25  H    0.234952
    26  N    0.488213
    27  O   -0.461542
    28  O   -0.464552
 Sum of Mulliken charges =  -0.00000

 Dipole moment (field-independent basis, Debye):
    X=              7.8875    Y=             -0.3049    Z=              3.6968  Tot=              8.7162
 Quadrupole moment (field-independent basis, Debye-Ang):
   XX=           -109.4019   YY=           -103.7297   ZZ=            -99.6634
   XY=             21.4167   XZ=              0.8247   YZ=             -2.1608

 Normal termination of Gaussian 16 at Fri May  7 00:25:17 2021.
