 Gaussian 16, Revision A.03,
 Gaussian 16:  EM64L-G16RevA.03 25-Dec-2016

 -------------
 #p 6-31g* mp2
 -------------

 ------------------------------------------------------
 Input file generated by CHIRIPA (05-May-2021 14:57:27)
 ------------------------------------------------------
 Symbolic Z-matrix:
 Charge =  0 Multiplicity = 1

                         Standard orientation:
 ---------------------------------------------------------------------
 Center     Atomic      Atomic             Coordinates (Angstroms)
 Number     Number       Type             X           Y           Z
 ---------------------------------------------------------------------
      1          6           0        2.339635    2.071672    0.865611
      2          6           0        3.599070    1.840976    1.428747
      3          6           0        4.374012    0.753844    1.013829
      4          6           0        3.856268   -0.086222    0.029187
      5          6           0        2.605146    0.117175   -0.550997
      6          6           0        1.847560    1.210554   -0.120725
      7          1           0        1.744383    2.918609    1.193893
      8          1           0        3.983764    2.508077    2.194927
      9          1           0        5.352277    0.551906    1.432922
     10          1           0        2.248444   -0.565257   -1.312881
     11          1           0        0.869807    1.387270   -0.559832
     12          7           0        4.667477   -1.240427   -0.418195
     13          8           0        4.188735   -1.965808   -1.287255
     14          8           0        5.766685   -1.397856    0.108677
     15          6           0       -2.971946    2.058632   -1.163811
     16          6           0       -4.154695    2.018266   -0.418157
     17          6           0       -4.580261    0.825525    0.174138
     18          6           0       -3.795138   -0.313081   -0.000359
     19          6           0       -2.611956   -0.304829   -0.737449
     20          6           0       -2.205703    0.899001   -1.320799
     21          1           0       -2.648858    2.989489   -1.620445
     22          1           0       -4.751776    2.917300   -0.294566
     23          1           0       -5.491687    0.766066    0.756534
     24          1           0       -2.037900   -1.217370   -0.843027
     25          1           0       -1.286723    0.927394   -1.899345
     26          7           0       -4.235443   -1.581651    0.621943
     27          8           0       -3.525899   -2.570971    0.453333
     28          8           0       -5.281761   -1.562616    1.266531
 ---------------------------------------------------------------------

 SCF Done:  E(RHF) =  -868.336646254     A.U. after   16 cycles
 E2 =    -0.2599908507D+01 EUMP2 =    -0.87093655476129D+03

 The electronic state is 1-A.
 Alpha  occ. eigenvalues --  -20.61236 -20.61228 -20.61036 -20.61030 -15.86298
 Alpha  occ. eigenvalues --  -15.86095 -11.31849 -11.31563 -11.28502 -11.28445
 Alpha  occ. eigenvalues --  -11.28290 -11.28200 -11.28118 -11.27922 -11.27616
 Alpha  occ. eigenvalues --  -11.27469 -11.27253 -11.27146  -1.60308  -1.60109
 Alpha  occ. eigenvalues --   -1.39855  -1.39660  -1.20069  -1.19751  -1.09432
 Alpha  occ. eigenvalues --   -1.09125  -1.05512  -1.05183  -0.96224  -0.95943
 Alpha  occ. eigenvalues --   -0.86909  -0.86569  -0.83065  -0.82782  -0.78080
 Alpha  occ. eigenvalues --   -0.77805  -0.72511  -0.72311  -0.71635  -0.71433
 Alpha  occ. eigenvalues --   -0.71170  -0.70863  -0.65724  -0.65648  -0.65410
 Alpha  occ. eigenvalues --   -0.65126  -0.62904  -0.62476  -0.56012  -0.55676
 Alpha  occ. eigenvalues --   -0.53847  -0.53666  -0.53486  -0.53193  -0.49288
 Alpha  occ. eigenvalues --   -0.49253  -0.49077  -0.49060  -0.45219  -0.45044
 Alpha  occ. eigenvalues --   -0.38067  -0.37727  -0.37120  -0.36774
 Alpha virt. eigenvalues --    0.04484   0.04746   0.10378   0.10876   0.15818
 Alpha virt. eigenvalues --    0.16219   0.18945   0.21847   0.24870   0.27403
 Alpha virt. eigenvalues --    0.28013   0.28626   0.29681   0.31406   0.31948

 Mulliken charges:
               1
     1  C   -0.171198
     2  C   -0.218018
     3  C   -0.170018
     4  C    0.159437
     5  C   -0.171367
     6  C   -0.219805
     7  H    0.225561
     8  H    0.224884
     9  H    0.277300
    10  H    0.272873
    11  H    0.217602
    12  N    0.488192
    13  O   -0.459913
    14  O   -0.458800
    15  C   -0.172271
    16  C   -0.218767
    17  C   -0.169028
    18  C    0.158696
    19  C   -0.169330
    20  C   -0.223807
    21  H    0.225764
    22  H    0.225545
    23  H    0.278218
    24  H    0.278451
    25  H    0.218078
    26  N    0.487968
    27  O   -0.457514
    28  O   -0.458736
 Sum of Mulliken charges =  -0.00000

 Dipole moment (field-independent basis, Debye):
    X=             -1.4132    Y=              8.4649    Z=             -0.4804  Tot=              8.5954
 Quadrupole moment (field-independent basis, Debye-Ang):
   XX=           -131.8043   YY=           -107.9301   ZZ=           -103.1876
   XY=             -2.5913   XZ=             15.4477   YZ=              2.7844

 Normal termination of Gaussian 16 at Thu May  6 13:10:41 2021.
