 Gaussian 16, Revision A.03,
 Gaussian 16:  EM64L-G16RevA.03 25-Dec-2016

 -------------
 #p 6-31g* mp2
 -------------

 ------------------------------------------------------
 Input file generated by CHIRIPA (05-May-2021 14:51:12)
 ------------------------------------------------------
 Symbolic Z-matrix:
 Charge =  0 Multiplicity = 1

                         Standard orientation:
 ---------------------------------------------------------------------
 Center     Atomic      Atomic             Coordinates (Angstroms)
 Number     Number       Type             X           Y           Z
 ---------------------------------------------------------------------
      1          6           0        3.884397    0.267378    0.556825
      2          6           0        2.972428    1.273121   -0.146579
      3          6           0        1.832912    1.763631    0.747119
      4          1           0        3.284582   -0.589757    0.892215
      5          1           0        4.300597    0.730929    1.461973
      6          1           0        2.559161    0.808278   -1.050873
      7          1           0        3.574516    2.127873   -0.480503
      8          1           0        2.229085    2.251740    1.643443
      9          1           0        1.207961    0.924647    1.069832
     10          1           0        1.193354    2.481673    0.224394
     11          6           0        5.028368   -0.232221   -0.323776
     12          6           0        5.940338   -1.237964    0.379628
     13          6           0        7.079854   -1.728474   -0.514070
     14          1           0        4.612169   -0.695772   -1.228924
     15          1           0        5.628183    0.624914   -0.659166
     16          1           0        5.338249   -2.092716    0.713552
     17          1           0        6.353605   -0.773121    1.283922
     18          1           0        7.704805   -0.889490   -0.836783
     19          1           0        6.683680   -2.216583   -1.410395
     20          1           0        7.719411   -2.446516    0.008655
     21          6           0       -3.800716    0.255475    0.164501
     22          6           0       -2.969113    1.017386   -0.867930
     23          6           0       -1.660373    1.557526   -0.290658
     24          1           0       -4.018611    0.919163    1.012431
     25          1           0       -3.204132   -0.576358    0.563920
     26          1           0       -3.567579    1.846701   -1.266291
     27          1           0       -2.753335    0.351865   -1.713588
     28          1           0       -1.040492    0.739304    0.089946
     29          1           0       -1.859362    2.242633    0.539784
     30          1           0       -1.081653    2.098688   -1.045699
     31          6           0       -5.112049   -0.290632   -0.397550
     32          6           0       -5.943653   -1.052543    0.634880
     33          6           0       -7.252392   -1.592684    0.057609
     34          1           0       -5.708634    0.541201   -0.796969
     35          1           0       -4.894154   -0.954320   -1.245479
     36          1           0       -6.159431   -0.387022    1.480539
     37          1           0       -5.345187   -1.881858    1.033243
     38          1           0       -7.053404   -2.277790   -0.772833
     39          1           0       -7.872274   -0.774461   -0.322995
     40          1           0       -7.831113   -2.133845    0.812651
 ---------------------------------------------------------------------

 SCF Done:  E(RHF) =  -470.732394820     A.U. after   11 cycles
 E2 =    -0.1582719610D+01 EUMP2 =    -0.47231511443029D+03

 The electronic state is 1-A.
 Alpha  occ. eigenvalues --  -11.21593 -11.21583 -11.21547 -11.21531 -11.21389
 Alpha  occ. eigenvalues --  -11.21371 -11.21329 -11.21310 -11.21065 -11.21058
 Alpha  occ. eigenvalues --  -11.20987 -11.20901  -1.08414  -1.08385  -1.03536
 Alpha  occ. eigenvalues --   -1.03448  -0.96042  -0.95843  -0.87120  -0.86801
 Alpha  occ. eigenvalues --   -0.79680  -0.79435  -0.78234  -0.78192  -0.65065
 Alpha  occ. eigenvalues --   -0.65002  -0.61009  -0.60788  -0.59492  -0.59155
 Alpha  occ. eigenvalues --   -0.57629  -0.57476  -0.55440  -0.55049  -0.52957
 Alpha  occ. eigenvalues --   -0.52534  -0.52255  -0.52231  -0.50082  -0.49669
 Alpha  occ. eigenvalues --   -0.47941  -0.47793  -0.46691  -0.46464  -0.45790
 Alpha  occ. eigenvalues --   -0.45726  -0.45696  -0.45625  -0.43908  -0.43553
 Alpha virt. eigenvalues --    0.22192   0.23022   0.23568   0.24927   0.26263
 Alpha virt. eigenvalues --    0.26707   0.27085   0.27222   0.27667   0.29080
 Alpha virt. eigenvalues --    0.29328   0.31232   0.31586   0.31961   0.32318

 Mulliken charges:
               1
     1  C   -0.298269
     2  C   -0.300376
     3  C   -0.477475
     4  H    0.149208
     5  H    0.149517
     6  H    0.151560
     7  H    0.151462
     8  H    0.153640
     9  H    0.155833
    10  H    0.165479
    11  C   -0.298196
    12  C   -0.299593
    13  C   -0.475671
    14  H    0.149332
    15  H    0.149603
    16  H    0.151788
    17  H    0.151914
    18  H    0.155165
    19  H    0.155100
    20  H    0.160168
    21  C   -0.298319
    22  C   -0.301072
    23  C   -0.474939
    24  H    0.149684
    25  H    0.149061
    26  H    0.151421
    27  H    0.151389
    28  H    0.158383
    29  H    0.155152
    30  H    0.159182
    31  C   -0.298191
    32  C   -0.299600
    33  C   -0.475685
    34  H    0.149539
    35  H    0.149515
    36  H    0.151956
    37  H    0.151812
    38  H    0.155123
    39  H    0.155185
    40  H    0.160216
 Sum of Mulliken charges =  -0.00000

 Dipole moment (field-independent basis, Debye):
    X=             -0.0090    Y=              0.0185    Z=              0.0078  Tot=              0.0220
 Quadrupole moment (field-independent basis, Debye-Ang):
   XX=            -86.2144   YY=            -83.8122   ZZ=            -85.0142
   XY=             -0.0117   XZ=              0.2165   YZ=              0.1426

 Normal termination of Gaussian 16 at Thu May  6 05:29:40 2021.
