 Gaussian 16, Revision A.03,
 Gaussian 16:  EM64L-G16RevA.03 25-Dec-2016

 -------------
 #p 6-31g* mp2
 -------------

 ------------------------------------------------------
 Input file generated by CHIRIPA (05-May-2021 14:55:20)
 ------------------------------------------------------
 Symbolic Z-matrix:
 Charge =  0 Multiplicity = 1

                         Standard orientation:
 ---------------------------------------------------------------------
 Center     Atomic      Atomic             Coordinates (Angstroms)
 Number     Number       Type             X           Y           Z
 ---------------------------------------------------------------------
      1          6           0       -1.513492    2.133459    0.705559
      2          6           0       -1.967451    1.174789    1.617368
      3          6           0       -2.844735    0.165783    1.208925
      4          6           0       -3.249573    0.145314   -0.124858
      5          6           0       -2.814919    1.086225   -1.057088
      6          6           0       -1.937927    2.086201   -0.626411
      7          1           0       -0.832111    2.913772    1.031483
      8          1           0       -1.639497    1.209029    2.652413
      9          1           0       -3.211735   -0.588948    1.893841
     10          1           0       -3.159417    1.026154   -2.082334
     11          1           0       -1.587009    2.829399   -1.336732
     12          7           0       -4.178160   -0.918095   -0.569028
     13          8           0       -4.519983   -0.914229   -1.749612
     14          8           0       -4.546581   -1.735326    0.271827
     15          6           0        3.228783   -0.215118    0.139764
     16          6           0        2.358657   -1.334004    0.713313
     17          6           0        0.891283   -0.928264    0.854671
     18          1           0        3.152084    0.668951    0.787441
     19          1           0        2.833125    0.081103   -0.841615
     20          1           0        2.756658   -1.628976    1.692702
     21          1           0        2.437588   -2.215575    0.064299
     22          1           0        0.472067   -0.653548   -0.118668
     23          1           0        0.792951   -0.063616    1.518986
     24          1           0        0.287382   -1.742882    1.266449
     25          6           0        4.698336   -0.605560   -0.007531
     26          6           0        5.568463    0.513327   -0.581080
     27          6           0        7.035836    0.107587   -0.722438
     28          1           0        5.093993   -0.901780    0.973847
     29          1           0        4.775036   -1.489628   -0.655208
     30          1           0        5.489532    1.394898    0.067934
     31          1           0        5.170463    0.808299   -1.560469
     32          1           0        7.134170   -0.757061   -1.386754
     33          1           0        7.455052   -0.167129    0.250902
     34          1           0        7.639738    0.922205   -1.134216
 ---------------------------------------------------------------------

 SCF Done:  E(RHF) =  -669.534923839     A.U. after   15 cycles
 E2 =    -0.2092406554D+01 EUMP2 =    -0.67162733039273D+03

 The electronic state is 1-A.
 Alpha  occ. eigenvalues --  -20.60749 -20.60744 -15.85803 -11.31165 -11.27736
 Alpha  occ. eigenvalues --  -11.27718 -11.27464 -11.26756 -11.26734 -11.21909
 Alpha  occ. eigenvalues --  -11.21839 -11.21738 -11.21655 -11.21325 -11.21287
 Alpha  occ. eigenvalues --   -1.59825  -1.39378  -1.19338  -1.08752  -1.08713
 Alpha  occ. eigenvalues --   -1.04746  -1.03801  -0.96253  -0.95569  -0.87273
 Alpha  occ. eigenvalues --   -0.86142  -0.82403  -0.79870  -0.78553  -0.77450
 Alpha  occ. eigenvalues --   -0.72022  -0.71147  -0.70448  -0.65364  -0.64994
 Alpha  occ. eigenvalues --   -0.64755  -0.62097  -0.61199  -0.59623  -0.57882
 Alpha  occ. eigenvalues --   -0.55549  -0.55246  -0.53465  -0.52879  -0.52840
 Alpha  occ. eigenvalues --   -0.52354  -0.50203  -0.48781  -0.48776  -0.48160
 Alpha  occ. eigenvalues --   -0.46910  -0.46087  -0.46020  -0.44785  -0.44070
 Alpha  occ. eigenvalues --   -0.37269  -0.36291
 Alpha virt. eigenvalues --    0.05078   0.11254   0.16567   0.21129   0.22618
 Alpha virt. eigenvalues --    0.24047   0.26239   0.26840   0.27211   0.28115
 Alpha virt. eigenvalues --    0.28295   0.30718   0.31230   0.31451   0.31680

 Mulliken charges:
               1
     1  C   -0.169047
     2  C   -0.213841
     3  C   -0.169962
     4  C    0.158760
     5  C   -0.171969
     6  C   -0.218830
     7  H    0.225288
     8  H    0.223066
     9  H    0.275349
    10  H    0.275394
    11  H    0.223311
    12  N    0.488059
    13  O   -0.460656
    14  O   -0.460501
    15  C   -0.297357
    16  C   -0.301353
    17  C   -0.472639
    18  H    0.145065
    19  H    0.148981
    20  H    0.151057
    21  H    0.154271
    22  H    0.158536
    23  H    0.146832
    24  H    0.160540
    25  C   -0.298296
    26  C   -0.299559
    27  C   -0.475812
    28  H    0.149857
    29  H    0.151397
    30  H    0.150277
    31  H    0.151580
    32  H    0.156263
    33  H    0.155528
    34  H    0.160411
 Sum of Mulliken charges =  -0.00000

 Dipole moment (field-independent basis, Debye):
    X=              3.2602    Y=              3.7323    Z=              1.5537  Tot=              5.1935
 Quadrupole moment (field-independent basis, Debye-Ang):
   XX=           -118.0765   YY=            -93.4601   ZZ=            -90.1175
   XY=            -11.6229   XZ=             -5.3968   YZ=             -1.9026

 Normal termination of Gaussian 16 at Thu May  6 07:44:02 2021.
