 Gaussian 16, Revision A.03,
 Gaussian 16:  EM64L-G16RevA.03 25-Dec-2016

 -------------
 #p 6-31g* mp2
 -------------

 ------------------------------------------------------
 Input file generated by CHIRIPA (05-May-2021 14:55:20)
 ------------------------------------------------------
 Symbolic Z-matrix:
 Charge =  0 Multiplicity = 1

                         Standard orientation:
 ---------------------------------------------------------------------
 Center     Atomic      Atomic             Coordinates (Angstroms)
 Number     Number       Type             X           Y           Z
 ---------------------------------------------------------------------
      1          6           0       -1.144712    2.189139   -1.132464
      2          6           0       -0.636522    0.972150   -1.598514
      3          6           0       -1.248348   -0.234439   -1.245869
      4          6           0       -2.371728   -0.186932   -0.421824
      5          6           0       -2.901777    1.009540    0.058586
      6          6           0       -2.273728    2.203924   -0.306857
      7          1           0       -0.663130    3.121706   -1.411378
      8          1           0        0.240149    0.957637   -2.239827
      9          1           0       -0.875859   -1.190748   -1.592486
     10          1           0       -3.777134    0.992064    0.696444
     11          1           0       -2.670590    3.147569    0.056569
     12          7           0       -3.028029   -1.457833   -0.041721
     13          8           0       -4.016506   -1.389010    0.685475
     14          8           0       -2.541533   -2.498724   -0.478189
     15          6           0        2.375266    0.478187    0.852022
     16          6           0        1.330278   -0.116445    1.796690
     17          6           0        0.292658    0.910152    2.251925
     18          1           0        2.880602    1.314482    1.354209
     19          1           0        1.867365    0.901491   -0.025614
     20          1           0        1.840109   -0.539731    2.671628
     21          1           0        0.827503   -0.951544    1.292266
     22          1           0       -0.242061    1.325051    1.391381
     23          1           0        0.776297    1.739204    2.778581
     24          1           0       -0.444637    0.463757    2.926453
     25          6           0        3.419453   -0.535860    0.388221
     26          6           0        4.464441    0.058772   -0.556446
     27          6           0        5.502061   -0.967824   -1.011680
     28          1           0        3.927354   -0.959163    1.265857
     29          1           0        2.914116   -1.372155   -0.113965
     30          1           0        4.967216    0.893871   -0.052023
     31          1           0        3.954610    0.482058   -1.431385
     32          1           0        5.018421   -1.796876   -1.538337
     33          1           0        6.036781   -1.382724   -0.151137
     34          1           0        6.239356   -0.521430   -1.686210
 ---------------------------------------------------------------------

 SCF Done:  E(RHF) =  -669.533517525     A.U. after   15 cycles
 E2 =    -0.2096419602D+01 EUMP2 =    -0.67162993712696D+03

 The electronic state is 1-A.
 Alpha  occ. eigenvalues --  -20.60888 -20.60883 -15.85943 -11.31371 -11.27953
 Alpha  occ. eigenvalues --  -11.27905 -11.27646 -11.26956 -11.26903 -11.21998
 Alpha  occ. eigenvalues --  -11.21666 -11.21617 -11.21558 -11.21376 -11.20865
 Alpha  occ. eigenvalues --   -1.59961  -1.39513  -1.19565  -1.08942  -1.08652
 Alpha  occ. eigenvalues --   -1.04957  -1.03697  -0.96148  -0.95750  -0.87171
 Alpha  occ. eigenvalues --   -0.86341  -0.82575  -0.79787  -0.78482  -0.77619
 Alpha  occ. eigenvalues --   -0.72158  -0.71286  -0.70631  -0.65367  -0.65187
 Alpha  occ. eigenvalues --   -0.64924  -0.62287  -0.61199  -0.59525  -0.57777
 Alpha  occ. eigenvalues --   -0.55676  -0.55428  -0.53306  -0.53033  -0.52822
 Alpha  occ. eigenvalues --   -0.52413  -0.50024  -0.48923  -0.48910  -0.48041
 Alpha  occ. eigenvalues --   -0.46803  -0.45984  -0.45920  -0.44903  -0.43970
 Alpha  occ. eigenvalues --   -0.37460  -0.36502
 Alpha virt. eigenvalues --    0.04901   0.10953   0.16338   0.20446   0.22913
 Alpha virt. eigenvalues --    0.24153   0.25584   0.26595   0.27683   0.28422
 Alpha virt. eigenvalues --    0.28890   0.30779   0.31508   0.31641   0.31889

 Mulliken charges:
               1
     1  C   -0.174006
     2  C   -0.215074
     3  C   -0.171674
     4  C    0.161889
     5  C   -0.168905
     6  C   -0.219774
     7  H    0.227364
     8  H    0.224916
     9  H    0.276359
    10  H    0.276618
    11  H    0.225012
    12  N    0.488028
    13  O   -0.459586
    14  O   -0.460155
    15  C   -0.300735
    16  C   -0.297975
    17  C   -0.486331
    18  H    0.148495
    19  H    0.143840
    20  H    0.152635
    21  H    0.152705
    22  H    0.166864
    23  H    0.150186
    24  H    0.160522
    25  C   -0.298470
    26  C   -0.298236
    27  C   -0.475707
    28  H    0.152407
    29  H    0.148638
    30  H    0.152651
    31  H    0.144454
    32  H    0.155542
    33  H    0.157333
    34  H    0.160170
 Sum of Mulliken charges =  -0.00000

 Dipole moment (field-independent basis, Debye):
    X=              2.1487    Y=              4.4657    Z=             -1.3898  Tot=              5.1469
 Quadrupole moment (field-independent basis, Debye-Ang):
   XX=           -104.0067   YY=            -95.8543   ZZ=            -92.5153
   XY=            -12.7480   XZ=              1.0024   YZ=             -0.3241

 Normal termination of Gaussian 16 at Wed May  5 18:56:03 2021.
