 Gaussian 16, Revision A.03,
 Gaussian 16:  EM64L-G16RevA.03 25-Dec-2016

 -------------
 #p 6-31g* mp2
 -------------

 ------------------------------------------------------
 Input file generated by CHIRIPA (05-May-2021 14:53:15)
 ------------------------------------------------------
 Symbolic Z-matrix:
 Charge =  0 Multiplicity = 1

                         Standard orientation:
 ---------------------------------------------------------------------
 Center     Atomic      Atomic             Coordinates (Angstroms)
 Number     Number       Type             X           Y           Z
 ---------------------------------------------------------------------
      1          6           0       -3.967552   -0.252793    0.199544
      2          6           0       -5.408714   -0.760835    0.253671
      3          6           0       -5.496643   -2.259945    0.541301
      4          1           0       -3.418319   -0.808601   -0.572703
      5          1           0       -3.472232   -0.473391    1.155259
      6          1           0       -5.901585   -0.538107   -0.701361
      7          1           0       -5.954632   -0.203621    1.025748
      8          1           0       -5.029871   -2.495690    1.503147
      9          1           0       -4.976522   -2.832076   -0.233774
     10          1           0       -6.535760   -2.601880    0.575606
     11          6           0       -3.863248    1.244089   -0.087151
     12          6           0       -2.422086    1.752131   -0.141277
     13          6           0       -2.334157    3.251241   -0.428907
     14          1           0       -4.358567    1.464687   -1.042865
     15          1           0       -4.412481    1.799897    0.685096
     16          1           0       -1.876168    1.194916   -0.913354
     17          1           0       -1.929215    1.529403    0.813755
     18          1           0       -2.854277    3.823372    0.346168
     19          1           0       -2.800929    3.486986   -1.390754
     20          1           0       -1.295040    3.593176   -0.463213
     21          6           0        1.266432   -2.063662   -0.629154
     22          6           0        0.955782   -0.701501   -0.561814
     23          6           0        1.940958    0.236276   -0.238476
     24          6           0        3.232196   -0.225153    0.012676
     25          6           0        3.572876   -1.575606   -0.046532
     26          6           0        2.571687   -2.495605   -0.371752
     27          1           0        0.494903   -2.785245   -0.881062
     28          1           0       -0.057044   -0.363174   -0.761225
     29          1           0        1.727967    1.296730   -0.179387
     30          1           0        4.591496   -1.882583    0.157419
     31          1           0        2.815825   -3.552857   -0.423321
     32          7           0        4.283635    0.758219    0.355975
     33          8           0        5.413631    0.326132    0.572878
     34          8           0        3.957848    1.942455    0.401650
 ---------------------------------------------------------------------

 SCF Done:  E(RHF) =  -669.535620088     A.U. after   15 cycles
 E2 =    -0.2091293094D+01 EUMP2 =    -0.67162691318256D+03

 The electronic state is 1-A.
 Alpha  occ. eigenvalues --  -20.60711 -20.60705 -15.85763 -11.31110 -11.27677
 Alpha  occ. eigenvalues --  -11.27659 -11.27405 -11.26695 -11.26621 -11.22582
 Alpha  occ. eigenvalues --  -11.22279 -11.22216 -11.22148 -11.21741 -11.21699
 Alpha  occ. eigenvalues --   -1.59786  -1.39340  -1.19275  -1.09231  -1.08674
 Alpha  occ. eigenvalues --   -1.04674  -1.04283  -0.96698  -0.95514  -0.87714
 Alpha  occ. eigenvalues --   -0.86075  -0.82350  -0.80377  -0.79073  -0.77388
 Alpha  occ. eigenvalues --   -0.71981  -0.71109  -0.70388  -0.65867  -0.64925
 Alpha  occ. eigenvalues --   -0.64677  -0.62063  -0.61648  -0.60066  -0.58326
 Alpha  occ. eigenvalues --   -0.55971  -0.55180  -0.53391  -0.53136  -0.53008
 Alpha  occ. eigenvalues --   -0.52765  -0.50631  -0.48770  -0.48738  -0.48629
 Alpha  occ. eigenvalues --   -0.47401  -0.46583  -0.46502  -0.44750  -0.44539
 Alpha  occ. eigenvalues --   -0.37259  -0.36275
 Alpha virt. eigenvalues --    0.05131   0.11371   0.16619   0.19654   0.22531
 Alpha virt. eigenvalues --    0.23537   0.24686   0.26097   0.26560   0.28556
 Alpha virt. eigenvalues --    0.29032   0.30002   0.30987   0.31409   0.32573

 Mulliken charges:
               1
     1  C   -0.299025
     2  C   -0.300071
     3  C   -0.476083
     4  H    0.142590
     5  H    0.150916
     6  H    0.153496
     7  H    0.154786
     8  H    0.155919
     9  H    0.153048
    10  H    0.162957
    11  C   -0.297770
    12  C   -0.307740
    13  C   -0.475456
    14  H    0.151942
    15  H    0.154054
    16  H    0.144861
    17  H    0.154493
    18  H    0.159694
    19  H    0.157661
    20  H    0.162160
    21  C   -0.172523
    22  C   -0.225027
    23  C   -0.174106
    24  C    0.158754
    25  C   -0.171417
    26  C   -0.218440
    27  H    0.225773
    28  H    0.234297
    29  H    0.275349
    30  H    0.275240
    31  H    0.222984
    32  N    0.488122
    33  O   -0.460747
    34  O   -0.460694
 Sum of Mulliken charges =  -0.00000

 Dipole moment (field-independent basis, Debye):
    X=             -3.9528    Y=             -3.3591    Z=             -1.1521  Tot=              5.3138
 Quadrupole moment (field-independent basis, Debye-Ang):
   XX=           -116.0838   YY=            -91.4090   ZZ=            -94.6719
   XY=            -13.8304   XZ=             -3.8336   YZ=              0.3276

 Normal termination of Gaussian 16 at Thu May  6 10:35:12 2021.
