 Gaussian 16, Revision A.03,
 Gaussian 16:  EM64L-G16RevA.03 25-Dec-2016

 -------------
 #p 6-31g* mp2
 -------------

 ------------------------------------------------------
 Input file generated by CHIRIPA (05-May-2021 14:55:20)
 ------------------------------------------------------
 Symbolic Z-matrix:
 Charge =  0 Multiplicity = 1

                         Standard orientation:
 ---------------------------------------------------------------------
 Center     Atomic      Atomic             Coordinates (Angstroms)
 Number     Number       Type             X           Y           Z
 ---------------------------------------------------------------------
      1          6           0        5.179233    0.824540    0.196954
      2          6           0        5.110519   -0.524850   -0.164909
      3          6           0        3.873956   -1.166654   -0.281306
      4          6           0        2.720908   -0.425490   -0.027442
      5          6           0        2.756598    0.920133    0.334930
      6          6           0        4.004124    1.541461    0.445281
      7          1           0        6.144083    1.315156    0.285026
      8          1           0        6.021483   -1.084106   -0.358359
      9          1           0        3.791844   -2.210255   -0.559826
     10          1           0        1.831214    1.451434    0.521485
     11          1           0        4.054457    2.589526    0.726478
     12          7           0        1.406011   -1.094101   -0.147467
     13          8           0        0.404772   -0.419021    0.081495
     14          8           0        1.401532   -2.280578   -0.468230
     15          6           0       -3.296835    0.969624    0.229719
     16          6           0       -3.472579    2.249489   -0.588231
     17          6           0       -2.538799    3.372732   -0.136376
     18          1           0       -3.475590    1.192542    1.290520
     19          1           0       -2.253478    0.633726    0.152412
     20          1           0       -4.515624    2.582107   -0.510527
     21          1           0       -3.293572    2.023456   -1.647231
     22          1           0       -1.492346    3.065002   -0.230390
     23          1           0       -2.721342    3.626827    0.912774
     24          1           0       -2.681198    4.278196   -0.734471
     25          6           0       -4.223470   -0.162467   -0.210107
     26          6           0       -4.047725   -1.442333    0.607843
     27          6           0       -4.981506   -2.565576    0.155989
     28          1           0       -5.266826    0.173430   -0.132800
     29          1           0       -4.044715   -0.385387   -1.270908
     30          1           0       -4.226733   -1.216299    1.666844
     31          1           0       -3.004681   -1.774951    0.530139
     32          1           0       -4.798963   -2.819671   -0.893161
     33          1           0       -6.027960   -2.257845    0.250001
     34          1           0       -4.839107   -3.471040    0.754084
 ---------------------------------------------------------------------

 SCF Done:  E(RHF) =  -669.536442279     A.U. after   15 cycles
 E2 =    -0.2091116459D+01 EUMP2 =    -0.67162755873807D+03

 The electronic state is 1-A.
 Alpha  occ. eigenvalues --  -20.61020 -20.61015 -15.86059 -11.31337 -11.27896
 Alpha  occ. eigenvalues --  -11.27892 -11.27626 -11.26895 -11.26885 -11.20726
 Alpha  occ. eigenvalues --  -11.20476 -11.20319 -11.20211 -11.20039 -11.20028
 Alpha  occ. eigenvalues --   -1.60081  -1.39638  -1.19502  -1.08913  -1.07293
 Alpha  occ. eigenvalues --   -1.04892  -1.02527  -0.95763  -0.94993  -0.86295
 Alpha  occ. eigenvalues --   -0.86025  -0.82600  -0.78582  -0.77660  -0.77064
 Alpha  occ. eigenvalues --   -0.72284  -0.71392  -0.70611  -0.65161  -0.64895
 Alpha  occ. eigenvalues --   -0.63900  -0.62240  -0.59924  -0.58376  -0.56597
 Alpha  occ. eigenvalues --   -0.55398  -0.54280  -0.53226  -0.52983  -0.51744
 Alpha  occ. eigenvalues --   -0.51436  -0.49068  -0.49035  -0.48923  -0.46911
 Alpha  occ. eigenvalues --   -0.45581  -0.45058  -0.44661  -0.44428  -0.42733
 Alpha  occ. eigenvalues --   -0.37479  -0.36492
 Alpha virt. eigenvalues --    0.04876   0.11163   0.16383   0.21092   0.23843
 Alpha virt. eigenvalues --    0.24984   0.26720   0.27453   0.28063   0.28959
 Alpha virt. eigenvalues --    0.29089   0.30736   0.31672   0.32492   0.32864

 Mulliken charges:
               1
     1  C   -0.170479
     2  C   -0.218625
     3  C   -0.170391
     4  C    0.157182
     5  C   -0.170833
     6  C   -0.218581
     7  H    0.226200
     8  H    0.223955
     9  H    0.275910
    10  H    0.275923
    11  H    0.224263
    12  N    0.496831
    13  O   -0.469249
    14  O   -0.458784
    15  C   -0.312017
    16  C   -0.297710
    17  C   -0.474657
    18  H    0.143426
    19  H    0.179735
    20  H    0.147956
    21  H    0.151136
    22  H    0.153103
    23  H    0.152653
    24  H    0.155866
    25  C   -0.296098
    26  C   -0.303534
    27  C   -0.474964
    28  H    0.143200
    29  H    0.149210
    30  H    0.147087
    31  H    0.168722
    32  H    0.154878
    33  H    0.150490
    34  H    0.158196
 Sum of Mulliken charges =  -0.00000

 Dipole moment (field-independent basis, Debye):
    X=              5.0008    Y=              2.2079    Z=              0.4103  Tot=              5.4819
 Quadrupole moment (field-independent basis, Debye-Ang):
   XX=            -70.1822   YY=            -94.6425   ZZ=            -95.0637
   XY=              1.8111   XZ=             -0.1233   YZ=              1.1379

 Normal termination of Gaussian 16 at Thu May  6 09:18:38 2021.
