 Gaussian 16, Revision A.03,
 Gaussian 16:  EM64L-G16RevA.03 25-Dec-2016

 -------------
 #p 6-31g* mp2
 -------------

 ------------------------------------------------------
 Input file generated by CHIRIPA (05-May-2021 14:55:20)
 ------------------------------------------------------
 Symbolic Z-matrix:
 Charge =  0 Multiplicity = 1

                         Standard orientation:
 ---------------------------------------------------------------------
 Center     Atomic      Atomic             Coordinates (Angstroms)
 Number     Number       Type             X           Y           Z
 ---------------------------------------------------------------------
      1          6           0        4.557221   -2.215360    0.026292
      2          6           0        3.309131   -2.004939   -0.569121
      3          6           0        2.754966   -0.722510   -0.622249
      4          6           0        3.479517    0.331406   -0.067651
      5          6           0        4.725198    0.153816    0.532374
      6          6           0        5.260032   -1.137212    0.574173
      7          1           0        4.980201   -3.214922    0.063164
      8          1           0        2.761070   -2.840369   -0.995420
      9          1           0        1.790659   -0.531321   -1.077198
     10          1           0        5.247829    1.006369    0.948821
     11          1           0        6.229516   -1.297662    1.037208
     12          7           0        2.903079    1.693608   -0.117900
     13          8           0        3.561422    2.605430    0.377885
     14          8           0        1.803840    1.823687   -0.652118
     15          6           0       -3.911850   -0.430320    0.314775
     16          6           0       -2.689817    0.277065   -0.271933
     17          6           0       -1.369843   -0.321449    0.215145
     18          1           0       -3.866450   -0.378233    1.411210
     19          1           0       -3.871835   -1.496146    0.050562
     20          1           0       -2.732842    1.341504   -0.007863
     21          1           0       -2.738231    0.223454   -1.367103
     22          1           0       -1.300743   -1.378436   -0.061634
     23          1           0       -1.295324   -0.254034    1.305330
     24          1           0       -0.509404    0.199248   -0.216569
     25          6           0       -5.238922    0.156660   -0.162788
     26          6           0       -6.460956   -0.550724    0.423920
     27          6           0       -7.780928    0.047790   -0.063158
     28          1           0       -5.278937    1.222486    0.101425
     29          1           0       -5.284322    0.104573   -1.259223
     30          1           0       -6.412542   -0.497114    1.519091
     31          1           0       -6.417930   -1.615164    0.159850
     32          1           0       -7.855449   -0.019626   -1.153343
     33          1           0       -7.850029    1.104776    0.213621
     34          1           0       -8.641368   -0.472908    0.368556
 ---------------------------------------------------------------------

 SCF Done:  E(RHF) =  -669.536051807     A.U. after   15 cycles
 E2 =    -0.2091358686D+01 EUMP2 =    -0.67162741049317D+03

 The electronic state is 1-A.
 Alpha  occ. eigenvalues --  -20.60889 -20.60881 -15.85917 -11.31212 -11.27783
 Alpha  occ. eigenvalues --  -11.27759 -11.27520 -11.26788 -11.26772 -11.21410
 Alpha  occ. eigenvalues --  -11.21206 -11.21139 -11.21073 -11.20896 -11.20677
 Alpha  occ. eigenvalues --   -1.59946  -1.39505  -1.19384  -1.08794  -1.08154
 Alpha  occ. eigenvalues --   -1.04778  -1.03244  -0.95727  -0.95621  -0.86738
 Alpha  occ. eigenvalues --   -0.86179  -0.82475  -0.79319  -0.77965  -0.77530
 Alpha  occ. eigenvalues --   -0.72147  -0.71256  -0.70500  -0.65043  -0.64799
 Alpha  occ. eigenvalues --   -0.64780  -0.62147  -0.60648  -0.59048  -0.57293
 Alpha  occ. eigenvalues --   -0.55293  -0.55010  -0.53112  -0.52927  -0.52332
 Alpha  occ. eigenvalues --   -0.52126  -0.49669  -0.48900  -0.48891  -0.47616
 Alpha  occ. eigenvalues --   -0.46352  -0.45509  -0.45434  -0.44921  -0.43461
 Alpha  occ. eigenvalues --   -0.37366  -0.36372
 Alpha virt. eigenvalues --    0.04970   0.11248   0.16467   0.21120   0.23126
 Alpha virt. eigenvalues --    0.24384   0.26703   0.26941   0.27699   0.27832
 Alpha virt. eigenvalues --    0.29129   0.30264   0.31652   0.31662   0.32146

 Mulliken charges:
               1
     1  C   -0.170440
     2  C   -0.219883
     3  C   -0.169933
     4  C    0.157024
     5  C   -0.170688
     6  C   -0.218749
     7  H    0.225698
     8  H    0.223954
     9  H    0.279546
    10  H    0.275503
    11  H    0.223478
    12  N    0.489756
    13  O   -0.459105
    14  O   -0.462956
    15  C   -0.298080
    16  C   -0.297647
    17  C   -0.491403
    18  H    0.149267
    19  H    0.146344
    20  H    0.157892
    21  H    0.150652
    22  H    0.144122
    23  H    0.155288
    24  H    0.180958
    25  C   -0.298169
    26  C   -0.299327
    27  C   -0.475581
    28  H    0.150978
    29  H    0.149195
    30  H    0.151718
    31  H    0.150550
    32  H    0.154887
    33  H    0.155767
    34  H    0.159382
 Sum of Mulliken charges =  -0.00000

 Dipole moment (field-independent basis, Debye):
    X=              2.1542    Y=             -4.6817    Z=              0.1783  Tot=              5.1567
 Quadrupole moment (field-independent basis, Debye-Ang):
   XX=            -78.8855   YY=            -97.5509   ZZ=            -93.8532
   XY=            -14.5685   XZ=              2.5010   YZ=              2.0170

 Normal termination of Gaussian 16 at Thu May  6 14:06:42 2021.
