 Gaussian 16, Revision A.03,
 Gaussian 16:  EM64L-G16RevA.03 25-Dec-2016

 -------------
 #p 6-31g* mp2
 -------------

 ------------------------------------------------------
 Input file generated by CHIRIPA (05-May-2021 14:53:12)
 ------------------------------------------------------
 Symbolic Z-matrix:
 Charge =  0 Multiplicity = 1

                         Standard orientation:
 ---------------------------------------------------------------------
 Center     Atomic      Atomic             Coordinates (Angstroms)
 Number     Number       Type             X           Y           Z
 ---------------------------------------------------------------------
      1          6           0        3.021647   -0.035208   -0.365024
      2          6           0        3.554684   -0.537249    0.977292
      3          6           0        4.405051   -1.800562    0.840504
      4          1           0        2.427273   -0.829732   -0.836613
      5          1           0        3.868240    0.162523   -1.037019
      6          1           0        2.707398   -0.732659    1.647021
      7          1           0        4.147699    0.258629    1.445827
      8          1           0        5.268711   -1.615422    0.193653
      9          1           0        3.820226   -2.612342    0.395990
     10          1           0        4.775805   -2.142079    1.811980
     11          6           0        2.169680    1.227090   -0.244680
     12          6           0        1.636643    1.729131   -1.586996
     13          6           0        0.786276    2.992443   -1.450208
     14          1           0        1.323086    1.029359    0.427314
     15          1           0        2.764054    2.021614    0.226908
     16          1           0        1.043628    0.933253   -2.055532
     17          1           0        2.483929    1.924541   -2.256726
     18          1           0        1.371101    3.804224   -1.005694
     19          1           0       -0.077384    2.807303   -0.803357
     20          1           0        0.415521    3.333961   -2.421685
     21          6           0       -2.400533    1.614270    1.617030
     22          6           0       -1.254504    0.837707    1.817248
     23          6           0       -1.037681   -0.316684    1.059015
     24          6           0       -1.991833   -0.666651    0.104863
     25          6           0       -3.143615    0.086336   -0.118072
     26          6           0       -3.339775    1.236772    0.651711
     27          1           0       -2.560941    2.509493    2.210530
     28          1           0       -0.523379    1.128459    2.566223
     29          1           0       -0.159257   -0.936160    1.193323
     30          1           0       -3.854542   -0.228980   -0.872112
     31          1           0       -4.230718    1.837945    0.494050
     32          7           0       -1.773230   -1.886660   -0.703959
     33          8           0       -2.628948   -2.173469   -1.538299
     34          8           0       -0.750310   -2.532992   -0.488257
 ---------------------------------------------------------------------

 SCF Done:  E(RHF) =  -669.534969123     A.U. after   15 cycles
 E2 =    -0.2094655868D+01 EUMP2 =    -0.67162962499070D+03

 The electronic state is 1-A.
 Alpha  occ. eigenvalues --  -20.60914 -20.60906 -15.85960 -11.31321 -11.27890
 Alpha  occ. eigenvalues --  -11.27883 -11.27637 -11.26904 -11.26894 -11.21751
 Alpha  occ. eigenvalues --  -11.21604 -11.21421 -11.21287 -11.21137 -11.20973
 Alpha  occ. eigenvalues --   -1.59982  -1.39536  -1.19509  -1.08895  -1.08468
 Alpha  occ. eigenvalues --   -1.04915  -1.03555  -0.95995  -0.95726  -0.87009
 Alpha  occ. eigenvalues --   -0.86298  -0.82569  -0.79635  -0.78314  -0.77593
 Alpha  occ. eigenvalues --   -0.72179  -0.71305  -0.70612  -0.65252  -0.65102
 Alpha  occ. eigenvalues --   -0.64844  -0.62230  -0.60970  -0.59363  -0.57609
 Alpha  occ. eigenvalues --   -0.55416  -0.55252  -0.53261  -0.52986  -0.52692
 Alpha  occ. eigenvalues --   -0.52417  -0.49935  -0.48935  -0.48934  -0.47940
 Alpha  occ. eigenvalues --   -0.46671  -0.45845  -0.45732  -0.44926  -0.43804
 Alpha  occ. eigenvalues --   -0.37474  -0.36389
 Alpha virt. eigenvalues --    0.04883   0.11090   0.16269   0.19779   0.22931
 Alpha virt. eigenvalues --    0.23921   0.25552   0.26975   0.27753   0.27976
 Alpha virt. eigenvalues --    0.30051   0.30422   0.31278   0.31716   0.31951

 Mulliken charges:
               1
     1  C   -0.304088
     2  C   -0.298116
     3  C   -0.477048
     4  H    0.162275
     5  H    0.150861
     6  H    0.141383
     7  H    0.150557
     8  H    0.155858
     9  H    0.163164
    10  H    0.158941
    11  C   -0.303534
    12  C   -0.298820
    13  C   -0.479119
    14  H    0.146682
    15  H    0.146680
    16  H    0.155424
    17  H    0.153041
    18  H    0.152425
    19  H    0.155743
    20  H    0.160516
    21  C   -0.171556
    22  C   -0.217906
    23  C   -0.173198
    24  C    0.157524
    25  C   -0.170711
    26  C   -0.218511
    27  H    0.226946
    28  H    0.225697
    29  H    0.280880
    30  H    0.276178
    31  H    0.224401
    32  N    0.487910
    33  O   -0.459319
    34  O   -0.461159
 Sum of Mulliken charges =  -0.00000

 Dipole moment (field-independent basis, Debye):
    X=             -0.8643    Y=              4.1755    Z=              2.7798  Tot=              5.0901
 Quadrupole moment (field-independent basis, Debye-Ang):
   XX=            -87.5989   YY=           -101.6814   ZZ=            -93.5333
   XY=             -8.3454   XZ=             -3.9154   YZ=             -1.6916

 Normal termination of Gaussian 16 at Wed May  5 20:07:24 2021.
