 Gaussian 16, Revision A.03,
 Gaussian 16:  EM64L-G16RevA.03 25-Dec-2016

 -------------
 #p 6-31g* mp2
 -------------

 ------------------------------------------------------
 Input file generated by CHIRIPA (05-May-2021 14:55:19)
 ------------------------------------------------------
 Symbolic Z-matrix:
 Charge =  0 Multiplicity = 1

                         Standard orientation:
 ---------------------------------------------------------------------
 Center     Atomic      Atomic             Coordinates (Angstroms)
 Number     Number       Type             X           Y           Z
 ---------------------------------------------------------------------
      1          6           0       -4.661693    0.332841   -1.126884
      2          6           0       -4.098119    1.155519   -0.146014
      3          6           0       -2.987005    0.727806    0.586813
      4          6           0       -2.462656   -0.534150    0.311466
      5          6           0       -3.001665   -1.376866   -0.659403
      6          6           0       -4.112635   -0.928502   -1.380002
      7          1           0       -5.524777    0.673120   -1.691411
      8          1           0       -4.522426    2.135581    0.052703
      9          1           0       -2.530857    1.344347    1.351813
     10          1           0       -2.556581   -2.348726   -0.834924
     11          1           0       -4.548233   -1.569538   -2.141167
     12          7           0       -1.286445   -0.997882    1.080804
     13          8           0       -0.843163   -2.113984    0.819169
     14          8           0       -0.830085   -0.236471    1.930879
     15          6           0        3.908147    0.110174    0.078673
     16          6           0        4.727136   -0.670382   -0.949907
     17          6           0        5.738701   -1.617835   -0.304258
     18          1           0        4.589743    0.682672    0.722581
     19          1           0        3.382102   -0.598976    0.732719
     20          1           0        5.250389    0.040036   -1.602692
     21          1           0        4.043500   -1.240939   -1.591564
     22          1           0        5.229922   -2.348900    0.332365
     23          1           0        6.443668   -1.060646    0.321175
     24          1           0        6.313247   -2.165696   -1.057654
     25          6           0        2.892516    1.061591   -0.551428
     26          6           0        2.073529    1.842149    0.477151
     27          6           0        1.061963    2.789600   -0.168498
     28          1           0        3.418563    1.770741   -1.205475
     29          1           0        2.210922    0.489093   -1.195337
     30          1           0        2.757164    2.412705    1.118809
     31          1           0        1.550275    1.131730    1.129936
     32          1           0        0.356997    2.232412   -0.793929
     33          1           0        1.570743    3.520665   -0.805120
     34          1           0        0.487417    3.337462    0.584898
 ---------------------------------------------------------------------

 SCF Done:  E(RHF) =  -669.536553553     A.U. after   15 cycles
 E2 =    -0.2091540390D+01 EUMP2 =    -0.67162809394316D+03

 The electronic state is 1-A.
 Alpha  occ. eigenvalues --  -20.61014 -20.61004 -15.86029 -11.31313 -11.27871
 Alpha  occ. eigenvalues --  -11.27863 -11.27600 -11.26868 -11.26855 -11.20878
 Alpha  occ. eigenvalues --  -11.20604 -11.20561 -11.20514 -11.20476 -11.20398
 Alpha  occ. eigenvalues --   -1.60065  -1.39622  -1.19476  -1.08888  -1.07600
 Alpha  occ. eigenvalues --   -1.04864  -1.02766  -0.95736  -0.95262  -0.86292
 Alpha  occ. eigenvalues --   -0.86258  -0.82571  -0.78816  -0.77631  -0.77396
 Alpha  occ. eigenvalues --   -0.72254  -0.71379  -0.70582  -0.65132  -0.64866
 Alpha  occ. eigenvalues --   -0.64215  -0.62211  -0.60155  -0.58628  -0.56861
 Alpha  occ. eigenvalues --   -0.55372  -0.54561  -0.53199  -0.52955  -0.51983
 Alpha  occ. eigenvalues --   -0.51689  -0.49226  -0.49015  -0.48998  -0.47154
 Alpha  occ. eigenvalues --   -0.45879  -0.45153  -0.44969  -0.44595  -0.43016
 Alpha  occ. eigenvalues --   -0.37450  -0.36459
 Alpha virt. eigenvalues --    0.04857   0.11170   0.16338   0.21250   0.23609
 Alpha virt. eigenvalues --    0.24791   0.27181   0.27440   0.27972   0.28560
 Alpha virt. eigenvalues --    0.28790   0.30931   0.31883   0.32056   0.32694

 Mulliken charges:
               1
     1  C   -0.170437
     2  C   -0.218550
     3  C   -0.169875
     4  C    0.157707
     5  C   -0.170898
     6  C   -0.218585
     7  H    0.226160
     8  H    0.224202
     9  H    0.276576
    10  H    0.275693
    11  H    0.223878
    12  N    0.488108
    13  O   -0.459223
    14  O   -0.459428
    15  C   -0.300284
    16  C   -0.298912
    17  C   -0.475767
    18  H    0.147174
    19  H    0.160242
    20  H    0.148472
    21  H    0.151709
    22  H    0.158187
    23  H    0.153657
    24  H    0.157334
    25  C   -0.296552
    26  C   -0.311596
    27  C   -0.473541
    28  H    0.144416
    29  H    0.147183
    30  H    0.148230
    31  H    0.178336
    32  H    0.149083
    33  H    0.151572
    34  H    0.155727
 Sum of Mulliken charges =  -0.00000

 Dipole moment (field-independent basis, Debye):
    X=             -4.3460    Y=              1.4736    Z=             -2.5623  Tot=              5.2559
 Quadrupole moment (field-independent basis, Debye-Ang):
   XX=            -75.5793   YY=            -93.4512   ZZ=            -95.8856
   XY=             -1.0708   XZ=              5.7942   YZ=              4.8611

 Normal termination of Gaussian 16 at Wed May  5 23:46:12 2021.
