 Gaussian 16, Revision A.03,
 Gaussian 16:  EM64L-G16RevA.03 25-Dec-2016

 -------------
 #p 6-31g* mp2
 -------------

 ------------------------------------------------------
 Input file generated by CHIRIPA (05-May-2021 14:51:10)
 ------------------------------------------------------
 Symbolic Z-matrix:
 Charge =  0 Multiplicity = 1

                         Standard orientation:
 ---------------------------------------------------------------------
 Center     Atomic      Atomic             Coordinates (Angstroms)
 Number     Number       Type             X           Y           Z
 ---------------------------------------------------------------------
      1          6           0        4.546911   -0.174442   -0.456417
      2          6           0        5.931502    0.063697    0.147060
      3          6           0        6.963273    0.498787   -0.894063
      4          1           0        4.622697   -0.939209   -1.241485
      5          1           0        4.206011    0.746629   -0.949175
      6          1           0        6.269096   -0.857131    0.639728
      7          1           0        5.852378    0.827848    0.930915
      8          1           0        6.652535    1.430071   -1.378577
      9          1           0        7.071620   -0.264483   -1.671418
     10          1           0        7.945871    0.663509   -0.441042
     11          6           0        3.504570   -0.609946    0.571974
     12          6           0        2.119980   -0.848085   -0.031503
     13          6           0        1.088208   -1.283175    1.009621
     14          1           0        3.845470   -1.531017    1.064733
     15          1           0        3.428785    0.154821    1.357043
     16          1           0        2.199104   -1.612237   -0.815357
     17          1           0        1.782386    0.072743   -0.524171
     18          1           0        0.979861   -0.519905    1.786976
     19          1           0        1.398947   -2.214459    1.494135
     20          1           0        0.105610   -1.447897    0.556599
     21          6           0       -3.568597    0.871404    0.322759
     22          6           0       -2.135999    0.895265   -0.211169
     23          6           0       -1.233548    1.858657    0.560356
     24          1           0       -3.987642    1.885863    0.275643
     25          1           0       -3.552108    0.589033    1.384545
     26          1           0       -2.155297    1.176162   -1.271990
     27          1           0       -1.720382   -0.119404   -0.162955
     28          1           0       -1.184545    1.577668    1.617354
     29          1           0       -1.621931    2.880595    0.502018
     30          1           0       -0.214139    1.859890    0.162028
     31          6           0       -4.482884   -0.087016   -0.438317
     32          6           0       -5.915483   -0.110877    0.095611
     33          6           0       -6.817934   -1.074269   -0.675914
     34          1           0       -4.499373    0.195356   -1.500103
     35          1           0       -4.063840   -1.101475   -0.391201
     36          1           0       -6.331100    0.903792    0.047398
     37          1           0       -5.896185   -0.391774    1.156432
     38          1           0       -6.429551   -2.096206   -0.617576
     39          1           0       -6.866937   -0.793280   -1.732911
     40          1           0       -7.837342   -1.075502   -0.277586
 ---------------------------------------------------------------------

 SCF Done:  E(RHF) =  -470.732911897     A.U. after   11 cycles
 E2 =    -0.1583289743D+01 EUMP2 =    -0.47231620163988D+03

 The electronic state is 1-A.
 Alpha  occ. eigenvalues --  -11.21606 -11.21600 -11.21594 -11.21565 -11.21405
 Alpha  occ. eigenvalues --  -11.21393 -11.21346 -11.21333 -11.21070 -11.21065
 Alpha  occ. eigenvalues --  -11.21056 -11.21042  -1.08443  -1.08405  -1.03578
 Alpha  occ. eigenvalues --   -1.03468  -0.96040  -0.95906  -0.87008  -0.86974
 Alpha  occ. eigenvalues --   -0.79620  -0.79558  -0.78243  -0.78233  -0.65114
 Alpha  occ. eigenvalues --   -0.65015  -0.61107  -0.60819  -0.59479  -0.59190
 Alpha  occ. eigenvalues --   -0.57717  -0.57431  -0.55414  -0.55087  -0.52693
 Alpha  occ. eigenvalues --   -0.52645  -0.52413  -0.52391  -0.49996  -0.49819
 Alpha  occ. eigenvalues --   -0.48024  -0.47811  -0.46632  -0.46576  -0.45793
 Alpha  occ. eigenvalues --   -0.45767  -0.45705  -0.45683  -0.43816  -0.43701
 Alpha virt. eigenvalues --    0.20568   0.23035   0.23519   0.25480   0.25799
 Alpha virt. eigenvalues --    0.26417   0.26681   0.27487   0.27681   0.29274
 Alpha virt. eigenvalues --    0.30238   0.30525   0.30981   0.32108   0.32584

 Mulliken charges:
               1
     1  C   -0.298269
     2  C   -0.299671
     3  C   -0.475713
     4  H    0.149659
     5  H    0.149404
     6  H    0.151926
     7  H    0.152020
     8  H    0.155199
     9  H    0.155165
    10  H    0.160264
    11  C   -0.298431
    12  C   -0.302307
    13  C   -0.479613
    14  H    0.149594
    15  H    0.149884
    16  H    0.151963
    17  H    0.153939
    18  H    0.156996
    19  H    0.154547
    20  H    0.163593
    21  C   -0.297976
    22  C   -0.305078
    23  C   -0.477203
    24  H    0.149528
    25  H    0.149677
    26  H    0.151648
    27  H    0.157335
    28  H    0.155621
    29  H    0.154611
    30  H    0.161942
    31  C   -0.298265
    32  C   -0.299648
    33  C   -0.475716
    34  H    0.149510
    35  H    0.149355
    36  H    0.151935
    37  H    0.152002
    38  H    0.155182
    39  H    0.155150
    40  H    0.160241
 Sum of Mulliken charges =  -0.00000

 Dipole moment (field-independent basis, Debye):
    X=              0.0049    Y=             -0.0031    Z=              0.0076  Tot=              0.0096
 Quadrupole moment (field-independent basis, Debye-Ang):
   XX=            -86.0643   YY=            -83.8112   ZZ=            -84.9616
   XY=             -1.1910   XZ=              0.2984   YZ=             -0.4082

 Normal termination of Gaussian 16 at Thu May  6 03:47:49 2021.
