 Gaussian 16, Revision A.03,
 Gaussian 16:  EM64L-G16RevA.03 25-Dec-2016

 -------------
 #p 6-31g* mp2
 -------------

 ------------------------------------------------------
 Input file generated by CHIRIPA (05-May-2021 14:51:10)
 ------------------------------------------------------
 Symbolic Z-matrix:
 Charge =  0 Multiplicity = 1

                         Standard orientation:
 ---------------------------------------------------------------------
 Center     Atomic      Atomic             Coordinates (Angstroms)
 Number     Number       Type             X           Y           Z
 ---------------------------------------------------------------------
      1          6           0       -4.112895   -0.700951    0.288237
      2          6           0       -5.275084   -0.834371   -0.696396
      3          6           0       -5.902879   -2.228475   -0.684493
      4          1           0       -3.347752   -1.451278    0.046348
      5          1           0       -4.470558   -0.934399    1.300647
      6          1           0       -4.915655   -0.599395   -1.706451
      7          1           0       -6.037463   -0.083512   -0.452254
      8          1           0       -6.288248   -2.468939    0.311634
      9          1           0       -5.160066   -2.987752   -0.949690
     10          1           0       -6.731602   -2.301663   -1.395634
     11          6           0       -3.474930    0.687116    0.287914
     12          6           0       -2.312741    0.820536    1.272547
     13          6           0       -1.684946    2.214640    1.260644
     14          1           0       -3.117267    0.920564   -0.724496
     15          1           0       -4.240072    1.437443    0.529803
     16          1           0       -1.550362    0.069678    1.028405
     17          1           0       -2.672170    0.585560    2.282602
     18          1           0       -2.427758    2.973917    1.525841
     19          1           0       -1.299576    2.455104    0.264517
     20          1           0       -0.856223    2.287828    1.971785
     21          6           0        4.519908   -0.224427   -0.234770
     22          6           0        4.676686   -1.571908    0.470709
     23          6           0        6.134792   -2.021287    0.569609
     24          1           0        4.953238   -0.292475   -1.242014
     25          1           0        5.102601    0.534456    0.305564
     26          1           0        4.092758   -2.327736   -0.070000
     27          1           0        4.242762   -1.500700    1.476321
     28          1           0        6.726724   -1.288575    1.127597
     29          1           0        6.575867   -2.120310   -0.427512
     30          1           0        6.223780   -2.986760    1.077351
     31          6           0        3.067916    0.238262   -0.341381
     32          6           0        2.911139    1.585743   -1.046860
     33          6           0        1.453033    2.035122   -1.145760
     34          1           0        2.485224   -0.520621   -0.881715
     35          1           0        2.634588    0.306310    0.665863
     36          1           0        3.345063    1.514536   -2.052471
     37          1           0        3.495067    2.341571   -0.506150
     38          1           0        1.011957    2.134145   -0.148640
     39          1           0        0.861101    1.302411   -1.703747
     40          1           0        1.364044    3.000596   -1.653501
 ---------------------------------------------------------------------

 SCF Done:  E(RHF) =  -470.732880327     A.U. after   11 cycles
 E2 =    -0.1582646296D+01 EUMP2 =    -0.47231552662343D+03

 The electronic state is 1-A.
 Alpha  occ. eigenvalues --  -11.21607 -11.21589 -11.21585 -11.21562 -11.21410
 Alpha  occ. eigenvalues --  -11.21378 -11.21351 -11.21318 -11.21075 -11.21060
 Alpha  occ. eigenvalues --  -11.21013 -11.20992  -1.08433  -1.08399  -1.03548
 Alpha  occ. eigenvalues --   -1.03480  -0.96031  -0.95904  -0.87078  -0.86896
 Alpha  occ. eigenvalues --   -0.79657  -0.79506  -0.78250  -0.78209  -0.65083
 Alpha  occ. eigenvalues --   -0.65016  -0.61039  -0.60814  -0.59363  -0.59307
 Alpha  occ. eigenvalues --   -0.57600  -0.57561  -0.55475  -0.55068  -0.52711
 Alpha  occ. eigenvalues --   -0.52660  -0.52444  -0.52289  -0.50119  -0.49676
 Alpha  occ. eigenvalues --   -0.47967  -0.47802  -0.46713  -0.46470  -0.45816
 Alpha  occ. eigenvalues --   -0.45725  -0.45713  -0.45636  -0.43782  -0.43756
 Alpha virt. eigenvalues --    0.21910   0.23025   0.23643   0.24898   0.26348
 Alpha virt. eigenvalues --    0.26521   0.27267   0.27419   0.27800   0.29121
 Alpha virt. eigenvalues --    0.30364   0.31315   0.31640   0.31891   0.32280

 Mulliken charges:
               1
     1  C   -0.298300
     2  C   -0.299636
     3  C   -0.475681
     4  H    0.149596
     5  H    0.149455
     6  H    0.151882
     7  H    0.151929
     8  H    0.155163
     9  H    0.155108
    10  H    0.160192
    11  C   -0.298576
    12  C   -0.299907
    13  C   -0.480770
    14  H    0.149959
    15  H    0.149566
    16  H    0.152494
    17  H    0.151627
    18  H    0.154891
    19  H    0.163015
    20  H    0.158255
    21  C   -0.298257
    22  C   -0.299647
    23  C   -0.475707
    24  H    0.149684
    25  H    0.149589
    26  H    0.151820
    27  H    0.151959
    28  H    0.155216
    29  H    0.155179
    30  H    0.160264
    31  C   -0.298251
    32  C   -0.299969
    33  C   -0.481559
    34  H    0.149095
    35  H    0.149550
    36  H    0.151621
    37  H    0.151944
    38  H    0.163714
    39  H    0.153615
    40  H    0.159879
 Sum of Mulliken charges =  -0.00000

 Dipole moment (field-independent basis, Debye):
    X=             -0.0013    Y=              0.0162    Z=              0.0011  Tot=              0.0162
 Quadrupole moment (field-independent basis, Debye-Ang):
   XX=            -85.7626   YY=            -85.5820   ZZ=            -83.5479
   XY=             -0.2428   XZ=             -0.5467   YZ=              0.6278

 Normal termination of Gaussian 16 at Wed May  5 19:45:58 2021.
