 Gaussian 16, Revision A.03,
 Gaussian 16:  EM64L-G16RevA.03 25-Dec-2016

 -------------
 #p 6-31g* mp2
 -------------

 ------------------------------------------------------
 Input file generated by CHIRIPA (05-May-2021 14:53:15)
 ------------------------------------------------------
 Symbolic Z-matrix:
 Charge =  0 Multiplicity = 1

                         Standard orientation:
 ---------------------------------------------------------------------
 Center     Atomic      Atomic             Coordinates (Angstroms)
 Number     Number       Type             X           Y           Z
 ---------------------------------------------------------------------
      1          6           0       -3.877154    0.033262   -0.189480
      2          6           0       -4.068788   -1.265609    0.594227
      3          6           0       -5.059903   -2.218724   -0.074397
      4          1           0       -4.849131    0.532717   -0.302400
      5          1           0       -3.529282   -0.206608   -1.203799
      6          1           0       -4.414870   -1.023289    1.607205
      7          1           0       -3.096212   -1.761934    0.705460
      8          1           0       -4.716740   -2.489396   -1.078178
      9          1           0       -6.042891   -1.746554   -0.171309
     10          1           0       -5.181813   -3.140734    0.502573
     11          6           0       -2.889200    0.996373    0.466334
     12          6           0       -2.697566    2.295243   -0.317373
     13          6           0       -1.706451    3.248358    0.351251
     14          1           0       -3.237072    1.236243    1.480653
     15          1           0       -1.917223    0.496918    0.579254
     16          1           0       -3.670142    2.791569   -0.428606
     17          1           0       -2.351484    2.052924   -1.330351
     18          1           0       -0.723463    2.776189    0.448163
     19          1           0       -2.049614    3.519031    1.355032
     20          1           0       -1.584541    4.170369   -0.225719
     21          6           0        0.312223   -1.280649   -0.509685
     22          6           0        0.596965    0.072041   -0.723396
     23          6           0        1.884887    0.569765   -0.504130
     24          6           0        2.868449   -0.317276   -0.069327
     25          6           0        2.615931   -1.670162    0.152539
     26          6           0        1.320837   -2.145907   -0.073169
     27          1           0       -0.691051   -1.658756   -0.682519
     28          1           0       -0.184364    0.746322   -1.062389
     29          1           0        2.132836    1.612413   -0.661689
     30          1           0        3.415600   -2.317991    0.490569
     31          1           0        1.102586   -3.196903    0.093627
     32          7           0        4.235710    0.198008    0.166211
     33          8           0        5.084666   -0.604014    0.549184
     34          8           0        4.432524    1.394154   -0.036610
 ---------------------------------------------------------------------

 SCF Done:  E(RHF) =  -669.534153403     A.U. after   15 cycles
 E2 =    -0.2094424730D+01 EUMP2 =    -0.67162857813357D+03

 The electronic state is 1-A.
 Alpha  occ. eigenvalues --  -20.60786 -20.60781 -15.85839 -11.31233 -11.27799
 Alpha  occ. eigenvalues --  -11.27787 -11.27531 -11.26819 -11.26763 -11.22656
 Alpha  occ. eigenvalues --  -11.22643 -11.22439 -11.22319 -11.21957 -11.21942
 Alpha  occ. eigenvalues --   -1.59861  -1.39414  -1.19408  -1.09495  -1.08790
 Alpha  occ. eigenvalues --   -1.04831  -1.04517  -0.96944  -0.95627  -0.87956
 Alpha  occ. eigenvalues --   -0.86217  -0.82459  -0.80582  -0.79278  -0.77508
 Alpha  occ. eigenvalues --   -0.72059  -0.71184  -0.70538  -0.66414  -0.65056
 Alpha  occ. eigenvalues --   -0.64652  -0.62438  -0.61608  -0.60295  -0.58541
 Alpha  occ. eigenvalues --   -0.56268  -0.55289  -0.53612  -0.53349  -0.53145
 Alpha  occ. eigenvalues --   -0.52877  -0.50901  -0.48897  -0.48812  -0.48786
 Alpha  occ. eigenvalues --   -0.47663  -0.46774  -0.46769  -0.44813  -0.44766
 Alpha  occ. eigenvalues --   -0.37347  -0.36379
 Alpha virt. eigenvalues --    0.04980   0.11094   0.16313   0.18281   0.21947
 Alpha virt. eigenvalues --    0.23661   0.25411   0.26177   0.26424   0.28092
 Alpha virt. eigenvalues --    0.29699   0.30715   0.30801   0.31208   0.32332

 Mulliken charges:
               1
     1  C   -0.299556
     2  C   -0.301543
     3  C   -0.476126
     4  H    0.155051
     5  H    0.143788
     6  H    0.157304
     7  H    0.145239
     8  H    0.153556
     9  H    0.158961
    10  H    0.162749
    11  C   -0.308263
    12  C   -0.306288
    13  C   -0.478831
    14  H    0.155682
    15  H    0.151740
    16  H    0.159227
    17  H    0.144664
    18  H    0.152497
    19  H    0.161314
    20  H    0.164355
    21  C   -0.176247
    22  C   -0.223113
    23  C   -0.174907
    24  C    0.158742
    25  C   -0.170665
    26  C   -0.219304
    27  H    0.230833
    28  H    0.235064
    29  H    0.276621
    30  H    0.275861
    31  H    0.223856
    32  N    0.488079
    33  O   -0.460330
    34  O   -0.460012
 Sum of Mulliken charges =  -0.00000

 Dipole moment (field-independent basis, Debye):
    X=             -4.9705    Y=             -1.7510    Z=             -0.7241  Tot=              5.3195
 Quadrupole moment (field-independent basis, Debye-Ang):
   XX=           -121.4629   YY=            -89.5206   ZZ=            -94.9370
   XY=             -6.3800   XZ=             -2.5975   YZ=             -0.9655

 Normal termination of Gaussian 16 at Thu May  6 12:10:26 2021.
