 Gaussian 16, Revision A.03,
 Gaussian 16:  EM64L-G16RevA.03 25-Dec-2016

 -------------
 #p 6-31g* mp2
 -------------

 ------------------------------------------------------
 Input file generated by CHIRIPA (05-May-2021 14:51:07)
 ------------------------------------------------------
 Symbolic Z-matrix:
 Charge =  0 Multiplicity = 1

                         Standard orientation:
 ---------------------------------------------------------------------
 Center     Atomic      Atomic             Coordinates (Angstroms)
 Number     Number       Type             X           Y           Z
 ---------------------------------------------------------------------
      1          6           0        3.364336   -0.249151   -0.034238
      2          6           0        4.138285   -1.057378   -1.076234
      3          6           0        4.560600   -2.434048   -0.562207
      4          1           0        3.985026   -0.131939    0.864623
      5          1           0        2.474312   -0.816006    0.272239
      6          1           0        5.025847   -0.488557   -1.381673
      7          1           0        3.515754   -1.172515   -1.972790
      8          1           0        3.683914   -3.023721   -0.275312
      9          1           0        5.202588   -2.335877    0.319164
     10          1           0        5.112410   -2.994762   -1.323105
     11          6           0        2.935271    1.129469   -0.533276
     12          6           0        2.161322    1.937696    0.508720
     13          6           0        1.739007    3.314367   -0.005307
     14          1           0        3.825295    1.696324   -0.839753
     15          1           0        2.314581    1.012257   -1.432137
     16          1           0        2.783853    2.052834    1.405277
     17          1           0        1.273760    1.368876    0.814159
     18          1           0        1.097019    3.216196   -0.886678
     19          1           0        2.615693    3.904040   -0.292202
     20          1           0        1.187197    3.875081    0.755591
     21          6           0       -2.517433   -0.849543    0.410026
     22          6           0       -1.678361   -0.325226    1.575803
     23          6           0       -0.416556   -1.154647    1.816015
     24          1           0       -2.795457   -1.893934    0.607246
     25          1           0       -1.903043   -0.856328   -0.500948
     26          1           0       -2.294567   -0.318130    2.484019
     27          1           0       -1.402464    0.718098    1.375873
     28          1           0        0.221265   -1.152188    0.926196
     29          1           0       -0.675906   -2.194303    2.040637
     30          1           0        0.168336   -0.762297    2.653764
     31          6           0       -3.782174   -0.030775    0.157488
     32          6           0       -4.621246   -0.555093   -1.008288
     33          6           0       -5.883051    0.274329   -1.248502
     34          1           0       -4.396564   -0.023990    1.068462
     35          1           0       -3.504150    1.013616   -0.039732
     36          1           0       -4.897143   -1.598417   -0.808359
     37          1           0       -4.005040   -0.562189   -1.916504
     38          1           0       -5.623700    1.313984   -1.473124
     39          1           0       -6.520872    0.271869   -0.358682
     40          1           0       -6.467943   -0.118021   -2.086251
 ---------------------------------------------------------------------

 SCF Done:  E(RHF) =  -470.732906464     A.U. after   11 cycles
 E2 =    -0.1583606298D+01 EUMP2 =    -0.47231651276158D+03

 The electronic state is 1-A.
 Alpha  occ. eigenvalues --  -11.21662 -11.21633 -11.21577 -11.21567 -11.21453
 Alpha  occ. eigenvalues --  -11.21391 -11.21379 -11.21305 -11.21116 -11.21094
 Alpha  occ. eigenvalues --  -11.21077 -11.21044  -1.08485  -1.08405  -1.03585
 Alpha  occ. eigenvalues --   -1.03506  -0.96034  -0.95960  -0.87048  -0.86978
 Alpha  occ. eigenvalues --   -0.79652  -0.79569  -0.78298  -0.78214  -0.65253
 Alpha  occ. eigenvalues --   -0.64940  -0.61073  -0.60823  -0.59410  -0.59307
 Alpha  occ. eigenvalues --   -0.57676  -0.57539  -0.55403  -0.55196  -0.52734
 Alpha  occ. eigenvalues --   -0.52642  -0.52492  -0.52351  -0.50044  -0.49871
 Alpha  occ. eigenvalues --   -0.47983  -0.47888  -0.46779  -0.46555  -0.45916
 Alpha  occ. eigenvalues --   -0.45759  -0.45741  -0.45432  -0.43826  -0.43761
 Alpha virt. eigenvalues --    0.20466   0.23103   0.23719   0.24577   0.25955
 Alpha virt. eigenvalues --    0.26768   0.27026   0.27312   0.28145   0.29372
 Alpha virt. eigenvalues --    0.30776   0.31513   0.31833   0.31843   0.32246

 Mulliken charges:
               1
     1  C   -0.306023
     2  C   -0.299098
     3  C   -0.475707
     4  H    0.149649
     5  H    0.157253
     6  H    0.151811
     7  H    0.151366
     8  H    0.155402
     9  H    0.155225
    10  H    0.160079
    11  C   -0.297592
    12  C   -0.307375
    13  C   -0.475452
    14  H    0.149568
    15  H    0.148506
    16  H    0.151863
    17  H    0.160490
    18  H    0.154460
    19  H    0.155328
    20  H    0.160028
    21  C   -0.298236
    22  C   -0.302866
    23  C   -0.481499
    24  H    0.149915
    25  H    0.149043
    26  H    0.152569
    27  H    0.153964
    28  H    0.159298
    29  H    0.155790
    30  H    0.161754
    31  C   -0.298422
    32  C   -0.299684
    33  C   -0.475749
    34  H    0.149724
    35  H    0.149864
    36  H    0.152007
    37  H    0.151846
    38  H    0.155286
    39  H    0.155264
    40  H    0.160350
 Sum of Mulliken charges =  -0.00000

 Dipole moment (field-independent basis, Debye):
    X=             -0.0272    Y=             -0.0178    Z=              0.0312  Tot=              0.0451
 Quadrupole moment (field-independent basis, Debye-Ang):
   XX=            -84.8026   YY=            -85.6142   ZZ=            -84.3765
   XY=              1.5077   XZ=             -0.3536   YZ=              0.1165

 Normal termination of Gaussian 16 at Wed May  5 21:15:58 2021.
