 Gaussian 16, Revision A.03,
 Gaussian 16:  EM64L-G16RevA.03 25-Dec-2016

 -------------
 #p 6-31g* mp2
 -------------

 ------------------------------------------------------
 Input file generated by CHIRIPA (05-May-2021 14:53:18)
 ------------------------------------------------------
 Symbolic Z-matrix:
 Charge =  0 Multiplicity = 1

                         Standard orientation:
 ---------------------------------------------------------------------
 Center     Atomic      Atomic             Coordinates (Angstroms)
 Number     Number       Type             X           Y           Z
 ---------------------------------------------------------------------
      1          6           0       -3.147611   -0.622869   -0.381948
      2          6           0       -2.277219   -1.793542   -0.840128
      3          6           0       -3.099011   -3.014633   -1.254117
      4          1           0       -3.774128   -0.947593    0.460058
      5          1           0       -3.834250   -0.345786   -1.193827
      6          1           0       -1.591477   -2.067435   -0.028120
      7          1           0       -1.652563   -1.465939   -1.681018
      8          1           0       -3.772128   -2.763884   -2.080337
      9          1           0       -3.710695   -3.368797   -0.418047
     10          1           0       -2.456908   -3.839631   -1.578067
     11          6           0       -2.340477    0.605259    0.035143
     12          6           0       -3.210868    1.775932    0.493322
     13          6           0       -2.389076    2.997023    0.907311
     14          1           0       -1.653837    0.328176    0.847021
     15          1           0       -1.713960    0.929983   -0.806864
     16          1           0       -3.835525    1.448328    1.334213
     17          1           0       -3.896611    2.049824   -0.318685
     18          1           0       -1.777392    3.351187    0.071242
     19          1           0       -1.715960    2.746274    1.733531
     20          1           0       -3.031179    3.822021    1.231261
     21          6           0        2.622392    1.361872   -1.938379
     22          6           0        1.601587    1.753943   -1.066163
     23          6           0        1.327598    1.010772    0.085868
     24          6           0        2.097514   -0.124117    0.335963
     25          6           0        3.121238   -0.540447   -0.513714
     26          6           0        3.377627    0.217945   -1.659861
     27          1           0        2.828397    1.945097   -2.831019
     28          1           0        1.013448    2.641885   -1.279930
     29          1           0        0.543212    1.291624    0.778166
     30          1           0        3.690513   -1.430301   -0.273918
     31          1           0        4.171014   -0.088919   -2.335448
     32          7           0        1.816770   -0.918936    1.552452
     33          8           0        2.509429   -1.914796    1.750243
     34          8           0        0.909380   -0.531003    2.285111
 ---------------------------------------------------------------------

 SCF Done:  E(RHF) =  -669.535502236     A.U. after   15 cycles
 E2 =    -0.2093789740D+01 EUMP2 =    -0.67162929197527D+03

 The electronic state is 1-A.
 Alpha  occ. eigenvalues --  -20.60866 -20.60861 -15.85893 -11.31139 -11.27743
 Alpha  occ. eigenvalues --  -11.27662 -11.27480 -11.26725 -11.26700 -11.21780
 Alpha  occ. eigenvalues --  -11.21554 -11.21416 -11.21398 -11.21285 -11.20882
 Alpha  occ. eigenvalues --   -1.59923  -1.39482  -1.19330  -1.08748  -1.08454
 Alpha  occ. eigenvalues --   -1.04720  -1.03587  -0.96059  -0.95595  -0.87083
 Alpha  occ. eigenvalues --   -0.86128  -0.82435  -0.79672  -0.78349  -0.77416
 Alpha  occ. eigenvalues --   -0.72116  -0.71231  -0.70447  -0.65137  -0.64952
 Alpha  occ. eigenvalues --   -0.64694  -0.62092  -0.60970  -0.59428  -0.57671
 Alpha  occ. eigenvalues --   -0.55356  -0.55238  -0.53095  -0.52864  -0.52720
 Alpha  occ. eigenvalues --   -0.52463  -0.50009  -0.48888  -0.48866  -0.47962
 Alpha  occ. eigenvalues --   -0.46660  -0.45813  -0.45706  -0.44802  -0.43812
 Alpha  occ. eigenvalues --   -0.37317  -0.36270
 Alpha virt. eigenvalues --    0.05010   0.11303   0.16417   0.19871   0.23121
 Alpha virt. eigenvalues --    0.23827   0.25135   0.26375   0.27770   0.28059
 Alpha virt. eigenvalues --    0.29330   0.30442   0.31527   0.31794   0.32632

 Mulliken charges:
               1
     1  C   -0.296604
     2  C   -0.302583
     3  C   -0.475659
     4  H    0.153041
     5  H    0.147260
     6  H    0.159688
     7  H    0.148682
     8  H    0.152955
     9  H    0.157151
    10  H    0.160669
    11  C   -0.314739
    12  C   -0.297708
    13  C   -0.481409
    14  H    0.166546
    15  H    0.143294
    16  H    0.156933
    17  H    0.151335
    18  H    0.144870
    19  H    0.159230
    20  H    0.164643
    21  C   -0.170274
    22  C   -0.224135
    23  C   -0.167694
    24  C    0.155802
    25  C   -0.170093
    26  C   -0.219381
    27  H    0.225448
    28  H    0.224285
    29  H    0.283794
    30  H    0.275257
    31  H    0.223144
    32  N    0.488637
    33  O   -0.459293
    34  O   -0.463090
 Sum of Mulliken charges =  -0.00000

 Dipole moment (field-independent basis, Debye):
    X=              0.9456    Y=              2.6969    Z=             -4.1473  Tot=              5.0366
 Quadrupole moment (field-independent basis, Debye-Ang):
   XX=            -88.2518   YY=            -94.7945   ZZ=            -97.2277
   XY=              2.7090   XZ=            -10.3543   YZ=              1.6942

 Normal termination of Gaussian 16 at Wed May  5 17:16:44 2021.
