 Gaussian 16, Revision A.03,
 Gaussian 16:  EM64L-G16RevA.03 25-Dec-2016

 -------------
 #p 6-31g* mp2
 -------------

 ------------------------------------------------------
 Input file generated by CHIRIPA (05-May-2021 14:51:10)
 ------------------------------------------------------
 Symbolic Z-matrix:
 Charge =  0 Multiplicity = 1

                         Standard orientation:
 ---------------------------------------------------------------------
 Center     Atomic      Atomic             Coordinates (Angstroms)
 Number     Number       Type             X           Y           Z
 ---------------------------------------------------------------------
      1          6           0        2.261440   -0.737389    0.963878
      2          6           0        0.738069   -0.799924    0.848054
      3          6           0        0.073991   -1.385717    2.094506
      4          1           0        2.650627   -1.748173    1.147715
      5          1           0        2.530985   -0.134190    1.841882
      6          1           0        0.471491   -1.401678   -0.030266
      7          1           0        0.352479    0.211097    0.664280
      8          1           0        0.310928   -0.782419    2.976828
      9          1           0        0.430617   -2.404357    2.278336
     10          1           0       -1.014917   -1.421143    1.990180
     11          6           0        2.939714   -0.154058   -0.274426
     12          6           0        4.463085   -0.091523   -0.158601
     13          6           0        5.127162    0.494270   -1.405053
     14          1           0        2.670168   -0.757258   -1.152429
     15          1           0        2.550527    0.856725   -0.458263
     16          1           0        4.848675   -1.102544    0.025172
     17          1           0        4.729662    0.510230    0.719718
     18          1           0        4.770537    1.512909   -1.588883
     19          1           0        4.890225   -0.109029   -2.287375
     20          1           0        6.216070    0.529696   -1.300727
     21          6           0       -2.632866    1.053225    0.117152
     22          6           0       -1.833363    2.250223   -0.398578
     23          6           0       -1.907697    3.457808    0.536305
     24          1           0       -3.681811    1.351177    0.250890
     25          1           0       -2.258614    0.772063    1.111273
     26          1           0       -2.208094    2.528173   -1.392025
     27          1           0       -0.786239    1.949335   -0.531286
     28          1           0       -1.514936    3.203490    1.526083
     29          1           0       -2.944871    3.785618    0.660453
     30          1           0       -1.329190    4.302037    0.148404
     31          6           0       -2.568287   -0.161778   -0.806604
     32          6           0       -3.367790   -1.358775   -0.290874
     33          6           0       -3.293456   -2.566361   -1.225757
     34          1           0       -2.942539    0.119384   -1.800726
     35          1           0       -1.519343   -0.459728   -0.940342
     36          1           0       -4.414915   -1.057886   -0.158166
     37          1           0       -2.993059   -1.636726    0.702573
     38          1           0       -2.256282   -2.894169   -1.349906
     39          1           0       -3.686217   -2.312042   -2.215536
     40          1           0       -3.871963   -3.410589   -0.837856
 ---------------------------------------------------------------------

 SCF Done:  E(RHF) =  -470.731089934     A.U. after   11 cycles
 E2 =    -0.1586248199D+01 EUMP2 =    -0.47231733813373D+03

 The electronic state is 1-A.
 Alpha  occ. eigenvalues --  -11.21680 -11.21648 -11.21589 -11.21559 -11.21473
 Alpha  occ. eigenvalues --  -11.21414 -11.21331 -11.21212 -11.21158 -11.21103
 Alpha  occ. eigenvalues --  -11.21085 -11.21061  -1.08564  -1.08347  -1.03615
 Alpha  occ. eigenvalues --   -1.03515  -0.96082  -0.95932  -0.87079  -0.86974
 Alpha  occ. eigenvalues --   -0.79754  -0.79567  -0.78439  -0.78080  -0.65310
 Alpha  occ. eigenvalues --   -0.65011  -0.61261  -0.60716  -0.59413  -0.59278
 Alpha  occ. eigenvalues --   -0.57656  -0.57562  -0.55369  -0.55178  -0.52791
 Alpha  occ. eigenvalues --   -0.52670  -0.52469  -0.52382  -0.50047  -0.49872
 Alpha  occ. eigenvalues --   -0.48177  -0.47915  -0.46860  -0.46475  -0.46238
 Alpha  occ. eigenvalues --   -0.45762  -0.45638  -0.45137  -0.43780  -0.43744
 Alpha virt. eigenvalues --    0.20104   0.22518   0.23326   0.24862   0.25224
 Alpha virt. eigenvalues --    0.26225   0.26668   0.27817   0.28797   0.29667
 Alpha virt. eigenvalues --    0.30231   0.30697   0.31643   0.31997   0.32404

 Mulliken charges:
               1
     1  C   -0.296905
     2  C   -0.309770
     3  C   -0.482594
     4  H    0.149846
     5  H    0.149612
     6  H    0.153035
     7  H    0.160894
     8  H    0.155384
     9  H    0.155857
    10  H    0.166614
    11  C   -0.298894
    12  C   -0.299667
    13  C   -0.475788
    14  H    0.149521
    15  H    0.149434
    16  H    0.152167
    17  H    0.152102
    18  H    0.155332
    19  H    0.155304
    20  H    0.160436
    21  C   -0.302349
    22  C   -0.303792
    23  C   -0.475775
    24  H    0.150099
    25  H    0.152241
    26  H    0.152595
    27  H    0.154099
    28  H    0.154693
    29  H    0.155604
    30  H    0.160013
    31  C   -0.304579
    32  C   -0.304390
    33  C   -0.475560
    34  H    0.149095
    35  H    0.159067
    36  H    0.151979
    37  H    0.154988
    38  H    0.154540
    39  H    0.155354
    40  H    0.160156
 Sum of Mulliken charges =  -0.00000

 Dipole moment (field-independent basis, Debye):
    X=              0.0424    Y=             -0.0091    Z=              0.0055  Tot=              0.0437
 Quadrupole moment (field-independent basis, Debye-Ang):
   XX=            -84.5950   YY=            -84.9179   ZZ=            -85.4018
   XY=             -0.6415   XZ=              0.8346   YZ=             -0.0060

 Normal termination of Gaussian 16 at Wed May  5 15:11:28 2021.
