 Gaussian 16, Revision A.03,
 Gaussian 16:  EM64L-G16RevA.03 25-Dec-2016

 -------------
 #p 6-31g* mp2
 -------------

 ------------------------------------------------------
 Input file generated by CHIRIPA (05-May-2021 14:57:26)
 ------------------------------------------------------
 Symbolic Z-matrix:
 Charge =  0 Multiplicity = 1

                         Standard orientation:
 ---------------------------------------------------------------------
 Center     Atomic      Atomic             Coordinates (Angstroms)
 Number     Number       Type             X           Y           Z
 ---------------------------------------------------------------------
      1          6           0       -2.606891    1.817151   -0.812198
      2          6           0       -2.195401    0.489956   -0.651729
      3          6           0       -3.109106   -0.494811   -0.264528
      4          6           0       -4.432475   -0.115515   -0.045169
      5          6           0       -4.873072    1.198334   -0.196713
      6          6           0       -3.942059    2.166489   -0.584579
      7          1           0       -1.890381    2.575690   -1.113244
      8          1           0       -1.159130    0.215767   -0.827814
      9          1           0       -2.817562   -1.529753   -0.132942
     10          1           0       -5.912796    1.441212   -0.013947
     11          1           0       -4.264460    3.196423   -0.708431
     12          7           0       -5.408935   -1.149250    0.365095
     13          8           0       -6.569155   -0.789383    0.552242
     14          8           0       -4.995576   -2.299785    0.491746
     15          6           0        1.846321    0.460320    0.580563
     16          6           0        2.192230   -0.359818   -0.498437
     17          6           0        3.532770   -0.651981   -0.767031
     18          6           0        4.506004   -0.104662    0.067563
     19          6           0        4.193133    0.715856    1.150222
     20          6           0        2.846115    0.994599    1.400004
     21          1           0        0.802442    0.682067    0.781907
     22          1           0        1.417895   -0.776132   -1.136505
     23          1           0        3.828591   -1.283909   -1.595630
     24          1           0        4.987331    1.116237    1.768577
     25          1           0        2.580415    1.631843    2.238674
     26          7           0        5.928603   -0.406859   -0.206828
     27          8           0        6.767196    0.087674    0.543397
     28          8           0        6.178106   -1.132531   -1.166925
 ---------------------------------------------------------------------

 SCF Done:  E(RHF) =  -868.336473966     A.U. after   16 cycles
 E2 =    -0.2600059359D+01 EUMP2 =    -0.87093653332470D+03

 The electronic state is 1-A.
 Alpha  occ. eigenvalues --  -20.61433 -20.61425 -20.61244 -20.61238 -15.86495
 Alpha  occ. eigenvalues --  -15.86303 -11.32027 -11.31810 -11.28701 -11.28605
 Alpha  occ. eigenvalues --  -11.28451 -11.28425 -11.28375 -11.28242 -11.27828
 Alpha  occ. eigenvalues --  -11.27615 -11.27558 -11.27431  -1.60505  -1.60316
 Alpha  occ. eigenvalues --   -1.40053  -1.39865  -1.20244  -1.20014  -1.09609
 Alpha  occ. eigenvalues --   -1.09403  -1.05687  -1.05438  -0.96403  -0.96207
 Alpha  occ. eigenvalues --   -0.87092  -0.86842  -0.83246  -0.83029  -0.78267
 Alpha  occ. eigenvalues --   -0.78033  -0.72709  -0.72520  -0.71832  -0.71641
 Alpha  occ. eigenvalues --   -0.71346  -0.71176  -0.65902  -0.65870  -0.65649
 Alpha  occ. eigenvalues --   -0.65368  -0.63050  -0.62751  -0.56195  -0.55987
 Alpha  occ. eigenvalues --   -0.53980  -0.53808  -0.53749  -0.53523  -0.49482
 Alpha  occ. eigenvalues --   -0.49452  -0.49292  -0.49263  -0.45421  -0.45238
 Alpha  occ. eigenvalues --   -0.38233  -0.38031  -0.37290  -0.37034
 Alpha virt. eigenvalues --    0.04308   0.04503   0.10218   0.10593   0.15708
 Alpha virt. eigenvalues --    0.15938   0.17806   0.21983   0.24477   0.26784
 Alpha virt. eigenvalues --    0.27570   0.28809   0.29627   0.30773   0.31532

 Mulliken charges:
               1
     1  C   -0.172467
     2  C   -0.225978
     3  C   -0.170605
     4  C    0.159010
     5  C   -0.168886
     6  C   -0.218358
     7  H    0.227569
     8  H    0.217940
     9  H    0.277014
    10  H    0.278724
    11  H    0.226689
    12  N    0.488062
    13  O   -0.457892
    14  O   -0.458932
    15  C   -0.175209
    16  C   -0.221493
    17  C   -0.169379
    18  C    0.159040
    19  C   -0.169788
    20  C   -0.218345
    21  H    0.223006
    22  H    0.218249
    23  H    0.277815
    24  H    0.277889
    25  H    0.225747
    26  N    0.487931
    27  O   -0.458538
    28  O   -0.458816
 Sum of Mulliken charges =  -0.00000

 Dipole moment (field-independent basis, Debye):
    X=             -1.6505    Y=              4.7534    Z=             -0.4275  Tot=              5.0499
 Quadrupole moment (field-independent basis, Debye-Ang):
   XX=           -176.0163   YY=           -102.5391   ZZ=           -102.5604
   XY=            -13.5022   XZ=             11.5557   YZ=              2.6480

 Normal termination of Gaussian 16 at Fri May  7 09:40:27 2021.
