 Gaussian 16, Revision A.03,
 Gaussian 16:  EM64L-G16RevA.03 25-Dec-2016

 -------------
 #p 6-31g* mp2
 -------------

 ------------------------------------------------------
 Input file generated by CHIRIPA (05-May-2021 14:57:27)
 ------------------------------------------------------
 Symbolic Z-matrix:
 Charge =  0 Multiplicity = 1

                         Standard orientation:
 ---------------------------------------------------------------------
 Center     Atomic      Atomic             Coordinates (Angstroms)
 Number     Number       Type             X           Y           Z
 ---------------------------------------------------------------------
      1          6           0        2.317630    1.785170   -0.256559
      2          6           0        2.123244    0.439509    0.071970
      3          6           0        3.215254   -0.422293    0.211104
      4          6           0        4.493607    0.097461    0.013720
      5          6           0        4.719752    1.433317   -0.314359
      6          6           0        3.612980    2.276912   -0.448337
      7          1           0        1.463596    2.447567   -0.362639
      8          1           0        1.118390    0.054858    0.221491
      9          1           0        3.093421   -1.468346    0.464772
     10          1           0        5.733366    1.787696   -0.457259
     11          1           0        3.766946    3.321521   -0.703547
     12          7           0        5.657483   -0.805253    0.158285
     13          8           0        6.773645   -0.322815   -0.020803
     14          8           0        5.431529   -1.978147    0.447946
     15          6           0       -6.187232    1.417137    0.220344
     16          6           0       -4.870164    1.816736    0.469688
     17          6           0       -3.817599    0.903617    0.356248
     18          6           0       -4.119508   -0.407048   -0.010219
     19          6           0       -5.421278   -0.835617   -0.265195
     20          6           0       -6.458108    0.094567   -0.145657
     21          1           0       -6.998778    2.133097    0.310835
     22          1           0       -4.656836    2.843210    0.754096
     23          1           0       -2.788742    1.186117    0.543504
     24          1           0       -5.602720   -1.865721   -0.546943
     25          1           0       -7.479994   -0.218583   -0.339907
     26          7           0       -3.013534   -1.382759   -0.133540
     27          8           0       -3.305869   -2.531661   -0.457887
     28          8           0       -1.875277   -0.980144    0.096482
 ---------------------------------------------------------------------

 SCF Done:  E(RHF) =  -868.339257472     A.U. after   16 cycles
 E2 =    -0.2598482630D+01 EUMP2 =    -0.87093774010201D+03

 The electronic state is 1-A.
 Alpha  occ. eigenvalues --  -20.61680 -20.61618 -20.60200 -20.60186 -15.86703
 Alpha  occ. eigenvalues --  -15.85242 -11.31902 -11.30527 -11.28498 -11.28411
 Alpha  occ. eigenvalues --  -11.28139 -11.27443 -11.27390 -11.27116 -11.26974
 Alpha  occ. eigenvalues --  -11.26824 -11.26168 -11.25888  -1.60709  -1.59272
 Alpha  occ. eigenvalues --   -1.40274  -1.38827  -1.20052  -1.18677  -1.09471
 Alpha  occ. eigenvalues --   -1.08101  -1.05436  -1.04042  -0.96338  -0.94954
 Alpha  occ. eigenvalues --   -0.86840  -0.85451  -0.83185  -0.81765  -0.78255
 Alpha  occ. eigenvalues --   -0.76813  -0.72935  -0.72016  -0.71463  -0.71159
 Alpha  occ. eigenvalues --   -0.70593  -0.69823  -0.65713  -0.65435  -0.64324
 Alpha  occ. eigenvalues --   -0.64008  -0.62793  -0.61363  -0.55928  -0.54602
 Alpha  occ. eigenvalues --   -0.53765  -0.53528  -0.52412  -0.52100  -0.49696
 Alpha  occ. eigenvalues --   -0.49640  -0.48223  -0.48212  -0.45713  -0.44250
 Alpha  occ. eigenvalues --   -0.38011  -0.37030  -0.36690  -0.35641
 Alpha virt. eigenvalues --    0.04286   0.05677   0.10628   0.12001   0.15816
 Alpha virt. eigenvalues --    0.17193   0.20604   0.22109   0.26513   0.27137
 Alpha virt. eigenvalues --    0.28479   0.28876   0.30436   0.31457   0.32042

 Mulliken charges:
               1
     1  C   -0.172513
     2  C   -0.226821
     3  C   -0.172736
     4  C    0.158522
     5  C   -0.172864
     6  C   -0.218405
     7  H    0.219922
     8  H    0.246502
     9  H    0.278728
    10  H    0.273065
    11  H    0.219544
    12  N    0.487976
    13  O   -0.463023
    14  O   -0.459759
    15  C   -0.170076
    16  C   -0.218036
    17  C   -0.169818
    18  C    0.158571
    19  C   -0.170150
    20  C   -0.218222
    21  H    0.227854
    22  H    0.223863
    23  H    0.269188
    24  H    0.277511
    25  H    0.225993
    26  N    0.494544
    27  O   -0.454232
    28  O   -0.475128
 Sum of Mulliken charges =  -0.00000

 Dipole moment (field-independent basis, Debye):
    X=             -8.4955    Y=              6.4502    Z=             -0.0723  Tot=             10.6669
 Quadrupole moment (field-independent basis, Debye-Ang):
   XX=           -105.7360   YY=           -102.1997   ZZ=           -106.0063
   XY=              6.2464   XZ=             -3.7632   YZ=             -0.0147

 Normal termination of Gaussian 16 at Wed May  5 22:52:29 2021.
