 Gaussian 16, Revision A.03,
 Gaussian 16:  EM64L-G16RevA.03 25-Dec-2016

 -------------
 #p 6-31g* mp2
 -------------

 ------------------------------------------------------
 Input file generated by CHIRIPA (05-May-2021 14:51:09)
 ------------------------------------------------------
 Symbolic Z-matrix:
 Charge =  0 Multiplicity = 1

                         Standard orientation:
 ---------------------------------------------------------------------
 Center     Atomic      Atomic             Coordinates (Angstroms)
 Number     Number       Type             X           Y           Z
 ---------------------------------------------------------------------
      1          6           0       -3.843186   -0.065626    0.174645
      2          6           0       -5.194203   -0.367599   -0.474625
      3          6           0       -6.233690    0.722162   -0.210656
      4          1           0       -3.982850    0.055275    1.257614
      5          1           0       -3.470302    0.896990   -0.201815
      6          1           0       -5.563777   -1.330022   -0.098097
      7          1           0       -5.051276   -0.487986   -1.556149
      8          1           0       -5.890127    1.685178   -0.602020
      9          1           0       -6.405540    0.838357    0.864317
     10          1           0       -7.191918    0.486031   -0.683838
     11          6           0       -2.793564   -1.145917   -0.080292
     12          6           0       -1.442547   -0.843944    0.568978
     13          6           0       -0.403060   -1.933705    0.305009
     14          1           0       -3.166448   -2.108533    0.296168
     15          1           0       -2.653900   -1.266818   -1.163261
     16          1           0       -1.585474   -0.723558    1.650503
     17          1           0       -1.072973    0.118479    0.192450
     18          1           0       -0.231210   -2.049900   -0.769964
     19          1           0       -0.746623   -2.896721    0.696373
     20          1           0        0.555168   -1.697574    0.778191
     21          6           0        3.502267   -0.104418    0.165536
     22          6           0        4.749637   -0.643551   -0.535454
     23          6           0        5.104768   -2.065374   -0.099456
     24          1           0        3.661449   -0.127232    1.252314
     25          1           0        2.655976   -0.774284   -0.040540
     26          1           0        5.593007    0.027884   -0.329254
     27          1           0        4.587540   -0.619270   -1.620697
     28          1           0        4.281916   -2.752913   -0.320375
     29          1           0        5.293096   -2.102082    0.978406
     30          1           0        5.999523   -2.431041   -0.612838
     31          6           0        3.134484    1.315961   -0.259889
     32          6           0        1.887113    1.855094    0.441101
     33          6           0        1.531983    3.276917    0.005102
     34          1           0        3.980774    1.985828   -0.053812
     35          1           0        2.975301    1.338776   -1.346666
     36          1           0        2.049211    1.830814    1.526343
     37          1           0        1.043743    1.183659    0.234901
     38          1           0        1.343654    3.313626   -1.072759
     39          1           0        2.354834    3.964457    0.226022
     40          1           0        0.637228    3.642585    0.518485
 ---------------------------------------------------------------------

 SCF Done:  E(RHF) =  -470.732751442     A.U. after   11 cycles
 E2 =    -0.1583772008D+01 EUMP2 =    -0.47231652344981D+03

 The electronic state is 1-A.
 Alpha  occ. eigenvalues --  -11.21625 -11.21615 -11.21576 -11.21553 -11.21425
 Alpha  occ. eigenvalues --  -11.21372 -11.21365 -11.21308 -11.21094 -11.21080
 Alpha  occ. eigenvalues --  -11.21068 -11.21045  -1.08465  -1.08398  -1.03568
 Alpha  occ. eigenvalues --   -1.03499  -0.96014  -0.95955  -0.87036  -0.86966
 Alpha  occ. eigenvalues --   -0.79698  -0.79504  -0.78303  -0.78196  -0.65187
 Alpha  occ. eigenvalues --   -0.64969  -0.61066  -0.60811  -0.59411  -0.59300
 Alpha  occ. eigenvalues --   -0.57639  -0.57558  -0.55305  -0.55249  -0.52771
 Alpha  occ. eigenvalues --   -0.52632  -0.52444  -0.52342  -0.50012  -0.49855
 Alpha  occ. eigenvalues --   -0.48083  -0.47787  -0.46867  -0.46419  -0.45881
 Alpha  occ. eigenvalues --   -0.45774  -0.45737  -0.45446  -0.43782  -0.43740
 Alpha virt. eigenvalues --    0.21127   0.23179   0.23810   0.24157   0.26137
 Alpha virt. eigenvalues --    0.26714   0.26984   0.27182   0.28241   0.29535
 Alpha virt. eigenvalues --    0.30265   0.31447   0.31615   0.31846   0.32233

 Mulliken charges:
               1
     1  C   -0.298433
     2  C   -0.299649
     3  C   -0.475736
     4  H    0.149764
     5  H    0.149636
     6  H    0.151974
     7  H    0.151915
     8  H    0.155243
     9  H    0.155214
    10  H    0.160296
    11  C   -0.297702
    12  C   -0.304663
    13  C   -0.482142
    14  H    0.149659
    15  H    0.149421
    16  H    0.152532
    17  H    0.156100
    18  H    0.154049
    19  H    0.155769
    20  H    0.166974
    21  C   -0.305802
    22  C   -0.299044
    23  C   -0.475946
    24  H    0.148857
    25  H    0.157366
    26  H    0.151805
    27  H    0.151742
    28  H    0.155594
    29  H    0.155006
    30  H    0.160161
    31  C   -0.297031
    32  C   -0.309408
    33  C   -0.475495
    34  H    0.149400
    35  H    0.149054
    36  H    0.151682
    37  H    0.161712
    38  H    0.154577
    39  H    0.155378
    40  H    0.160171
 Sum of Mulliken charges =  -0.00000

 Dipole moment (field-independent basis, Debye):
    X=             -0.0234    Y=             -0.0162    Z=              0.0118  Tot=              0.0308
 Quadrupole moment (field-independent basis, Debye-Ang):
   XX=            -85.3591   YY=            -85.9931   ZZ=            -83.5351
   XY=              1.3165   XZ=              0.1753   YZ=             -0.0065

 Normal termination of Gaussian 16 at Thu May  6 03:43:12 2021.
