 Gaussian 16, Revision A.03,
 Gaussian 16:  EM64L-G16RevA.03 25-Dec-2016

 -------------
 #p 6-31g* mp2
 -------------

 ------------------------------------------------------
 Input file generated by CHIRIPA (05-May-2021 14:55:21)
 ------------------------------------------------------
 Symbolic Z-matrix:
 Charge =  0 Multiplicity = 1

                         Standard orientation:
 ---------------------------------------------------------------------
 Center     Atomic      Atomic             Coordinates (Angstroms)
 Number     Number       Type             X           Y           Z
 ---------------------------------------------------------------------
      1          6           0       -4.263859    1.978815    0.317725
      2          6           0       -2.913069    2.062245    0.671174
      3          6           0       -2.063143    0.966871    0.491366
      4          6           0       -2.599875   -0.201665   -0.046902
      5          6           0       -3.941237   -0.315816   -0.408852
      6          6           0       -4.772735    0.792143   -0.220211
      7          1           0       -4.916945    2.834616    0.460835
      8          1           0       -2.515120    2.982556    1.089156
      9          1           0       -1.013468    1.004081    0.756346
     10          1           0       -4.308961   -1.246653   -0.823268
     11          1           0       -5.821364    0.724480   -0.495611
     12          7           0       -1.709851   -1.367950   -0.241932
     13          8           0       -2.207171   -2.386098   -0.718046
     14          8           0       -0.531782   -1.241852    0.085010
     15          6           0        2.966843   -0.515057    0.085315
     16          6           0        3.505884   -1.921884    0.346572
     17          6           0        2.396018   -2.965415    0.477076
     18          1           0        2.289111   -0.231419    0.902123
     19          1           0        2.362785   -0.525978   -0.832503
     20          1           0        4.109885   -1.908014    1.262873
     21          1           0        4.182560   -2.202130   -0.470855
     22          1           0        1.798178   -3.008595   -0.439070
     23          1           0        1.725089   -2.712807    1.304509
     24          1           0        2.803656   -3.963874    0.663547
     25          6           0        4.064356    0.539241   -0.047533
     26          6           0        3.525313    1.946069   -0.308789
     27          6           0        4.635180    2.989600   -0.439294
     28          1           0        4.668413    0.550163    0.870286
     29          1           0        4.742087    0.255602   -0.864341
     30          1           0        2.848637    2.226315    0.508638
     31          1           0        2.921314    1.932198   -1.225090
     32          1           0        5.306109    2.736991   -1.266726
     33          1           0        5.233020    3.032779    0.476853
     34          1           0        4.227541    3.988059   -0.625764
 ---------------------------------------------------------------------

 SCF Done:  E(RHF) =  -669.535431437     A.U. after   15 cycles
 E2 =    -0.2092213452D+01 EUMP2 =    -0.67162764488918D+03

 The electronic state is 1-A.
 Alpha  occ. eigenvalues --  -20.60926 -20.60919 -15.85953 -11.31281 -11.27847
 Alpha  occ. eigenvalues --  -11.27840 -11.27585 -11.26854 -11.26844 -11.21214
 Alpha  occ. eigenvalues --  -11.20792 -11.20645 -11.20328 -11.20173 -11.19199
 Alpha  occ. eigenvalues --   -1.59992  -1.39548  -1.19452  -1.08857  -1.07536
 Alpha  occ. eigenvalues --   -1.04847  -1.02573  -0.95700  -0.94981  -0.86249
 Alpha  occ. eigenvalues --   -0.85990  -0.82539  -0.78736  -0.77645  -0.77157
 Alpha  occ. eigenvalues --   -0.72162  -0.71306  -0.70559  -0.65106  -0.64851
 Alpha  occ. eigenvalues --   -0.64191  -0.62194  -0.59988  -0.58470  -0.56576
 Alpha  occ. eigenvalues --   -0.55352  -0.54263  -0.53180  -0.52939  -0.51733
 Alpha  occ. eigenvalues --   -0.51410  -0.48968  -0.48928  -0.48891  -0.46924
 Alpha  occ. eigenvalues --   -0.45807  -0.45059  -0.44716  -0.44518  -0.42829
 Alpha  occ. eigenvalues --   -0.37432  -0.36449
 Alpha virt. eigenvalues --    0.04923   0.11205   0.16405   0.21098   0.23439
 Alpha virt. eigenvalues --    0.25285   0.26089   0.27549   0.27791   0.29090
 Alpha virt. eigenvalues --    0.29114   0.31139   0.32230   0.32404   0.32817

 Mulliken charges:
               1
     1  C   -0.170571
     2  C   -0.218692
     3  C   -0.171126
     4  C    0.157209
     5  C   -0.170585
     6  C   -0.218647
     7  H    0.225959
     8  H    0.223963
     9  H    0.276540
    10  H    0.275779
    11  H    0.223743
    12  N    0.492767
    13  O   -0.459332
    14  O   -0.462178
    15  C   -0.294202
    16  C   -0.301583
    17  C   -0.469358
    18  H    0.149610
    19  H    0.156036
    20  H    0.144647
    21  H    0.146211
    22  H    0.168608
    23  H    0.160440
    24  H    0.148310
    25  C   -0.298103
    26  C   -0.297581
    27  C   -0.474756
    28  H    0.146423
    29  H    0.147927
    30  H    0.145040
    31  H    0.150984
    32  H    0.155635
    33  H    0.154524
    34  H    0.156360
 Sum of Mulliken charges =  -0.00000

 Dipole moment (field-independent basis, Debye):
    X=             -3.4831    Y=              4.0078    Z=              0.6287  Tot=              5.3469
 Quadrupole moment (field-independent basis, Debye-Ang):
   XX=            -77.5001   YY=            -96.7463   ZZ=            -93.9899
   XY=             -8.5220   XZ=             -0.1856   YZ=              1.2911

 Normal termination of Gaussian 16 at Thu May  6 19:08:14 2021.
