 Gaussian 16, Revision A.03,
 Gaussian 16:  EM64L-G16RevA.03 25-Dec-2016

 -------------
 #p 6-31g* mp2
 -------------

 ------------------------------------------------------
 Input file generated by CHIRIPA (05-May-2021 14:57:24)
 ------------------------------------------------------
 Symbolic Z-matrix:
 Charge =  0 Multiplicity = 1

                         Standard orientation:
 ---------------------------------------------------------------------
 Center     Atomic      Atomic             Coordinates (Angstroms)
 Number     Number       Type             X           Y           Z
 ---------------------------------------------------------------------
      1          6           0       -1.204748    1.565789   -1.449030
      2          6           0       -2.276349    2.117125   -0.738945
      3          6           0       -3.162634    1.293552   -0.038391
      4          6           0       -2.946557   -0.083267   -0.069537
      5          6           0       -1.888218   -0.662675   -0.767746
      6          6           0       -1.014438    0.180092   -1.461143
      7          1           0       -0.521118    2.213016   -1.990458
      8          1           0       -2.426594    3.192925   -0.727773
      9          1           0       -4.000459    1.693819    0.519510
     10          1           0       -1.764239   -1.738775   -0.760289
     11          1           0       -0.183081   -0.250866   -2.011747
     12          7           0       -3.878208   -0.965307    0.668320
     13          8           0       -3.666069   -2.175172    0.625183
     14          8           0       -4.802935   -0.430083    1.275817
     15          6           0        2.529355    2.292294    1.059028
     16          6           0        2.896801    1.261955    1.930752
     17          6           0        3.045805   -0.046320    1.460895
     18          6           0        2.818499   -0.289719    0.107241
     19          6           0        2.451376    0.715432   -0.786171
     20          6           0        2.308206    2.016231   -0.294266
     21          1           0        2.415872    3.305690    1.432587
     22          1           0        3.069194    1.473421    2.982231
     23          1           0        3.329363   -0.862860    2.113792
     24          1           0        2.286318    0.473786   -1.829138
     25          1           0        2.022748    2.814427   -0.973561
     26          7           0        2.973155   -1.670773   -0.401845
     27          8           0        2.767165   -1.859165   -1.598806
     28          8           0        3.297436   -2.538700    0.405732
 ---------------------------------------------------------------------

 SCF Done:  E(RHF) =  -868.336064033     A.U. after   16 cycles
 E2 =    -0.2602705417D+01 EUMP2 =    -0.87093876945062D+03

 The electronic state is 1-A.
 Alpha  occ. eigenvalues --  -20.61553 -20.61504 -20.60796 -20.60776 -15.86570
 Alpha  occ. eigenvalues --  -15.85843 -11.31928 -11.31278 -11.28618 -11.28429
 Alpha  occ. eigenvalues --  -11.28219 -11.27889 -11.27781 -11.27725 -11.27603
 Alpha  occ. eigenvalues --  -11.27426 -11.26974 -11.26837  -1.60595  -1.59864
 Alpha  occ. eigenvalues --   -1.40153  -1.39414  -1.20107  -1.19470  -1.09491
 Alpha  occ. eigenvalues --   -1.08885  -1.05537  -1.04868  -0.96335  -0.95700
 Alpha  occ. eigenvalues --   -0.86944  -0.86285  -0.83185  -0.82511  -0.78254
 Alpha  occ. eigenvalues --   -0.77521  -0.72786  -0.72064  -0.71917  -0.71238
 Alpha  occ. eigenvalues --   -0.71189  -0.70660  -0.65771  -0.65585  -0.65131
 Alpha  occ. eigenvalues --   -0.64902  -0.62912  -0.62166  -0.56005  -0.55504
 Alpha  occ. eigenvalues --   -0.53980  -0.53638  -0.53076  -0.52918  -0.49559
 Alpha  occ. eigenvalues --   -0.49531  -0.48829  -0.48809  -0.45552  -0.44804
 Alpha  occ. eigenvalues --   -0.38084  -0.37924  -0.36831  -0.36227
 Alpha virt. eigenvalues --    0.04249   0.04997   0.10219   0.11421   0.15662
 Alpha virt. eigenvalues --    0.16603   0.18716   0.22197   0.25317   0.25551
 Alpha virt. eigenvalues --    0.27908   0.29168   0.30265   0.31487   0.32688

 Mulliken charges:
               1
     1  C   -0.167532
     2  C   -0.219878
     3  C   -0.171366
     4  C    0.158859
     5  C   -0.172819
     6  C   -0.220663
     7  H    0.214574
     8  H    0.220353
     9  H    0.275193
    10  H    0.281416
    11  H    0.230265
    12  N    0.487730
    13  O   -0.457475
    14  O   -0.461488
    15  C   -0.169458
    16  C   -0.217336
    17  C   -0.168869
    18  C    0.159933
    19  C   -0.172710
    20  C   -0.215531
    21  H    0.227182
    22  H    0.227123
    23  H    0.278981
    24  H    0.268733
    25  H    0.216920
    26  N    0.488212
    27  O   -0.466491
    28  O   -0.453859
 Sum of Mulliken charges =  -0.00000

 Dipole moment (field-independent basis, Debye):
    X=              2.8648    Y=              7.7816    Z=             -0.5258  Tot=              8.3088
 Quadrupole moment (field-independent basis, Debye-Ang):
   XX=           -126.5996   YY=           -105.2807   ZZ=           -100.2153
   XY=              1.7926   XZ=             13.5175   YZ=              0.0299

 Normal termination of Gaussian 16 at Thu May  6 12:59:34 2021.
