 Gaussian 16, Revision A.03,
 Gaussian 16:  EM64L-G16RevA.03 25-Dec-2016

 -------------
 #p 6-31g* mp2
 -------------

 ------------------------------------------------------
 Input file generated by CHIRIPA (05-May-2021 14:57:22)
 ------------------------------------------------------
 Symbolic Z-matrix:
 Charge =  0 Multiplicity = 1

                         Standard orientation:
 ---------------------------------------------------------------------
 Center     Atomic      Atomic             Coordinates (Angstroms)
 Number     Number       Type             X           Y           Z
 ---------------------------------------------------------------------
      1          6           0       -2.498189    2.200437    1.068219
      2          6           0       -2.131983    0.898526    1.425213
      3          6           0       -2.778639   -0.202373    0.855647
      4          6           0       -3.791686    0.036271   -0.071755
      5          6           0       -4.179254    1.321411   -0.447916
      6          6           0       -3.518856    2.407359    0.134440
      7          1           0       -1.990513    3.049834    1.515639
      8          1           0       -1.339677    0.734824    2.150125
      9          1           0       -2.515172   -1.220844    1.113949
     10          1           0       -4.972835    1.452941   -1.173414
     11          1           0       -3.805356    3.417331   -0.144700
     12          7           0       -4.483546   -1.121288   -0.681499
     13          8           0       -5.372858   -0.884316   -1.496119
     14          8           0       -4.123413   -2.243636   -0.333251
     15          6           0        2.102583   -2.009629    0.812375
     16          6           0        3.411692   -2.345609    0.451998
     17          6           0        4.293060   -1.366139   -0.015308
     18          6           0        3.829932   -0.054718   -0.110054
     19          6           0        2.531532    0.311394    0.241247
     20          6           0        1.667448   -0.684536    0.706037
     21          1           0        1.424628   -2.776898    1.174413
     22          1           0        3.752360   -3.373880    0.533546
     23          1           0        5.311734   -1.598566   -0.301140
     24          1           0        2.220778    1.345003    0.149040
     25          1           0        0.651322   -0.420709    0.985194
     26          7           0        4.753848    0.990917   -0.603438
     27          8           0        4.321482    2.139038   -0.677692
     28          8           0        5.892885    0.642564   -0.906557
 ---------------------------------------------------------------------

 SCF Done:  E(RHF) =  -868.337242577     A.U. after   16 cycles
 E2 =    -0.2599990463D+01 EUMP2 =    -0.87093723304040D+03

 The electronic state is 1-A.
 Alpha  occ. eigenvalues --  -20.61401 -20.61383 -20.61075 -20.61062 -15.86456
 Alpha  occ. eigenvalues --  -15.86127 -11.31935 -11.31521 -11.28631 -11.28485
 Alpha  occ. eigenvalues --  -11.28274 -11.28144 -11.28071 -11.27844 -11.27660
 Alpha  occ. eigenvalues --  -11.27472 -11.27168 -11.27072  -1.60467  -1.60145
 Alpha  occ. eigenvalues --   -1.40019  -1.39699  -1.20134  -1.19700  -1.09492
 Alpha  occ. eigenvalues --   -1.09088  -1.05576  -1.05116  -0.96307  -0.95917
 Alpha  occ. eigenvalues --   -0.86954  -0.86517  -0.83159  -0.82752  -0.78200
 Alpha  occ. eigenvalues --   -0.77792  -0.72671  -0.72345  -0.71792  -0.71468
 Alpha  occ. eigenvalues --   -0.71214  -0.70806  -0.65794  -0.65647  -0.65357
 Alpha  occ. eigenvalues --   -0.65099  -0.62964  -0.62417  -0.56022  -0.55609
 Alpha  occ. eigenvalues --   -0.53898  -0.53697  -0.53429  -0.53139  -0.49439
 Alpha  occ. eigenvalues --   -0.49419  -0.49106  -0.49097  -0.45400  -0.45098
 Alpha  occ. eigenvalues --   -0.38088  -0.37674  -0.37174  -0.36715
 Alpha virt. eigenvalues --    0.04345   0.04751   0.10420   0.10923   0.15608
 Alpha virt. eigenvalues --    0.16220   0.19151   0.21976   0.25151   0.27164
 Alpha virt. eigenvalues --    0.28042   0.28888   0.29557   0.31482   0.32148

 Mulliken charges:
               1
     1  C   -0.170702
     2  C   -0.224557
     3  C   -0.170776
     4  C    0.159308
     5  C   -0.168653
     6  C   -0.218026
     7  H    0.229579
     8  H    0.219431
     9  H    0.272015
    10  H    0.278844
    11  H    0.227761
    12  N    0.488315
    13  O   -0.457150
    14  O   -0.461362
    15  C   -0.171021
    16  C   -0.218077
    17  C   -0.170311
    18  C    0.159021
    19  C   -0.172138
    20  C   -0.221389
    21  H    0.227270
    22  H    0.225665
    23  H    0.276944
    24  H    0.273112
    25  H    0.219120
    26  N    0.488236
    27  O   -0.461549
    28  O   -0.458910
 Sum of Mulliken charges =  -0.00000

 Dipole moment (field-independent basis, Debye):
    X=             -0.9746    Y=              0.4595    Z=              3.7605  Tot=              3.9118
 Quadrupole moment (field-independent basis, Debye-Ang):
   XX=           -143.4091   YY=            -99.9260   ZZ=           -105.5461
   XY=            -35.1283   XZ=              0.2015   YZ=             -1.3805

 Normal termination of Gaussian 16 at Fri May  7 00:10:31 2021.
