 Gaussian 16, Revision A.03,
 Gaussian 16:  EM64L-G16RevA.03 25-Dec-2016

 -------------
 #p 6-31g* mp2
 -------------

 ------------------------------------------------------
 Input file generated by CHIRIPA (05-May-2021 14:51:10)
 ------------------------------------------------------
 Symbolic Z-matrix:
 Charge =  0 Multiplicity = 1

                         Standard orientation:
 ---------------------------------------------------------------------
 Center     Atomic      Atomic             Coordinates (Angstroms)
 Number     Number       Type             X           Y           Z
 ---------------------------------------------------------------------
      1          6           0       -3.735354    0.861438   -0.435931
      2          6           0       -2.264064    1.239933   -0.609228
      3          6           0       -2.065392    2.731419   -0.880876
      4          1           0       -4.290028    1.148025   -1.339895
      5          1           0       -4.162105    1.445733    0.391038
      6          1           0       -1.839851    0.654090   -1.434726
      7          1           0       -1.712793    0.952237    0.295177
      8          1           0       -2.462397    3.329744   -0.054441
      9          1           0       -2.590176    3.029902   -1.794173
     10          1           0       -1.006361    2.979942   -1.001493
     11          6           0       -3.950150   -0.626346   -0.163736
     12          6           0       -5.421441   -1.004841    0.009560
     13          6           0       -5.620112   -2.496327    0.281209
     14          1           0       -3.523399   -1.210641   -0.990705
     15          1           0       -3.395477   -0.912933    0.740227
     16          1           0       -5.972711   -0.717145   -0.894844
     17          1           0       -5.845654   -0.418998    0.835059
     18          1           0       -5.095328   -2.794810    1.194505
     19          1           0       -5.223108   -3.094652   -0.545227
     20          1           0       -6.679144   -2.744850    0.401825
     21          6           0        3.482104    0.198837    0.894196
     22          6           0        1.978808    0.367574    0.671456
     23          6           0        1.271237    1.001824    1.869314
     24          1           0        3.646900   -0.418199    1.788094
     25          1           0        3.926846    1.181039    1.106045
     26          1           0        1.537259   -0.614462    0.458723
     27          1           0        1.817571    0.984121   -0.222126
     28          1           0        1.684495    1.993488    2.080078
     29          1           0        1.402590    0.385821    2.764797
     30          1           0        0.197546    1.113127    1.688597
     31          6           0        4.203400   -0.433929   -0.294528
     32          6           0        5.706696   -0.602666   -0.071789
     33          6           0        6.414267   -1.236915   -1.269647
     34          1           0        3.758659   -1.416130   -0.506378
     35          1           0        4.038605    0.183108   -1.188427
     36          1           0        5.867934   -1.219213    0.821793
     37          1           0        6.148246    0.379370    0.140944
     38          1           0        6.282915   -0.620913   -2.165129
     39          1           0        6.001010   -2.228579   -1.480411
     40          1           0        7.487960   -1.348219   -1.088930
 ---------------------------------------------------------------------

 SCF Done:  E(RHF) =  -470.733321419     A.U. after   11 cycles
 E2 =    -0.1582631139D+01 EUMP2 =    -0.47231595255744D+03

 The electronic state is 1-A.
 Alpha  occ. eigenvalues --  -11.21602 -11.21598 -11.21595 -11.21590 -11.21406
 Alpha  occ. eigenvalues --  -11.21400 -11.21347 -11.21340 -11.21076 -11.21073
 Alpha  occ. eigenvalues --  -11.21069 -11.21054  -1.08440  -1.08417  -1.03556
 Alpha  occ. eigenvalues --   -1.03500  -0.96003  -0.95954  -0.87006  -0.86984
 Alpha  occ. eigenvalues --   -0.79606  -0.79575  -0.78259  -0.78223  -0.65074
 Alpha  occ. eigenvalues --   -0.65053  -0.60972  -0.60918  -0.59497  -0.59209
 Alpha  occ. eigenvalues --   -0.57715  -0.57446  -0.55275  -0.55252  -0.52715
 Alpha  occ. eigenvalues --   -0.52645  -0.52419  -0.52389  -0.49921  -0.49912
 Alpha  occ. eigenvalues --   -0.47983  -0.47842  -0.46618  -0.46608  -0.45790
 Alpha  occ. eigenvalues --   -0.45773  -0.45702  -0.45698  -0.43800  -0.43741
 Alpha virt. eigenvalues --    0.21090   0.23067   0.23451   0.25124   0.26131
 Alpha virt. eigenvalues --    0.26541   0.26947   0.27517   0.27894   0.28914
 Alpha virt. eigenvalues --    0.30148   0.30968   0.31496   0.31719   0.32311

 Mulliken charges:
               1
     1  C   -0.297719
     2  C   -0.306756
     3  C   -0.475903
     4  H    0.149691
     5  H    0.149453
     6  H    0.152465
     7  H    0.157933
     8  H    0.155165
     9  H    0.155292
    10  H    0.160612
    11  C   -0.298358
    12  C   -0.299651
    13  C   -0.475724
    14  H    0.149588
    15  H    0.149549
    16  H    0.151968
    17  H    0.151971
    18  H    0.155184
    19  H    0.155159
    20  H    0.160270
    21  C   -0.298364
    22  C   -0.299193
    23  C   -0.482362
    24  H    0.149637
    25  H    0.149486
    26  H    0.152282
    27  H    0.152112
    28  H    0.155274
    29  H    0.154956
    30  H    0.165989
    31  C   -0.298252
    32  C   -0.299651
    33  C   -0.475706
    34  H    0.149565
    35  H    0.149597
    36  H    0.151936
    37  H    0.151921
    38  H    0.155162
    39  H    0.155180
    40  H    0.160244
 Sum of Mulliken charges =  -0.00000

 Dipole moment (field-independent basis, Debye):
    X=             -0.0061    Y=             -0.0014    Z=             -0.0058  Tot=              0.0085
 Quadrupole moment (field-independent basis, Debye-Ang):
   XX=            -85.3261   YY=            -85.1949   ZZ=            -84.2727
   XY=              0.1311   XZ=              0.5718   YZ=             -0.3444

 Normal termination of Gaussian 16 at Thu May  6 00:36:53 2021.
