 Gaussian 16, Revision A.03,
 Gaussian 16:  EM64L-G16RevA.03 25-Dec-2016

 -------------
 #p 6-31g* mp2
 -------------

 ------------------------------------------------------
 Input file generated by CHIRIPA (05-May-2021 14:51:09)
 ------------------------------------------------------
 Symbolic Z-matrix:
 Charge =  0 Multiplicity = 1

                         Standard orientation:
 ---------------------------------------------------------------------
 Center     Atomic      Atomic             Coordinates (Angstroms)
 Number     Number       Type             X           Y           Z
 ---------------------------------------------------------------------
      1          6           0       -2.181802    0.819211    0.439697
      2          6           0       -2.144733    2.347809    0.438458
      3          6           0       -1.378758    2.921527    1.630902
      4          1           0       -2.641507    0.470682    1.374654
      5          1           0       -1.152574    0.434420    0.435033
      6          1           0       -3.173733    2.729600    0.441725
      7          1           0       -1.685237    2.692743   -0.496689
      8          1           0       -0.342355    2.568730    1.628861
      9          1           0       -1.839309    2.605796    2.572607
     10          1           0       -1.364712    4.015709    1.610208
     11          6           0       -2.944036    0.230743   -0.746233
     12          6           0       -2.981105   -1.297854   -0.744994
     13          6           0       -3.747080   -1.871572   -1.937438
     14          1           0       -3.973264    0.615534   -0.741569
     15          1           0       -2.484331    0.579272   -1.681190
     16          1           0       -3.440601   -1.642789    0.190153
     17          1           0       -1.952105   -1.679646   -0.748261
     18          1           0       -3.286530   -1.555842   -2.879143
     19          1           0       -4.783483   -1.518775   -1.935397
     20          1           0       -3.761126   -2.965754   -1.916743
     21          6           0        3.143395   -0.440982   -0.336042
     22          6           0        3.198152    0.944891   -0.979737
     23          6           0        4.364823    1.097504   -1.956151
     24          1           0        4.089649   -0.632395    0.188276
     25          1           0        3.064034   -1.201330   -1.125326
     26          1           0        3.275993    1.702480   -0.189412
     27          1           0        2.251584    1.133104   -1.502422
     28          1           0        4.288877    0.363472   -2.764872
     29          1           0        5.319106    0.936084   -1.444401
     30          1           0        4.384988    2.095626   -2.404711
     31          6           0        1.982443   -0.608972    0.642578
     32          6           0        1.927685   -1.994845    1.286273
     33          6           0        0.761015   -2.147458    2.262686
     34          1           0        2.061804    0.151375    1.431862
     35          1           0        1.036189   -0.417560    0.118260
     36          1           0        2.874254   -2.183059    1.808958
     37          1           0        1.849845   -2.752435    0.495948
     38          1           0       -0.193268   -1.986038    1.750937
     39          1           0        0.836962   -1.413427    3.071408
     40          1           0        0.740851   -3.145580    2.711247
 ---------------------------------------------------------------------

 SCF Done:  E(RHF) =  -470.733277902     A.U. after   11 cycles
 E2 =    -0.1583913625D+01 EUMP2 =    -0.47231719152732D+03

 The electronic state is 1-A.
 Alpha  occ. eigenvalues --  -11.21660 -11.21657 -11.21628 -11.21576 -11.21464
 Alpha  occ. eigenvalues --  -11.21404 -11.21403 -11.21312 -11.21113 -11.21109
 Alpha  occ. eigenvalues --  -11.21035 -11.21029  -1.08496  -1.08423  -1.03561
 Alpha  occ. eigenvalues --   -1.03532  -0.96008  -0.95978  -0.87027  -0.86992
 Alpha  occ. eigenvalues --   -0.79637  -0.79594  -0.78439  -0.78119  -0.65248
 Alpha  occ. eigenvalues --   -0.64949  -0.60961  -0.60929  -0.59386  -0.59341
 Alpha  occ. eigenvalues --   -0.57623  -0.57586  -0.55350  -0.55217  -0.52699
 Alpha  occ. eigenvalues --   -0.52677  -0.52443  -0.52396  -0.50006  -0.49874
 Alpha  occ. eigenvalues --   -0.47988  -0.47906  -0.46768  -0.46648  -0.46297
 Alpha  occ. eigenvalues --   -0.45784  -0.45746  -0.45061  -0.43823  -0.43782
 Alpha virt. eigenvalues --    0.20061   0.23241   0.23610   0.24032   0.25429
 Alpha virt. eigenvalues --    0.26188   0.26648   0.28009   0.28468   0.29809
 Alpha virt. eigenvalues --    0.30877   0.31520   0.31687   0.31843   0.32175

 Mulliken charges:
               1
     1  C   -0.309176
     2  C   -0.298854
     3  C   -0.476565
     4  H    0.149882
     5  H    0.160267
     6  H    0.151747
     7  H    0.151517
     8  H    0.156450
     9  H    0.155060
    10  H    0.159918
    11  C   -0.297714
    12  C   -0.301652
    13  C   -0.475687
    14  H    0.149792
    15  H    0.148983
    16  H    0.152607
    17  H    0.151937
    18  H    0.155117
    19  H    0.155599
    20  H    0.160423
    21  C   -0.297523
    22  C   -0.299754
    23  C   -0.475717
    24  H    0.150115
    25  H    0.149538
    26  H    0.152088
    27  H    0.151189
    28  H    0.155259
    29  H    0.155433
    30  H    0.160444
    31  C   -0.306107
    32  C   -0.299295
    33  C   -0.479544
    34  H    0.149906
    35  H    0.155541
    36  H    0.152134
    37  H    0.151592
    38  H    0.159681
    39  H    0.155295
    40  H    0.160073
 Sum of Mulliken charges =  -0.00000

 Dipole moment (field-independent basis, Debye):
    X=              0.0111    Y=             -0.0073    Z=              0.0059  Tot=              0.0145
 Quadrupole moment (field-independent basis, Debye-Ang):
   XX=            -84.5100   YY=            -85.1132   ZZ=            -85.0837
   XY=             -0.2766   XZ=              0.1389   YZ=              0.0045

 Normal termination of Gaussian 16 at Thu May  6 03:46:03 2021.
