 Gaussian 16, Revision A.03,
 Gaussian 16:  EM64L-G16RevA.03 25-Dec-2016

 -------------
 #p 6-31g* mp2
 -------------

 ------------------------------------------------------
 Input file generated by CHIRIPA (05-May-2021 14:51:13)
 ------------------------------------------------------
 Symbolic Z-matrix:
 Charge =  0 Multiplicity = 1

                         Standard orientation:
 ---------------------------------------------------------------------
 Center     Atomic      Atomic             Coordinates (Angstroms)
 Number     Number       Type             X           Y           Z
 ---------------------------------------------------------------------
      1          6           0        4.477204   -0.263167   -0.377051
      2          6           0        5.815400   -0.274452    0.362604
      3          6           0        7.013463   -0.353156   -0.584098
      4          1           0        4.399326   -1.168267   -0.994849
      5          1           0        4.455745    0.590274   -1.068841
      6          1           0        5.833778   -1.126818    1.053799
      7          1           0        5.890019    0.630687    0.978861
      8          1           0        7.023004    0.503744   -1.265444
      9          1           0        6.966444   -1.263746   -1.190081
     10          1           0        7.959801   -0.359997   -0.034319
     11          6           0        3.270020   -0.184759    0.555841
     12          6           0        1.931824   -0.173475   -0.183814
     13          6           0        0.733761   -0.094770    0.762888
     14          1           0        3.291479   -1.038200    1.247631
     15          1           0        3.347898    0.720340    1.173639
     16          1           0        1.857205   -1.078613   -0.800071
     17          1           0        1.913446    0.678891   -0.875009
     18          1           0        0.780781    0.815820    1.368871
     19          1           0        0.724221   -0.951670    1.444234
     20          1           0       -0.212577   -0.087929    0.213108
     21          6           0       -3.916620    0.986551   -0.095951
     22          6           0       -2.549557    1.671174   -0.075577
     23          6           0       -2.652119    3.196656   -0.089001
     24          1           0       -4.468579    1.310518   -0.988885
     25          1           0       -4.500573    1.323360    0.771778
     26          1           0       -1.967840    1.332118   -0.942331
     27          1           0       -2.000713    1.345392    0.817312
     28          1           0       -3.209926    3.552948    0.783070
     29          1           0       -3.176866    3.539599   -0.986572
     30          1           0       -1.663342    3.665653   -0.074067
     31          6           0       -3.830604   -0.538624   -0.082839
     32          6           0       -5.197667   -1.223248   -0.103212
     33          6           0       -5.095106   -2.748730   -0.089789
     34          1           0       -3.246651   -0.875434   -0.950567
     35          1           0       -3.278645   -0.862592    0.810095
     36          1           0       -5.746511   -0.897466   -0.996102
     37          1           0       -5.779384   -0.884191    0.763540
     38          1           0       -4.570358   -3.091672    0.807781
     39          1           0       -4.537298   -3.105021   -0.961860
     40          1           0       -6.083882   -3.217726   -0.104723
 ---------------------------------------------------------------------

 SCF Done:  E(RHF) =  -470.732332717     A.U. after   11 cycles
 E2 =    -0.1583170572D+01 EUMP2 =    -0.47231550328937D+03

 The electronic state is 1-A.
 Alpha  occ. eigenvalues --  -11.21605 -11.21581 -11.21542 -11.21535 -11.21401
 Alpha  occ. eigenvalues --  -11.21369 -11.21338 -11.21308 -11.21070 -11.21056
 Alpha  occ. eigenvalues --  -11.21056 -11.20900  -1.08436  -1.08383  -1.03549
 Alpha  occ. eigenvalues --   -1.03456  -0.95981  -0.95924  -0.87034  -0.86915
 Alpha  occ. eigenvalues --   -0.79708  -0.79458  -0.78265  -0.78183  -0.65060
 Alpha  occ. eigenvalues --   -0.65019  -0.60942  -0.60863  -0.59555  -0.59131
 Alpha  occ. eigenvalues --   -0.57625  -0.57499  -0.55272  -0.55203  -0.52836
 Alpha  occ. eigenvalues --   -0.52565  -0.52400  -0.52293  -0.49943  -0.49853
 Alpha  occ. eigenvalues --   -0.48007  -0.47741  -0.46678  -0.46527  -0.45776
 Alpha  occ. eigenvalues --   -0.45768  -0.45693  -0.45655  -0.43803  -0.43587
 Alpha virt. eigenvalues --    0.22228   0.23042   0.23773   0.24655   0.26178
 Alpha virt. eigenvalues --    0.26271   0.26669   0.27550   0.27782   0.29114
 Alpha virt. eigenvalues --    0.30591   0.31313   0.31700   0.31981   0.32019

 Mulliken charges:
               1
     1  C   -0.298202
     2  C   -0.299584
     3  C   -0.475670
     4  H    0.149525
     5  H    0.149356
     6  H    0.151873
     7  H    0.151861
     8  H    0.155123
     9  H    0.155132
    10  H    0.160170
    11  C   -0.298326
    12  C   -0.299651
    13  C   -0.482202
    14  H    0.149393
    15  H    0.149417
    16  H    0.151446
    17  H    0.151369
    18  H    0.153520
    19  H    0.153564
    20  H    0.170787
    21  C   -0.297739
    22  C   -0.304965
    23  C   -0.475200
    24  H    0.149264
    25  H    0.149400
    26  H    0.151598
    27  H    0.159365
    28  H    0.155033
    29  H    0.154841
    30  H    0.159973
    31  C   -0.299869
    32  C   -0.299514
    33  C   -0.475719
    34  H    0.149072
    35  H    0.150853
    36  H    0.151981
    37  H    0.152050
    38  H    0.155301
    39  H    0.155130
    40  H    0.160246
 Sum of Mulliken charges =  -0.00000

 Dipole moment (field-independent basis, Debye):
    X=             -0.0434    Y=              0.0048    Z=              0.0075  Tot=              0.0443
 Quadrupole moment (field-independent basis, Debye-Ang):
   XX=            -85.8733   YY=            -85.0080   ZZ=            -84.0594
   XY=              0.0144   XZ=              0.4462   YZ=             -0.0334

 Normal termination of Gaussian 16 at Thu May  6 00:47:30 2021.
