 Gaussian 16, Revision A.03,
 Gaussian 16:  EM64L-G16RevA.03 25-Dec-2016

 -------------
 #p 6-31g* mp2
 -------------

 ------------------------------------------------------
 Input file generated by CHIRIPA (05-May-2021 14:55:19)
 ------------------------------------------------------
 Symbolic Z-matrix:
 Charge =  0 Multiplicity = 1

                         Standard orientation:
 ---------------------------------------------------------------------
 Center     Atomic      Atomic             Coordinates (Angstroms)
 Number     Number       Type             X           Y           Z
 ---------------------------------------------------------------------
      1          6           0       -3.485817   -2.004672   -0.651642
      2          6           0       -2.137250   -1.640325   -0.723325
      3          6           0       -1.739775   -0.330112   -0.440655
      4          6           0       -2.721771    0.594325   -0.087964
      5          6           0       -4.073226    0.262001   -0.007843
      6          6           0       -4.447805   -1.054023   -0.294759
      7          1           0       -3.785693   -3.024734   -0.872877
      8          1           0       -1.387980   -2.376511   -1.000218
      9          1           0       -0.702681   -0.020972   -0.488471
     10          1           0       -4.797191    1.018008    0.270985
     11          1           0       -5.495846   -1.334142   -0.238285
     12          7           0       -2.313101    1.984465    0.213534
     13          8           0       -3.197611    2.780202    0.521886
     14          8           0       -1.116013    2.251997    0.135788
     15          6           0        4.155447   -0.316902   -0.290820
     16          6           0        4.906178    0.964885    0.071684
     17          6           0        6.074500    1.252605   -0.871732
     18          1           0        4.857269   -1.161987   -0.275977
     19          1           0        3.784211   -0.236976   -1.321931
     20          1           0        5.274698    0.883128    1.102278
     21          1           0        4.202446    1.806988    0.056163
     22          1           0        5.720135    1.360754   -1.901941
     23          1           0        6.798479    0.431643   -0.849881
     24          1           0        6.597159    2.173330   -0.594325
     25          6           0        2.984712   -0.618044    0.643214
     26          6           0        2.233980   -1.899831    0.280710
     27          6           0        1.065658   -2.187552    1.224127
     28          1           0        3.355948   -0.697970    1.674326
     29          1           0        2.282889    0.227042    0.628371
     30          1           0        2.937712   -2.741935    0.296232
     31          1           0        1.865460   -1.818073   -0.749884
     32          1           0        0.341680   -1.366590    1.202277
     33          1           0        1.420023   -2.295700    2.254335
     34          1           0        0.543000   -3.108275    0.946719
 ---------------------------------------------------------------------

 SCF Done:  E(RHF) =  -669.534593413     A.U. after   15 cycles
 E2 =    -0.2092782170D+01 EUMP2 =    -0.67162737558313D+03

 The electronic state is 1-A.
 Alpha  occ. eigenvalues --  -20.60808 -20.60801 -15.85858 -11.31203 -11.27756
 Alpha  occ. eigenvalues --  -11.27743 -11.27488 -11.26778 -11.26745 -11.22094
 Alpha  occ. eigenvalues --  -11.21579 -11.21530 -11.21480 -11.21405 -11.20951
 Alpha  occ. eigenvalues --   -1.59880  -1.39435  -1.19372  -1.08767  -1.08587
 Alpha  occ. eigenvalues --   -1.04783  -1.03719  -0.96171  -0.95606  -0.87189
 Alpha  occ. eigenvalues --   -0.86170  -0.82441  -0.79796  -0.78342  -0.77495
 Alpha  occ. eigenvalues --   -0.72079  -0.71202  -0.70498  -0.65275  -0.65005
 Alpha  occ. eigenvalues --   -0.64776  -0.62244  -0.61007  -0.59567  -0.57761
 Alpha  occ. eigenvalues --   -0.55518  -0.55212  -0.53160  -0.53002  -0.52761
 Alpha  occ. eigenvalues --   -0.52486  -0.50096  -0.48833  -0.48830  -0.48091
 Alpha  occ. eigenvalues --   -0.46832  -0.45890  -0.45783  -0.44842  -0.43951
 Alpha  occ. eigenvalues --   -0.37350  -0.36310
 Alpha virt. eigenvalues --    0.05009   0.11203   0.16476   0.19250   0.22964
 Alpha virt. eigenvalues --    0.24010   0.25784   0.26343   0.27535   0.28389
 Alpha virt. eigenvalues --    0.29774   0.30075   0.31428   0.31508   0.32200

 Mulliken charges:
               1
     1  C   -0.171477
     2  C   -0.216094
     3  C   -0.174319
     4  C    0.157589
     5  C   -0.171179
     6  C   -0.218234
     7  H    0.225643
     8  H    0.226579
     9  H    0.277821
    10  H    0.275523
    11  H    0.223493
    12  N    0.488271
    13  O   -0.459920
    14  O   -0.461768
    15  C   -0.298002
    16  C   -0.301149
    17  C   -0.475904
    18  H    0.148564
    19  H    0.148763
    20  H    0.152044
    21  H    0.158141
    22  H    0.155348
    23  H    0.153797
    24  H    0.161561
    25  C   -0.302769
    26  C   -0.302690
    27  C   -0.481328
    28  H    0.151945
    29  H    0.158598
    30  H    0.154606
    31  H    0.143802
    32  H    0.158501
    33  H    0.161016
    34  H    0.153229
 Sum of Mulliken charges =  -0.00000

 Dipole moment (field-independent basis, Debye):
    X=             -1.3879    Y=             -4.8131    Z=             -0.9931  Tot=              5.1067
 Quadrupole moment (field-independent basis, Debye-Ang):
   XX=            -82.3790   YY=           -100.8883   ZZ=            -95.1919
   XY=             10.9749   XZ=              3.1938   YZ=             -0.0845

 Normal termination of Gaussian 16 at Wed May  5 22:07:53 2021.
