 Gaussian 16, Revision A.03,
 Gaussian 16:  EM64L-G16RevA.03 25-Dec-2016

 -------------
 #p 6-31g* mp2
 -------------

 ------------------------------------------------------
 Input file generated by CHIRIPA (05-May-2021 14:57:26)
 ------------------------------------------------------
 Symbolic Z-matrix:
 Charge =  0 Multiplicity = 1

                         Standard orientation:
 ---------------------------------------------------------------------
 Center     Atomic      Atomic             Coordinates (Angstroms)
 Number     Number       Type             X           Y           Z
 ---------------------------------------------------------------------
      1          6           0        1.946958    1.608505   -1.032734
      2          6           0        1.616374    0.343603   -0.535484
      3          6           0        2.590705   -0.461052    0.062646
      4          6           0        3.891539    0.032878    0.147220
      5          6           0        4.252059    1.288712   -0.338780
      6          6           0        3.261428    2.076198   -0.932971
      7          1           0        1.183743    2.226912   -1.495845
      8          1           0        0.596354   -0.022199   -0.611590
      9          1           0        2.362265   -1.444196    0.455915
     10          1           0        5.277447    1.626117   -0.248468
     11          1           0        3.521045    3.058129   -1.318270
     12          7           0        4.931648   -0.809886    0.778348
     13          8           0        6.070440   -0.351732    0.840662
     14          8           0        4.588398   -1.912641    1.198762
     15          6           0       -4.870826    1.399785    1.560539
     16          6           0       -3.994757    1.904047    0.593718
     17          6           0       -3.351648    1.042586   -0.300063
     18          6           0       -3.608870   -0.323709   -0.198246
     19          6           0       -4.476320   -0.856597    0.754041
     20          6           0       -5.108394    0.023499    1.637479
     21          1           0       -5.366123    2.076227    2.250832
     22          1           0       -3.808361    2.972433    0.531638
     23          1           0       -2.668658    1.406074   -1.058231
     24          1           0       -4.642122   -1.926424    0.791407
     25          1           0       -5.788262   -0.370936    2.387309
     26          7           0       -2.933881   -1.245563   -1.138977
     27          8           0       -3.177385   -2.445210   -1.028576
     28          8           0       -2.174101   -0.751009   -1.968910
 ---------------------------------------------------------------------

 SCF Done:  E(RHF) =  -868.339018133     A.U. after   16 cycles
 E2 =    -0.2598921661D+01 EUMP2 =    -0.87093793979380D+03

 The electronic state is 1-A.
 Alpha  occ. eigenvalues --  -20.61793 -20.61730 -20.60408 -20.60399 -15.86779
 Alpha  occ. eigenvalues --  -15.85455 -11.31993 -11.30764 -11.28592 -11.28489
 Alpha  occ. eigenvalues --  -11.28208 -11.27526 -11.27463 -11.27342 -11.27254
 Alpha  occ. eigenvalues --  -11.27060 -11.26382 -11.26197  -1.60819  -1.59482
 Alpha  occ. eigenvalues --   -1.40380  -1.39037  -1.20141  -1.18919  -1.09556
 Alpha  occ. eigenvalues --   -1.08332  -1.05519  -1.04299  -0.96419  -0.95181
 Alpha  occ. eigenvalues --   -0.86923  -0.85701  -0.83256  -0.82003  -0.78337
 Alpha  occ. eigenvalues --   -0.77052  -0.72993  -0.72133  -0.71675  -0.71237
 Alpha  occ. eigenvalues --   -0.70804  -0.70053  -0.65792  -0.65512  -0.64569
 Alpha  occ. eigenvalues --   -0.64278  -0.62876  -0.61633  -0.56001  -0.54836
 Alpha  occ. eigenvalues --   -0.53852  -0.53606  -0.52651  -0.52376  -0.49774
 Alpha  occ. eigenvalues --   -0.49732  -0.48434  -0.48428  -0.45795  -0.44455
 Alpha  occ. eigenvalues --   -0.38095  -0.37115  -0.36915  -0.35897
 Alpha virt. eigenvalues --    0.04159   0.05456   0.10518   0.11752   0.15669
 Alpha virt. eigenvalues --    0.16968   0.20373   0.21847   0.26198   0.27090
 Alpha virt. eigenvalues --    0.28072   0.28761   0.30588   0.31366   0.31876

 Mulliken charges:
               1
     1  C   -0.171715
     2  C   -0.221515
     3  C   -0.171953
     4  C    0.158590
     5  C   -0.172283
     6  C   -0.218533
     7  H    0.221625
     8  H    0.234381
     9  H    0.276882
    10  H    0.273898
    11  H    0.220831
    12  N    0.488022
    13  O   -0.462108
    14  O   -0.460194
    15  C   -0.169886
    16  C   -0.217415
    17  C   -0.172941
    18  C    0.157912
    19  C   -0.170214
    20  C   -0.217923
    21  H    0.228558
    22  H    0.224313
    23  H    0.269626
    24  H    0.277915
    25  H    0.226738
    26  N    0.487451
    27  O   -0.453297
    28  O   -0.466766
 Sum of Mulliken charges =  -0.00000

 Dipole moment (field-independent basis, Debye):
    X=             -6.4499    Y=              6.0915    Z=              1.1913  Tot=              8.9514
 Quadrupole moment (field-independent basis, Debye-Ang):
   XX=           -113.1227   YY=           -101.5945   ZZ=           -107.0760
   XY=              5.2093   XZ=            -23.2261   YZ=             -3.8068

 Normal termination of Gaussian 16 at Fri May  7 00:28:25 2021.
