 Gaussian 16, Revision A.03,
 Gaussian 16:  EM64L-G16RevA.03 25-Dec-2016

 -------------
 #p 6-31g* mp2
 -------------

 ------------------------------------------------------
 Input file generated by CHIRIPA (05-May-2021 14:57:27)
 ------------------------------------------------------
 Symbolic Z-matrix:
 Charge =  0 Multiplicity = 1

                         Standard orientation:
 ---------------------------------------------------------------------
 Center     Atomic      Atomic             Coordinates (Angstroms)
 Number     Number       Type             X           Y           Z
 ---------------------------------------------------------------------
      1          6           0        4.223190    1.826546    0.337053
      2          6           0        2.868329    1.867761    0.682269
      3          6           0        2.044763    0.760294    0.459105
      4          6           0        2.611719   -0.377159   -0.113653
      5          6           0        3.957912   -0.448997   -0.468468
      6          6           0        4.762706    0.670336   -0.236203
      7          1           0        4.855664    2.691462    0.513948
      8          1           0        2.446612    2.764347    1.127616
      9          1           0        0.992620    0.765048    0.716769
     10          1           0        4.349626   -1.356896   -0.910845
     11          1           0        5.814568    0.635481   -0.505307
     12          7           0        1.749784   -1.555867   -0.354724
     13          8           0        2.273482   -2.546028   -0.860647
     14          8           0        0.566821   -1.467258   -0.033188
     15          6           0       -2.919795    2.569472   -0.727705
     16          6           0       -2.428452    2.293635    0.552535
     17          6           0       -2.332050    0.975095    1.007187
     18          6           0       -2.737727   -0.047832    0.151419
     19          6           0       -3.231443    0.194856   -1.129454
     20          6           0       -3.319018    1.521051   -1.563141
     21          1           0       -2.991254    3.596720   -1.072747
     22          1           0       -2.117676    3.105851    1.203511
     23          1           0       -1.955357    0.733194    1.993596
     24          1           0       -3.533521   -0.635894   -1.755572
     25          1           0       -3.700989    1.732298   -2.557887
     26          7           0       -2.640343   -1.447762    0.621641
     27          8           0       -3.004260   -2.331155   -0.151546
     28          8           0       -2.201941   -1.635128    1.754485
 ---------------------------------------------------------------------

 SCF Done:  E(RHF) =  -868.336643392     A.U. after   16 cycles
 E2 =    -0.2602420342D+01 EUMP2 =    -0.87093906373426D+03

 The electronic state is 1-A.
 Alpha  occ. eigenvalues --  -20.60550 -20.60533 -20.59699 -20.59692 -15.85610
 Alpha  occ. eigenvalues --  -15.84779 -11.31124 -11.30668 -11.27727 -11.27706
 Alpha  occ. eigenvalues --  -11.27508 -11.27352 -11.27235 -11.27155 -11.26807
 Alpha  occ. eigenvalues --  -11.26755 -11.26544 -11.26411  -1.59603  -1.58721
 Alpha  occ. eigenvalues --   -1.39160  -1.38285  -1.19318  -1.18888  -1.08685
 Alpha  occ. eigenvalues --   -1.08176  -1.04753  -1.04398  -0.95496  -0.94936
 Alpha  occ. eigenvalues --   -0.86143  -0.85756  -0.82347  -0.81797  -0.77371
 Alpha  occ. eigenvalues --   -0.76731  -0.71971  -0.71036  -0.70925  -0.70451
 Alpha  occ. eigenvalues --   -0.70006  -0.69819  -0.64971  -0.64770  -0.64546
 Alpha  occ. eigenvalues --   -0.64415  -0.62113  -0.61734  -0.55254  -0.54879
 Alpha  occ. eigenvalues --   -0.53066  -0.52924  -0.52599  -0.52496  -0.48576
 Alpha  occ. eigenvalues --   -0.48567  -0.47799  -0.47730  -0.44565  -0.43545
 Alpha  occ. eigenvalues --   -0.37311  -0.36850  -0.36364  -0.36033
 Alpha virt. eigenvalues --    0.05170   0.05877   0.11291   0.11562   0.16657
 Alpha virt. eigenvalues --    0.17223   0.21096   0.21841   0.26625   0.27725
 Alpha virt. eigenvalues --    0.28092   0.28929   0.30404   0.31389   0.32130

 Mulliken charges:
               1
     1  C   -0.170915
     2  C   -0.219586
     3  C   -0.170796
     4  C    0.157885
     5  C   -0.170214
     6  C   -0.218807
     7  H    0.224480
     8  H    0.219119
     9  H    0.274585
    10  H    0.276478
    11  H    0.223329
    12  N    0.492591
    13  O   -0.457880
    14  O   -0.463097
    15  C   -0.172758
    16  C   -0.222674
    17  C   -0.178195
    18  C    0.171551
    19  C   -0.169416
    20  C   -0.218209
    21  H    0.222096
    22  H    0.217116
    23  H    0.273213
    24  H    0.277625
    25  H    0.222189
    26  N    0.497902
    27  O   -0.458099
    28  O   -0.459515
 Sum of Mulliken charges =  -0.00000

 Dipole moment (field-independent basis, Debye):
    X=              2.6885    Y=              8.6393    Z=             -0.8935  Tot=              9.0920
 Quadrupole moment (field-independent basis, Debye-Ang):
   XX=            -84.3377   YY=           -108.1568   ZZ=           -102.0255
   XY=             -4.8566   XZ=              6.6850   YZ=              2.6458

 Normal termination of Gaussian 16 at Thu May  6 03:39:13 2021.
