 Gaussian 16, Revision A.03,
 Gaussian 16:  EM64L-G16RevA.03 25-Dec-2016

 -------------
 #p 6-31g* mp2
 -------------

 ------------------------------------------------------
 Input file generated by CHIRIPA (05-May-2021 14:57:26)
 ------------------------------------------------------
 Symbolic Z-matrix:
 Charge =  0 Multiplicity = 1

                         Standard orientation:
 ---------------------------------------------------------------------
 Center     Atomic      Atomic             Coordinates (Angstroms)
 Number     Number       Type             X           Y           Z
 ---------------------------------------------------------------------
      1          6           0       -2.169114    1.620015   -0.353300
      2          6           0       -2.066365    0.236225   -0.176981
      3          6           0       -3.214651   -0.548914   -0.037176
      4          6           0       -4.455223    0.085551   -0.078685
      5          6           0       -4.590334    1.462016   -0.252986
      6          6           0       -3.428550    2.227423   -0.390674
      7          1           0       -1.271855    2.222265   -0.461082
      8          1           0       -1.089587   -0.238206   -0.147561
      9          1           0       -3.163994   -1.622174    0.100533
     10          1           0       -5.577907    1.906407   -0.278149
     11          1           0       -3.511374    3.301886   -0.527478
     12          7           0       -5.678007   -0.735195    0.068200
     13          8           0       -6.759241   -0.152132    0.028115
     14          8           0       -5.532037   -1.946019    0.220632
     15          6           0        1.947297   -1.141517    0.548731
     16          6           0        2.338474    0.073672    1.120410
     17          6           0        3.613950    0.593327    0.880269
     18          6           0        4.476668   -0.131811    0.059791
     19          6           0        4.116293   -1.345198   -0.524256
     20          6           0        2.835888   -1.845832   -0.270333
     21          1           0        0.954561   -1.537809    0.740632
     22          1           0        1.650473    0.622817    1.756916
     23          1           0        3.942697    1.531734    1.310077
     24          1           0        4.824158   -1.869798   -1.154447
     25          1           0        2.534810   -2.789810   -0.715646
     26          7           0        5.829566    0.408256   -0.201731
     27          8           0        6.571021   -0.249853   -0.928212
     28          8           0        6.122896    1.479443    0.324721
 ---------------------------------------------------------------------

 SCF Done:  E(RHF) =  -868.336925255     A.U. after   16 cycles
 E2 =    -0.2599838428D+01 EUMP2 =    -0.87093676368318D+03

 The electronic state is 1-A.
 Alpha  occ. eigenvalues --  -20.61389 -20.61381 -20.61310 -20.61299 -15.86445
 Alpha  occ. eigenvalues --  -15.86366 -11.31977 -11.31832 -11.28554 -11.28513
 Alpha  occ. eigenvalues --  -11.28478 -11.28411 -11.28386 -11.28190 -11.27672
 Alpha  occ. eigenvalues --  -11.27598 -11.27544 -11.27400  -1.60459  -1.60381
 Alpha  occ. eigenvalues --   -1.40007  -1.39932  -1.20166  -1.20025  -1.09557
 Alpha  occ. eigenvalues --   -1.09397  -1.05579  -1.05457  -0.96359  -0.96212
 Alpha  occ. eigenvalues --   -0.86985  -0.86845  -0.83183  -0.83046  -0.78176
 Alpha  occ. eigenvalues --   -0.78086  -0.72660  -0.72582  -0.71783  -0.71706
 Alpha  occ. eigenvalues --   -0.71342  -0.71123  -0.65830  -0.65683  -0.65638
 Alpha  occ. eigenvalues --   -0.65418  -0.62913  -0.62806  -0.56203  -0.55899
 Alpha  occ. eigenvalues --   -0.53935  -0.53766  -0.53670  -0.53515  -0.49433
 Alpha  occ. eigenvalues --   -0.49405  -0.49348  -0.49331  -0.45375  -0.45315
 Alpha  occ. eigenvalues --   -0.38194  -0.38004  -0.37175  -0.37061
 Alpha virt. eigenvalues --    0.04298   0.04471   0.10410   0.10590   0.15588
 Alpha virt. eigenvalues --    0.15925   0.18693   0.21870   0.25000   0.26291
 Alpha virt. eigenvalues --    0.27739   0.28791   0.29651   0.31539   0.31883

 Mulliken charges:
               1
     1  C   -0.172357
     2  C   -0.223161
     3  C   -0.171320
     4  C    0.159178
     5  C   -0.169866
     6  C   -0.218174
     7  H    0.227382
     8  H    0.218272
     9  H    0.273973
    10  H    0.277881
    11  H    0.226143
    12  N    0.488116
    13  O   -0.458227
    14  O   -0.460347
    15  C   -0.176381
    16  C   -0.221388
    17  C   -0.170652
    18  C    0.159919
    19  C   -0.170199
    20  C   -0.217570
    21  H    0.221805
    22  H    0.223335
    23  H    0.277310
    24  H    0.278557
    25  H    0.226665
    26  N    0.487865
    27  O   -0.457829
    28  O   -0.458929
 Sum of Mulliken charges =  -0.00000

 Dipole moment (field-independent basis, Debye):
    X=             -0.3621    Y=              1.0582    Z=              0.3473  Tot=              1.1711
 Quadrupole moment (field-independent basis, Debye-Ang):
   XX=           -183.2908   YY=            -97.3995   ZZ=           -104.3619
   XY=            -24.5235   XZ=              5.4092   YZ=              1.7491

 Normal termination of Gaussian 16 at Fri May  7 09:40:55 2021.
