 Gaussian 16, Revision A.03,
 Gaussian 16:  EM64L-G16RevA.03 25-Dec-2016

 -------------
 #p 6-31g* mp2
 -------------

 ------------------------------------------------------
 Input file generated by CHIRIPA (05-May-2021 14:57:21)
 ------------------------------------------------------
 Symbolic Z-matrix:
 Charge =  0 Multiplicity = 1

                         Standard orientation:
 ---------------------------------------------------------------------
 Center     Atomic      Atomic             Coordinates (Angstroms)
 Number     Number       Type             X           Y           Z
 ---------------------------------------------------------------------
      1          6           0        5.894036   -0.102656   -0.975525
      2          6           0        5.119417    1.057639   -0.874518
      3          6           0        3.897209    1.038550   -0.195997
      4          6           0        3.478179   -0.163496    0.372148
      5          6           0        4.227352   -1.336123    0.288617
      6          6           0        5.446320   -1.293734   -0.394659
      7          1           0        6.842218   -0.078778   -1.504463
      8          1           0        5.464618    1.984065   -1.324647
      9          1           0        3.277584    1.922168   -0.102708
     10          1           0        3.856886   -2.244675    0.747646
     11          1           0        6.045809   -2.196369   -0.471520
     12          7           0        2.185997   -0.196038    1.092985
     13          8           0        1.839079   -1.267669    1.584811
     14          8           0        1.544570    0.850703    1.152502
     15          6           0       -1.634834    1.605742   -0.458119
     16          6           0       -1.743761    0.433563   -1.213534
     17          6           0       -2.878559   -0.376171   -1.108121
     18          6           0       -3.889943    0.018183   -0.233549
     19          6           0       -3.810856    1.180211    0.532431
     20          6           0       -2.666910    1.974675    0.410921
     21          1           0       -0.749744    2.228832   -0.546259
     22          1           0       -0.943800    0.144569   -1.889249
     23          1           0       -2.988863   -1.288788   -1.681167
     24          1           0       -4.624764    1.442199    1.197512
     25          1           0       -2.585039    2.884464    0.998820
     26          7           0       -5.096145   -0.830962   -0.113432
     27          8           0       -5.973272   -0.461503    0.664248
     28          8           0       -5.141600   -1.849904   -0.799238
 ---------------------------------------------------------------------

 SCF Done:  E(RHF) =  -868.338554269     A.U. after   16 cycles
 E2 =    -0.2599059189D+01 EUMP2 =    -0.87093761345788D+03

 The electronic state is 1-A.
 Alpha  occ. eigenvalues --  -20.61605 -20.61546 -20.59955 -20.59949 -15.86618
 Alpha  occ. eigenvalues --  -15.85006 -11.31892 -11.30174 -11.28484 -11.28406
 Alpha  occ. eigenvalues --  -11.28136 -11.27440 -11.27394 -11.26786 -11.26765
 Alpha  occ. eigenvalues --  -11.26407 -11.25726 -11.25677  -1.60640  -1.59034
 Alpha  occ. eigenvalues --   -1.40202  -1.38594  -1.20048  -1.18339  -1.09453
 Alpha  occ. eigenvalues --   -1.07747  -1.05434  -1.03741  -0.96306  -0.94618
 Alpha  occ. eigenvalues --   -0.86834  -0.85144  -0.83145  -0.81479  -0.78211
 Alpha  occ. eigenvalues --   -0.76569  -0.72846  -0.71968  -0.71233  -0.71144
 Alpha  occ. eigenvalues --   -0.70353  -0.69411  -0.65698  -0.65425  -0.64002
 Alpha  occ. eigenvalues --   -0.63769  -0.62785  -0.61124  -0.55918  -0.54190
 Alpha  occ. eigenvalues --   -0.53769  -0.53519  -0.52036  -0.51857  -0.49602
 Alpha  occ. eigenvalues --   -0.49564  -0.47994  -0.47972  -0.45624  -0.44045
 Alpha  occ. eigenvalues --   -0.38015  -0.37036  -0.36212  -0.35341
 Alpha virt. eigenvalues --    0.04289   0.06017   0.10619   0.12328   0.15802
 Alpha virt. eigenvalues --    0.17577   0.20734   0.22357   0.26625   0.27466
 Alpha virt. eigenvalues --    0.28184   0.29183   0.30518   0.31469   0.32710

 Mulliken charges:
               1
     1  C   -0.170380
     2  C   -0.218185
     3  C   -0.172449
     4  C    0.157650
     5  C   -0.170806
     6  C   -0.218274
     7  H    0.227916
     8  H    0.224493
     9  H    0.271005
    10  H    0.277748
    11  H    0.226113
    12  N    0.488820
    13  O   -0.453977
    14  O   -0.468252
    15  C   -0.154463
    16  C   -0.217651
    17  C   -0.170058
    18  C    0.157534
    19  C   -0.170686
    20  C   -0.218317
    21  H    0.227165
    22  H    0.216877
    23  H    0.271979
    24  H    0.272725
    25  H    0.221331
    26  N    0.488457
    27  O   -0.462914
    28  O   -0.463403
 Sum of Mulliken charges =  -0.00000

 Dipole moment (field-independent basis, Debye):
    X=              9.2225    Y=              3.0702    Z=             -2.8792  Tot=             10.1376
 Quadrupole moment (field-independent basis, Debye-Ang):
   XX=           -106.8273   YY=            -98.3802   ZZ=           -105.4164
   XY=            -14.5936   XZ=             -8.2826   YZ=              1.0042

 Normal termination of Gaussian 16 at Thu May  6 01:40:45 2021.
