 Gaussian 16, Revision A.03,
 Gaussian 16:  EM64L-G16RevA.03 25-Dec-2016

 -------------
 #p 6-31g* mp2
 -------------

 ------------------------------------------------------
 Input file generated by CHIRIPA (05-May-2021 14:57:21)
 ------------------------------------------------------
 Symbolic Z-matrix:
 Charge =  0 Multiplicity = 1

                         Standard orientation:
 ---------------------------------------------------------------------
 Center     Atomic      Atomic             Coordinates (Angstroms)
 Number     Number       Type             X           Y           Z
 ---------------------------------------------------------------------
      1          6           0       -1.971538    2.517984    0.597840
      2          6           0       -3.237176    1.983423    0.860376
      3          6           0       -3.568817    0.696952    0.424997
      4          6           0       -2.606267   -0.030432   -0.273358
      5          6           0       -1.336789    0.474487   -0.550440
      6          6           0       -1.027049    1.763141   -0.105490
      7          1           0       -1.722418    3.518194    0.939770
      8          1           0       -3.972671    2.567361    1.406370
      9          1           0       -4.541140    0.258691    0.614557
     10          1           0       -0.624597   -0.131669   -1.097043
     11          1           0       -0.043352    2.175728   -0.310813
     12          7           0       -2.945767   -1.393516   -0.739340
     13          8           0       -2.080042   -2.014031   -1.352625
     14          8           0       -4.071165   -1.815577   -0.482469
     15          6           0        1.821949   -1.616747    2.148950
     16          6           0        2.203100   -2.220893    0.946347
     17          6           0        2.608450   -1.442589   -0.141993
     18          6           0        2.620728   -0.056697    0.007808
     19          6           0        2.246752    0.574824    1.192972
     20          6           0        1.844952   -0.223273    2.268214
     21          1           0        1.508443   -2.229039    2.989311
     22          1           0        2.186220   -3.302855    0.850860
     23          1           0        2.908619   -1.884185   -1.084495
     24          1           0        2.273947    1.655775    1.257970
     25          1           0        1.549479    0.248652    3.200967
     26          7           0        3.047975    0.777735   -1.137435
     27          8           0        3.050039    1.996685   -0.979974
     28          8           0        3.372698    0.197013   -2.170854
 ---------------------------------------------------------------------

 SCF Done:  E(RHF) =  -868.338896476     A.U. after   16 cycles
 E2 =    -0.2601958233D+01 EUMP2 =    -0.87094085470891D+03

 The electronic state is 1-A.
 Alpha  occ. eigenvalues --  -20.61546 -20.61499 -20.60856 -20.60850 -15.86536
 Alpha  occ. eigenvalues --  -15.85904 -11.31717 -11.31184 -11.28307 -11.28176
 Alpha  occ. eigenvalues --  -11.27870 -11.27758 -11.27691 -11.27458 -11.27212
 Alpha  occ. eigenvalues --  -11.27104 -11.26771 -11.26630  -1.60589  -1.59933
 Alpha  occ. eigenvalues --   -1.40146  -1.39488  -1.19860  -1.19343  -1.09271
 Alpha  occ. eigenvalues --   -1.08759  -1.05208  -1.04720  -0.96139  -0.95609
 Alpha  occ. eigenvalues --   -0.86622  -0.86122  -0.82962  -0.82438  -0.78062
 Alpha  occ. eigenvalues --   -0.77495  -0.72742  -0.72127  -0.71928  -0.71256
 Alpha  occ. eigenvalues --   -0.70927  -0.70455  -0.65488  -0.65197  -0.64993
 Alpha  occ. eigenvalues --   -0.64695  -0.62567  -0.62053  -0.55677  -0.55245
 Alpha  occ. eigenvalues --   -0.53667  -0.53286  -0.52947  -0.52791  -0.49530
 Alpha  occ. eigenvalues --   -0.49482  -0.48883  -0.48874  -0.45560  -0.44912
 Alpha  occ. eigenvalues --   -0.37826  -0.37377  -0.36967  -0.36053
 Alpha virt. eigenvalues --    0.04391   0.05044   0.10650   0.11444   0.15955
 Alpha virt. eigenvalues --    0.16546   0.20721   0.21616   0.26228   0.27227
 Alpha virt. eigenvalues --    0.27903   0.28509   0.30300   0.31341   0.31854

 Mulliken charges:
               1
     1  C   -0.173836
     2  C   -0.219007
     3  C   -0.172360
     4  C    0.156834
     5  C   -0.169303
     6  C   -0.225914
     7  H    0.225774
     8  H    0.222530
     9  H    0.274513
    10  H    0.275494
    11  H    0.233635
    12  N    0.487928
    13  O   -0.461429
    14  O   -0.461411
    15  C   -0.169897
    16  C   -0.214385
    17  C   -0.171465
    18  C    0.152169
    19  C   -0.174975
    20  C   -0.215422
    21  H    0.229358
    22  H    0.230034
    23  H    0.279669
    24  H    0.270274
    25  H    0.224025
    26  N    0.486718
    27  O   -0.466500
    28  O   -0.453049
 Sum of Mulliken charges =  -0.00000

 Dipole moment (field-independent basis, Debye):
    X=             -0.1212    Y=              1.5958    Z=              5.7189  Tot=              5.9387
 Quadrupole moment (field-independent basis, Debye-Ang):
   XX=           -115.6913   YY=           -101.8373   ZZ=           -104.1877
   XY=            -22.1324   XZ=              3.4148   YZ=              0.9316

 Normal termination of Gaussian 16 at Thu May  6 16:11:54 2021.
