 Gaussian 16, Revision A.03,
 Gaussian 16:  EM64L-G16RevA.03 25-Dec-2016

 -------------
 #p 6-31g* mp2
 -------------

 ------------------------------------------------------
 Input file generated by CHIRIPA (05-May-2021 14:53:14)
 ------------------------------------------------------
 Symbolic Z-matrix:
 Charge =  0 Multiplicity = 1

                         Standard orientation:
 ---------------------------------------------------------------------
 Center     Atomic      Atomic             Coordinates (Angstroms)
 Number     Number       Type             X           Y           Z
 ---------------------------------------------------------------------
      1          6           0       -2.934925    0.255912   -0.221625
      2          6           0       -3.417577   -0.617732    0.936726
      3          6           0       -4.209353   -1.838319    0.466565
      4          1           0       -3.802029    0.584283   -0.810903
      5          1           0       -2.311602   -0.350003   -0.893734
      6          1           0       -4.038670   -0.009997    1.607188
      7          1           0       -2.549240   -0.943903    1.523427
      8          1           0       -3.595222   -2.468268   -0.185054
      9          1           0       -5.093115   -1.529055   -0.100817
     10          1           0       -4.544701   -2.448857    1.310747
     11          6           0       -2.141819    1.480065    0.232427
     12          6           0       -1.659167    2.353708   -0.925925
     13          6           0       -0.867391    3.574296   -0.455763
     14          1           0       -2.765142    2.085980    0.904536
     15          1           0       -1.274715    1.151694    0.821705
     16          1           0       -2.527504    2.679880   -1.512625
     17          1           0       -1.038074    1.745974   -1.596386
     18          1           0        0.016371    3.265032    0.111619
     19          1           0       -1.481522    4.204245    0.195856
     20          1           0       -0.532043    4.184834   -1.299946
     21          6           0        3.871431    0.741245    0.882095
     22          6           0        2.825958    0.358937    1.729059
     23          6           0        1.774495   -0.427396    1.248795
     24          6           0        1.800546   -0.815335   -0.089905
     25          6           0        2.827987   -0.450579   -0.958588
     26          6           0        3.869113    0.335983   -0.456664
     27          1           0        4.684217    1.352177    1.263588
     28          1           0        2.825135    0.672205    2.769206
     29          1           0        0.952604   -0.737616    1.882574
     30          1           0        2.801168   -0.778293   -1.990722
     31          1           0        4.679729    0.631396   -1.116724
     32          7           0        0.692882   -1.647911   -0.609804
     33          8           0        0.739168   -1.976655   -1.793198
     34          8           0       -0.200618   -1.955976    0.175938
 ---------------------------------------------------------------------

 SCF Done:  E(RHF) =  -669.536527955     A.U. after   15 cycles
 E2 =    -0.2093798544D+01 EUMP2 =    -0.67163032649843D+03

 The electronic state is 1-A.
 Alpha  occ. eigenvalues --  -20.61128 -20.61117 -15.86129 -11.31406 -11.27960
 Alpha  occ. eigenvalues --  -11.27945 -11.27672 -11.26947 -11.26935 -11.21181
 Alpha  occ. eigenvalues --  -11.20872 -11.20764 -11.20374 -11.20225 -11.19782
 Alpha  occ. eigenvalues --   -1.60173  -1.39731  -1.19561  -1.08974  -1.07605
 Alpha  occ. eigenvalues --   -1.04946  -1.02701  -0.95825  -0.95185  -0.86351
 Alpha  occ. eigenvalues --   -0.86201  -0.82663  -0.78849  -0.77741  -0.77333
 Alpha  occ. eigenvalues --   -0.72371  -0.71507  -0.70664  -0.65229  -0.64945
 Alpha  occ. eigenvalues --   -0.64183  -0.62293  -0.60064  -0.58618  -0.56785
 Alpha  occ. eigenvalues --   -0.55449  -0.54464  -0.53277  -0.53034  -0.51924
 Alpha  occ. eigenvalues --   -0.51604  -0.49197  -0.49141  -0.49033  -0.47153
 Alpha  occ. eigenvalues --   -0.45889  -0.45270  -0.44773  -0.44665  -0.42960
 Alpha  occ. eigenvalues --   -0.37523  -0.36533
 Alpha virt. eigenvalues --    0.04748   0.11031   0.16247   0.20951   0.23271
 Alpha virt. eigenvalues --    0.25059   0.26056   0.27396   0.27992   0.28552
 Alpha virt. eigenvalues --    0.28960   0.31015   0.31675   0.32271   0.32844

 Mulliken charges:
               1
     1  C   -0.300409
     2  C   -0.296973
     3  C   -0.478322
     4  H    0.144080
     5  H    0.165309
     6  H    0.142036
     7  H    0.160083
     8  H    0.169959
     9  H    0.148638
    10  H    0.154498
    11  C   -0.299449
    12  C   -0.298870
    13  C   -0.475187
    14  H    0.146045
    15  H    0.143010
    16  H    0.152572
    17  H    0.151226
    18  H    0.151365
    19  H    0.154083
    20  H    0.158061
    21  C   -0.170240
    22  C   -0.219037
    23  C   -0.170995
    24  C    0.158655
    25  C   -0.170726
    26  C   -0.218195
    27  H    0.226672
    28  H    0.224741
    29  H    0.276385
    30  H    0.276137
    31  H    0.224399
    32  N    0.490299
    33  O   -0.458368
    34  O   -0.461481
 Sum of Mulliken charges =  -0.00000

 Dipole moment (field-independent basis, Debye):
    X=              4.1662    Y=              2.6834    Z=              1.7410  Tot=              5.2526
 Quadrupole moment (field-independent basis, Debye-Ang):
   XX=            -80.5320   YY=           -101.2071   ZZ=            -91.1975
   XY=              1.5408   XZ=              0.9912   YZ=             -1.7294

 Normal termination of Gaussian 16 at Thu May  6 05:49:42 2021.
