 Gaussian 16, Revision A.03,
 Gaussian 16:  EM64L-G16RevA.03 25-Dec-2016

 -------------
 #p 6-31g* mp2
 -------------

 ------------------------------------------------------
 Input file generated by CHIRIPA (05-May-2021 14:53:17)
 ------------------------------------------------------
 Symbolic Z-matrix:
 Charge =  0 Multiplicity = 1

                         Standard orientation:
 ---------------------------------------------------------------------
 Center     Atomic      Atomic             Coordinates (Angstroms)
 Number     Number       Type             X           Y           Z
 ---------------------------------------------------------------------
      1          6           0       -3.982269    0.313670    0.253956
      2          6           0       -3.255090    0.367327    1.597949
      3          6           0       -1.863264    0.991426    1.492521
      4          1           0       -3.375605   -0.258330   -0.461391
      5          1           0       -4.065649    1.331801   -0.150831
      6          1           0       -3.174331   -0.650443    2.000736
      7          1           0       -3.863645    0.939103    2.310234
      8          1           0       -1.928466    2.016717    1.114197
      9          1           0       -1.235235    0.418139    0.802940
     10          1           0       -1.361323    1.019806    2.464688
     11          6           0       -5.375014   -0.307655    0.343091
     12          6           0       -6.102192   -0.361312   -1.000902
     13          6           0       -7.494018   -0.985411   -0.895474
     14          1           0       -5.291634   -1.325786    0.747878
     15          1           0       -5.981677    0.264345    1.058437
     16          1           0       -5.493638   -0.933088   -1.713187
     17          1           0       -6.182951    0.656459   -1.403689
     18          1           0       -8.122047   -0.412123   -0.205893
     19          1           0       -7.428817   -2.010701   -0.517150
     20          1           0       -7.995960   -1.013791   -1.867641
     21          6           0        1.757217    1.567018   -0.781595
     22          6           0        3.056513    2.064020   -0.635514
     23          6           0        4.115808    1.203696   -0.331729
     24          6           0        3.838678   -0.154071   -0.180206
     25          6           0        2.555044   -0.679594   -0.319490
     26          6           0        1.511064    0.199209   -0.623395
     27          1           0        0.940280    2.242515   -1.017629
     28          1           0        3.250629    3.125814   -0.757809
     29          1           0        5.131287    1.561680   -0.213113
     30          1           0        2.392610   -1.742932   -0.191638
     31          1           0        0.503020   -0.189576   -0.736265
     32          7           0        4.951999   -1.074638    0.141461
     33          8           0        4.681615   -2.266705    0.269936
     34          8           0        6.073924   -0.586681    0.259018
 ---------------------------------------------------------------------

 SCF Done:  E(RHF) =  -669.535300002     A.U. after   15 cycles
 E2 =    -0.2091139288D+01 EUMP2 =    -0.67162643929029D+03

 The electronic state is 1-A.
 Alpha  occ. eigenvalues --  -20.60737 -20.60732 -15.85791 -11.31151 -11.27725
 Alpha  occ. eigenvalues --  -11.27721 -11.27455 -11.26731 -11.26719 -11.22330
 Alpha  occ. eigenvalues --  -11.22117 -11.22096 -11.21998 -11.21931 -11.21470
 Alpha  occ. eigenvalues --   -1.59813  -1.39367  -1.19325  -1.09074  -1.08718
 Alpha  occ. eigenvalues --   -1.04733  -1.04168  -0.96633  -0.95552  -0.87655
 Alpha  occ. eigenvalues --   -0.86128  -0.82389  -0.80238  -0.78877  -0.77440
 Alpha  occ. eigenvalues --   -0.72010  -0.71136  -0.70423  -0.65716  -0.64977
 Alpha  occ. eigenvalues --   -0.64761  -0.62132  -0.61532  -0.59992  -0.58230
 Alpha  occ. eigenvalues --   -0.55955  -0.55210  -0.53327  -0.53179  -0.52993
 Alpha  occ. eigenvalues --   -0.52758  -0.50564  -0.48776  -0.48765  -0.48540
 Alpha  occ. eigenvalues --   -0.47262  -0.46422  -0.46331  -0.44774  -0.44412
 Alpha  occ. eigenvalues --   -0.37287  -0.36324
 Alpha virt. eigenvalues --    0.05101   0.11226   0.16575   0.20088   0.22474
 Alpha virt. eigenvalues --    0.23813   0.25279   0.26322   0.27102   0.27772
 Alpha virt. eigenvalues --    0.29168   0.29678   0.31270   0.31538   0.31906

 Mulliken charges:
               1
     1  C   -0.297931
     2  C   -0.300195
     3  C   -0.477839
     4  H    0.144923
     5  H    0.149011
     6  H    0.154539
     7  H    0.155153
     8  H    0.152598
     9  H    0.147361
    10  H    0.166489
    11  C   -0.298680
    12  C   -0.299986
    13  C   -0.476067
    14  H    0.151075
    15  H    0.151368
    16  H    0.151569
    17  H    0.151859
    18  H    0.156013
    19  H    0.156184
    20  H    0.161428
    21  C   -0.170337
    22  C   -0.218844
    23  C   -0.170840
    24  C    0.158461
    25  C   -0.171863
    26  C   -0.217895
    27  H    0.226689
    28  H    0.223302
    29  H    0.275491
    30  H    0.275382
    31  H    0.224614
    32  N    0.488089
    33  O   -0.460580
    34  O   -0.460542
 Sum of Mulliken charges =  -0.00000

 Dipole moment (field-independent basis, Debye):
    X=             -4.0725    Y=              3.2604    Z=             -1.0687  Tot=              5.3252
 Quadrupole moment (field-independent basis, Debye-Ang):
   XX=           -123.4881   YY=            -92.3496   ZZ=            -95.0431
   XY=             15.2746   XZ=             -4.0174   YZ=             -0.3061

 Normal termination of Gaussian 16 at Thu May  6 18:57:59 2021.
