 Gaussian 16, Revision A.03,
 Gaussian 16:  EM64L-G16RevA.03 25-Dec-2016

 -------------
 #p 6-31g* mp2
 -------------

 ------------------------------------------------------
 Input file generated by CHIRIPA (05-May-2021 14:51:09)
 ------------------------------------------------------
 Symbolic Z-matrix:
 Charge =  0 Multiplicity = 1

                         Standard orientation:
 ---------------------------------------------------------------------
 Center     Atomic      Atomic             Coordinates (Angstroms)
 Number     Number       Type             X           Y           Z
 ---------------------------------------------------------------------
      1          6           0        4.148096   -0.342798   -0.359437
      2          6           0        5.508480    0.037672    0.225867
      3          6           0        6.639595   -0.054683   -0.798753
      4          1           0        4.200688   -1.365007   -0.758521
      5          1           0        3.926633    0.314471   -1.211697
      6          1           0        5.726686   -0.619214    1.077631
      7          1           0        5.452589    1.059025    0.623775
      8          1           0        6.448545    0.613442   -1.644749
      9          1           0        6.724199   -1.074332   -1.188315
     10          1           0        7.603066    0.221565   -0.359127
     11          6           0        3.007236   -0.255396    0.652752
     12          6           0        1.646851   -0.635866    0.067449
     13          6           0        0.515737   -0.543511    1.092068
     14          1           0        3.228698   -0.912665    1.505012
     15          1           0        2.954644    0.766813    1.051836
     16          1           0        1.702742   -1.657219   -0.330460
     17          1           0        1.428646    0.021020   -0.784316
     18          1           0        0.431132    0.476138    1.481630
     19          1           0        0.706786   -1.211636    1.938064
     20          1           0       -0.447734   -0.819759    0.652442
     21          6           0       -4.170102   -0.182521   -0.168900
     22          6           0       -3.754654   -1.653648   -0.203192
     23          6           0       -4.950906   -2.604864   -0.247519
     24          1           0       -4.810732   -0.009329    0.706623
     25          1           0       -4.783185    0.038849   -1.053502
     26          1           0       -3.141385   -1.871835    0.680500
     27          1           0       -3.114782   -1.823317   -1.078630
     28          1           0       -5.560630   -2.415855   -1.136964
     29          1           0       -5.587383   -2.464649    0.632162
     30          1           0       -4.631073   -3.651281   -0.271542
     31          6           0       -2.985230    0.780716   -0.124415
     32          6           0       -3.400677    2.251842   -0.090123
     33          6           0       -2.204426    3.203057   -0.045797
     34          1           0       -2.372147    0.559345    0.760186
     35          1           0       -2.344599    0.607523   -0.999939
     36          1           0       -4.040550    2.421510    0.785315
     37          1           0       -4.013947    2.470028   -0.973814
     38          1           0       -1.567947    3.062842   -0.925477
     39          1           0       -1.594702    3.014049    0.843648
     40          1           0       -2.524258    4.249475   -0.021773
 ---------------------------------------------------------------------

 SCF Done:  E(RHF) =  -470.732724478     A.U. after   11 cycles
 E2 =    -0.1583312694D+01 EUMP2 =    -0.47231603717239D+03

 The electronic state is 1-A.
 Alpha  occ. eigenvalues --  -11.21624 -11.21583 -11.21581 -11.21554 -11.21376
 Alpha  occ. eigenvalues --  -11.21373 -11.21313 -11.21288 -11.21084 -11.21076
 Alpha  occ. eigenvalues --  -11.21056 -11.20952  -1.08435  -1.08385  -1.03533
 Alpha  occ. eigenvalues --   -1.03487  -0.96003  -0.95917  -0.87021  -0.86940
 Alpha  occ. eigenvalues --   -0.79618  -0.79554  -0.78261  -0.78186  -0.65068
 Alpha  occ. eigenvalues --   -0.65017  -0.60949  -0.60869  -0.59344  -0.59339
 Alpha  occ. eigenvalues --   -0.57695  -0.57447  -0.55278  -0.55218  -0.52814
 Alpha  occ. eigenvalues --   -0.52611  -0.52408  -0.52278  -0.49938  -0.49876
 Alpha  occ. eigenvalues --   -0.47920  -0.47874  -0.46687  -0.46549  -0.45769
 Alpha  occ. eigenvalues --   -0.45753  -0.45723  -0.45620  -0.43797  -0.43611
 Alpha virt. eigenvalues --    0.21726   0.23107   0.23725   0.24140   0.25847
 Alpha virt. eigenvalues --    0.26345   0.26649   0.27479   0.27821   0.29397
 Alpha virt. eigenvalues --    0.30428   0.31349   0.31674   0.31936   0.32239

 Mulliken charges:
               1
     1  C   -0.298218
     2  C   -0.299608
     3  C   -0.475678
     4  H    0.149512
     5  H    0.149436
     6  H    0.151855
     7  H    0.151955
     8  H    0.155149
     9  H    0.155114
    10  H    0.160185
    11  C   -0.298489
    12  C   -0.299286
    13  C   -0.482733
    14  H    0.149349
    15  H    0.149686
    16  H    0.151590
    17  H    0.151757
    18  H    0.154393
    19  H    0.153673
    20  H    0.169726
    21  C   -0.297775
    22  C   -0.302187
    23  C   -0.475598
    24  H    0.149504
    25  H    0.149274
    26  H    0.153516
    27  H    0.151818
    28  H    0.155334
    29  H    0.155341
    30  H    0.160316
    31  C   -0.303806
    32  C   -0.299265
    33  C   -0.476007
    34  H    0.157358
    35  H    0.149023
    36  H    0.151791
    37  H    0.151613
    38  H    0.154837
    39  H    0.155348
    40  H    0.160197
 Sum of Mulliken charges =  -0.00000

 Dipole moment (field-independent basis, Debye):
    X=             -0.0309    Y=             -0.0057    Z=              0.0058  Tot=              0.0320
 Quadrupole moment (field-independent basis, Debye-Ang):
   XX=            -86.2782   YY=            -84.5226   ZZ=            -84.0843
   XY=             -0.7096   XZ=              0.5044   YZ=             -0.3137

 Normal termination of Gaussian 16 at Thu May  6 03:43:29 2021.
