 Gaussian 16, Revision A.03,
 Gaussian 16:  EM64L-G16RevA.03 25-Dec-2016

 -------------
 #p 6-31g* mp2
 -------------

 ------------------------------------------------------
 Input file generated by CHIRIPA (05-May-2021 14:51:10)
 ------------------------------------------------------
 Symbolic Z-matrix:
 Charge =  0 Multiplicity = 1

                         Standard orientation:
 ---------------------------------------------------------------------
 Center     Atomic      Atomic             Coordinates (Angstroms)
 Number     Number       Type             X           Y           Z
 ---------------------------------------------------------------------
      1          6           0        3.872697    0.585277    0.188950
      2          6           0        5.145808    0.417172   -0.641058
      3          6           0        5.968345    1.703063   -0.728868
      4          1           0        3.259930    1.385003   -0.249115
      5          1           0        4.144033    0.917869    1.200462
      6          1           0        4.872243    0.083664   -1.650291
      7          1           0        5.755524   -0.382377   -0.201078
      8          1           0        6.269787    2.036475    0.269416
      9          1           0        5.381486    2.505164   -1.188031
     10          1           0        6.873924    1.560333   -1.326709
     11          6           0        3.039753   -0.691639    0.285989
     12          6           0        1.766642   -0.523534    1.115997
     13          6           0        0.944104   -1.809425    1.203807
     14          1           0        2.768417   -1.024231   -0.725523
     15          1           0        3.652519   -1.491365    0.724053
     16          1           0        1.156925    0.276015    0.676017
     17          1           0        2.040207   -0.190026    2.125230
     18          1           0        1.530963   -2.611526    1.662970
     19          1           0        0.642663   -2.142837    0.205523
     20          1           0        0.038525   -1.666695    1.801648
     21          6           0       -2.873471   -0.438890   -0.278648
     22          6           0       -3.303888   -1.859012   -0.647406
     23          6           0       -2.126931   -2.831847   -0.725878
     24          1           0       -2.146950   -0.078661   -1.019828
     25          1           0       -2.349862   -0.461055    0.687135
     26          1           0       -3.827745   -1.833976   -1.611544
     27          1           0       -4.029614   -2.215830    0.094632
     28          1           0       -1.607449   -2.886445    0.236285
     29          1           0       -1.404433   -2.502423   -1.479585
     30          1           0       -2.457252   -3.841078   -0.990832
     31          6           0       -4.038979    0.545252   -0.196291
     32          6           0       -3.608561    1.965373    0.172467
     33          6           0       -4.785518    2.938209    0.250939
     34          1           0       -4.562587    0.567418   -1.162074
     35          1           0       -4.765500    0.185024    0.544890
     36          1           0       -2.882835    2.322191   -0.569571
     37          1           0       -3.084705    1.940339    1.136605
     38          1           0       -5.508017    2.608785    1.004646
     39          1           0       -5.305001    2.992806   -0.711224
     40          1           0       -4.455197    3.947440    0.515894
 ---------------------------------------------------------------------

 SCF Done:  E(RHF) =  -470.732036518     A.U. after   11 cycles
 E2 =    -0.1583474449D+01 EUMP2 =    -0.47231551096718D+03

 The electronic state is 1-A.
 Alpha  occ. eigenvalues --  -11.21607 -11.21588 -11.21566 -11.21544 -11.21399
 Alpha  occ. eigenvalues --  -11.21381 -11.21340 -11.21321 -11.21075 -11.21062
 Alpha  occ. eigenvalues --  -11.20957 -11.20939  -1.08430  -1.08391  -1.03554
 Alpha  occ. eigenvalues --   -1.03455  -0.96032  -0.95884  -0.87092  -0.86869
 Alpha  occ. eigenvalues --   -0.79704  -0.79449  -0.78248  -0.78196  -0.65069
 Alpha  occ. eigenvalues --   -0.65021  -0.60984  -0.60860  -0.59411  -0.59235
 Alpha  occ. eigenvalues --   -0.57672  -0.57500  -0.55337  -0.55167  -0.52775
 Alpha  occ. eigenvalues --   -0.52652  -0.52512  -0.52162  -0.49991  -0.49799
 Alpha  occ. eigenvalues --   -0.47992  -0.47741  -0.46653  -0.46500  -0.45830
 Alpha  occ. eigenvalues --   -0.45706  -0.45700  -0.45591  -0.43771  -0.43711
 Alpha virt. eigenvalues --    0.21479   0.23110   0.23617   0.25089   0.25592
 Alpha virt. eigenvalues --    0.26454   0.26872   0.27338   0.28192   0.29490
 Alpha virt. eigenvalues --    0.29780   0.31286   0.31758   0.31770   0.32429

 Mulliken charges:
               1
     1  C   -0.298251
     2  C   -0.299611
     3  C   -0.475679
     4  H    0.149573
     5  H    0.149505
     6  H    0.151819
     7  H    0.151935
     8  H    0.155173
     9  H    0.155117
    10  H    0.160196
    11  C   -0.298515
    12  C   -0.300433
    13  C   -0.480095
    14  H    0.149360
    15  H    0.149607
    16  H    0.152765
    17  H    0.151203
    18  H    0.154109
    19  H    0.162943
    20  H    0.158861
    21  C   -0.300130
    22  C   -0.299583
    23  C   -0.480581
    24  H    0.148928
    25  H    0.151657
    26  H    0.151409
    27  H    0.151585
    28  H    0.164876
    29  H    0.153003
    30  H    0.159320
    31  C   -0.298206
    32  C   -0.299602
    33  C   -0.475688
    34  H    0.149574
    35  H    0.149637
    36  H    0.151630
    37  H    0.151937
    38  H    0.155217
    39  H    0.155183
    40  H    0.160250
 Sum of Mulliken charges =  -0.00000

 Dipole moment (field-independent basis, Debye):
    X=             -0.0014    Y=             -0.0191    Z=              0.0070  Tot=              0.0204
 Quadrupole moment (field-independent basis, Debye-Ang):
   XX=            -85.7141   YY=            -86.0626   ZZ=            -83.1799
   XY=             -0.1269   XZ=              0.4125   YZ=             -0.4483

 Normal termination of Gaussian 16 at Thu May  6 02:13:20 2021.
