 Gaussian 16, Revision A.03,
 Gaussian 16:  EM64L-G16RevA.03 25-Dec-2016

 -------------
 #p 6-31g* mp2
 -------------

 ------------------------------------------------------
 Input file generated by CHIRIPA (05-May-2021 14:51:13)
 ------------------------------------------------------
 Symbolic Z-matrix:
 Charge =  0 Multiplicity = 1

                         Standard orientation:
 ---------------------------------------------------------------------
 Center     Atomic      Atomic             Coordinates (Angstroms)
 Number     Number       Type             X           Y           Z
 ---------------------------------------------------------------------
      1          6           0        4.218598    0.686854   -0.030124
      2          6           0        2.759318    0.625852   -0.482634
      3          6           0        2.042601    1.969923   -0.350038
      4          1           0        4.258032    1.023519    1.014887
      5          1           0        4.747691    1.445655   -0.623148
      6          1           0        2.233470   -0.133582    0.110123
      7          1           0        2.723343    0.289109   -1.526629
      8          1           0        2.541505    2.733884   -0.955066
      9          1           0        2.048849    2.308792    0.690986
     10          1           0        1.000843    1.903560   -0.678970
     11          6           0        4.948476   -0.649178   -0.156705
     12          6           0        6.407756   -0.588176    0.295805
     13          6           0        7.124474   -1.932247    0.163210
     14          1           0        4.419384   -1.407979    0.436320
     15          1           0        4.909042   -0.985843   -1.201715
     16          1           0        6.443731   -0.251433    1.339801
     17          1           0        6.933604    0.171258   -0.296951
     18          1           0        7.118225   -2.271116   -0.877814
     19          1           0        6.625569   -2.696208    0.768238
     20          1           0        8.166232   -1.865884    0.492142
     21          6           0       -5.225484   -0.297805    0.399213
     22          6           0       -6.156944   -0.941265   -0.628564
     23          6           0       -7.436921   -1.494690   -0.001528
     24          1           0       -4.968063   -1.040354    1.166873
     25          1           0       -5.762025    0.511071    0.914227
     26          1           0       -5.618364   -1.747779   -1.142453
     27          1           0       -6.412024   -0.197152   -1.393970
     28          1           0       -7.998542   -0.697043    0.495407
     29          1           0       -7.200372   -2.256480    0.748352
     30          1           0       -8.088219   -1.950103   -0.754036
     31          6           0       -3.941590    0.260129   -0.212385
     32          6           0       -3.010131    0.903589    0.815393
     33          6           0       -1.730154    1.457014    0.188356
     34          1           0       -3.405050   -0.548747   -0.727399
     35          1           0       -4.199011    1.002678   -0.980044
     36          1           0       -2.755051    0.159476    1.580799
     37          1           0       -3.548710    1.710103    1.329282
     38          1           0       -1.966702    2.218805   -0.561525
     39          1           0       -1.168533    0.659367   -0.308578
     40          1           0       -1.078855    1.912428    0.940865
 ---------------------------------------------------------------------

 SCF Done:  E(RHF) =  -470.732917810     A.U. after   11 cycles
 E2 =    -0.1582467121D+01 EUMP2 =    -0.47231538493121D+03

 The electronic state is 1-A.
 Alpha  occ. eigenvalues --  -11.21604 -11.21600 -11.21577 -11.21531 -11.21409
 Alpha  occ. eigenvalues --  -11.21363 -11.21349 -11.21301 -11.21074 -11.21071
 Alpha  occ. eigenvalues --  -11.21054 -11.20885  -1.08436  -1.08381  -1.03551
 Alpha  occ. eigenvalues --   -1.03457  -0.96041  -0.95869  -0.87102  -0.86847
 Alpha  occ. eigenvalues --   -0.79656  -0.79489  -0.78249  -0.78197  -0.65067
 Alpha  occ. eigenvalues --   -0.65012  -0.60955  -0.60860  -0.59492  -0.59172
 Alpha  occ. eigenvalues --   -0.57629  -0.57511  -0.55294  -0.55186  -0.53005
 Alpha  occ. eigenvalues --   -0.52473  -0.52412  -0.52134  -0.49929  -0.49847
 Alpha  occ. eigenvalues --   -0.47970  -0.47793  -0.46629  -0.46574  -0.45791
 Alpha  occ. eigenvalues --   -0.45736  -0.45714  -0.45666  -0.43925  -0.43546
 Alpha virt. eigenvalues --    0.22321   0.22983   0.23565   0.24806   0.26543
 Alpha virt. eigenvalues --    0.26686   0.26898   0.27355   0.27641   0.29138
 Alpha virt. eigenvalues --    0.30149   0.31153   0.31305   0.31864   0.32308

 Mulliken charges:
               1
     1  C   -0.298169
     2  C   -0.299690
     3  C   -0.483065
     4  H    0.149457
     5  H    0.149491
     6  H    0.151393
     7  H    0.151321
     8  H    0.153780
     9  H    0.153425
    10  H    0.172961
    11  C   -0.298193
    12  C   -0.299596
    13  C   -0.475667
    14  H    0.149279
    15  H    0.149497
    16  H    0.151871
    17  H    0.151903
    18  H    0.155121
    19  H    0.155082
    20  H    0.160166
    21  C   -0.298281
    22  C   -0.299629
    23  C   -0.475706
    24  H    0.149618
    25  H    0.149552
    26  H    0.151928
    27  H    0.151947
    28  H    0.155190
    29  H    0.155170
    30  H    0.160267
    31  C   -0.298482
    32  C   -0.300664
    33  C   -0.478270
    34  H    0.149533
    35  H    0.149625
    36  H    0.151892
    37  H    0.151947
    38  H    0.155128
    39  H    0.155383
    40  H    0.163484
 Sum of Mulliken charges =  -0.00000

 Dipole moment (field-independent basis, Debye):
    X=             -0.0410    Y=              0.0124    Z=             -0.0020  Tot=              0.0429
 Quadrupole moment (field-independent basis, Debye-Ang):
   XX=            -86.0998   YY=            -84.9357   ZZ=            -83.9465
   XY=             -0.2482   XZ=              0.1125   YZ=             -0.2754

 Normal termination of Gaussian 16 at Thu May  6 02:22:13 2021.
