 Gaussian 16, Revision A.03,
 Gaussian 16:  EM64L-G16RevA.03 25-Dec-2016

 -------------
 #p 6-31g* mp2
 -------------

 ------------------------------------------------------
 Input file generated by CHIRIPA (05-May-2021 14:53:13)
 ------------------------------------------------------
 Symbolic Z-matrix:
 Charge =  0 Multiplicity = 1

                         Standard orientation:
 ---------------------------------------------------------------------
 Center     Atomic      Atomic             Coordinates (Angstroms)
 Number     Number       Type             X           Y           Z
 ---------------------------------------------------------------------
      1          6           0       -3.570853   -0.181265   -0.314439
      2          6           0       -3.238093   -1.510199    0.364670
      3          6           0       -4.448885   -2.437404    0.474531
      4          1           0       -4.369306    0.321122    0.248611
      5          1           0       -3.973374   -0.380618   -1.317250
      6          1           0       -2.835027   -1.308344    1.365374
      7          1           0       -2.440206   -2.009391   -0.199953
      8          1           0       -4.848879   -2.667956   -0.518168
      9          1           0       -5.245944   -1.962925    1.056053
     10          1           0       -4.188515   -3.381552    0.963050
     11          6           0       -2.370552    0.756429   -0.431643
     12          6           0       -2.703312    2.085363   -1.110752
     13          6           0       -1.492520    3.012568   -1.220613
     14          1           0       -1.968031    0.955782    0.571168
     15          1           0       -1.572098    0.254042   -0.994693
     16          1           0       -3.501199    2.584555   -0.546129
     17          1           0       -3.106378    1.883508   -2.111456
     18          1           0       -0.695461    2.538089   -1.802135
     19          1           0       -1.092525    3.243120   -0.227914
     20          1           0       -1.752890    3.956716   -1.709133
     21          6           0        1.066725    0.890428    2.175481
     22          6           0        2.310287    1.387438    1.771681
     23          6           0        3.014060    0.777568    0.728940
     24          6           0        2.442107   -0.332477    0.109297
     25          6           0        1.205078   -0.851179    0.488769
     26          6           0        0.519054   -0.225328    1.533866
     27          1           0        0.526911    1.370397    2.986422
     28          1           0        2.738048    2.253800    2.268153
     29          1           0        3.978518    1.141585    0.396177
     30          1           0        0.804294   -1.716380   -0.025253
     31          1           0       -0.446531   -0.613487    1.845349
     32          7           0        3.177764   -0.986579   -0.995855
     33          8           0        2.652236   -1.963206   -1.525625
     34          8           0        4.265972   -0.510252   -1.311376
 ---------------------------------------------------------------------

 SCF Done:  E(RHF) =  -669.534363391     A.U. after   15 cycles
 E2 =    -0.2093954504D+01 EUMP2 =    -0.67162831789505D+03

 The electronic state is 1-A.
 Alpha  occ. eigenvalues --  -20.60749 -20.60744 -15.85800 -11.31153 -11.27683
 Alpha  occ. eigenvalues --  -11.27666 -11.27426 -11.26737 -11.26661 -11.22495
 Alpha  occ. eigenvalues --  -11.22005 -11.21989 -11.21864 -11.21691 -11.21381
 Alpha  occ. eigenvalues --   -1.59824  -1.39378  -1.19307  -1.09042  -1.08706
 Alpha  occ. eigenvalues --   -1.04702  -1.04090  -0.96501  -0.95550  -0.87521
 Alpha  occ. eigenvalues --   -0.86115  -0.82389  -0.80198  -0.78892  -0.77395
 Alpha  occ. eigenvalues --   -0.72019  -0.71147  -0.70419  -0.65729  -0.64956
 Alpha  occ. eigenvalues --   -0.64665  -0.62062  -0.61488  -0.59885  -0.58130
 Alpha  occ. eigenvalues --   -0.55777  -0.55216  -0.53260  -0.53149  -0.52823
 Alpha  occ. eigenvalues --   -0.52781  -0.50448  -0.48784  -0.48775  -0.48488
 Alpha  occ. eigenvalues --   -0.47239  -0.46336  -0.46282  -0.44786  -0.44338
 Alpha  occ. eigenvalues --   -0.37267  -0.36215
 Alpha virt. eigenvalues --    0.05064   0.11248   0.16531   0.19736   0.22842
 Alpha virt. eigenvalues --    0.23593   0.24666   0.25329   0.27443   0.28590
 Alpha virt. eigenvalues --    0.29335   0.30053   0.31237   0.31471   0.31954

 Mulliken charges:
               1
     1  C   -0.298036
     2  C   -0.304358
     3  C   -0.475274
     4  H    0.150239
     5  H    0.153928
     6  H    0.143024
     7  H    0.152221
     8  H    0.159557
     9  H    0.156586
    10  H    0.161689
    11  C   -0.299780
    12  C   -0.300200
    13  C   -0.475213
    14  H    0.143280
    15  H    0.153294
    16  H    0.150895
    17  H    0.154552
    18  H    0.159125
    19  H    0.151746
    20  H    0.161247
    21  C   -0.174411
    22  C   -0.217445
    23  C   -0.171659
    24  C    0.158628
    25  C   -0.175496
    26  C   -0.215037
    27  H    0.224967
    28  H    0.223204
    29  H    0.275244
    30  H    0.275502
    31  H    0.231184
    32  N    0.488023
    33  O   -0.460822
    34  O   -0.460406
 Sum of Mulliken charges =  -0.00000

 Dipole moment (field-independent basis, Debye):
    X=             -2.7045    Y=              2.2997    Z=              3.7876  Tot=              5.1912
 Quadrupole moment (field-independent basis, Debye-Ang):
   XX=           -105.2117   YY=            -94.8890   ZZ=            -93.7421
   XY=              8.9292   XZ=              9.8768   YZ=             -0.1589

 Normal termination of Gaussian 16 at Wed May  5 21:49:10 2021.
