 Gaussian 16, Revision A.03,
 Gaussian 16:  EM64L-G16RevA.03 25-Dec-2016

 -------------
 #p 6-31g* mp2
 -------------

 ------------------------------------------------------
 Input file generated by CHIRIPA (05-May-2021 14:55:25)
 ------------------------------------------------------
 Symbolic Z-matrix:
 Charge =  0 Multiplicity = 1

                         Standard orientation:
 ---------------------------------------------------------------------
 Center     Atomic      Atomic             Coordinates (Angstroms)
 Number     Number       Type             X           Y           Z
 ---------------------------------------------------------------------
      1          6           0        4.719606    2.236964    0.058992
      2          6           0        3.439846    2.066698    0.597272
      3          6           0        2.795893    0.828219    0.519535
      4          6           0        3.463927   -0.223170   -0.106246
      5          6           0        4.739152   -0.084946   -0.652126
      6          6           0        5.364038    1.162493   -0.562893
      7          1           0        5.212438    3.202524    0.123844
      8          1           0        2.936970    2.899376    1.080807
      9          1           0        1.805295    0.668684    0.927802
     10          1           0        5.215135   -0.933648   -1.128113
     11          1           0        6.357932    1.291818   -0.981814
     12          7           0        2.792295   -1.539034   -0.194628
     13          8           0        3.402202   -2.449566   -0.751029
     14          8           0        1.668681   -1.634961    0.294173
     15          6           0       -3.820024   -0.034033    0.012964
     16          6           0       -3.081860   -0.687302    1.181869
     17          6           0       -1.571282   -0.764272    0.958207
     18          1           0       -3.612286   -0.599632   -0.905669
     19          1           0       -3.419863    0.977025   -0.145241
     20          1           0       -3.484246   -1.696312    1.338707
     21          1           0       -3.291534   -0.120193    2.097860
     22          1           0       -1.150246    0.237333    0.823602
     23          1           0       -1.344053   -1.347741    0.060136
     24          1           0       -1.063379   -1.234679    1.805916
     25          6           0       -5.331002    0.050159    0.221736
     26          6           0       -6.069168    0.703428   -0.947168
     27          6           0       -7.579745    0.780397   -0.723506
     28          1           0       -5.731165   -0.960899    0.379941
     29          1           0       -5.538742    0.615758    1.140370
     30          1           0       -5.859494    0.136319   -1.863160
     31          1           0       -5.666781    1.712438   -1.104008
     32          1           0       -7.806974    1.363867    0.174564
     33          1           0       -8.000782   -0.221207   -0.588901
     34          1           0       -8.087648    1.250805   -1.571216
 ---------------------------------------------------------------------

 SCF Done:  E(RHF) =  -669.535640589     A.U. after   15 cycles
 E2 =    -0.2091136229D+01 EUMP2 =    -0.67162677681788D+03

 The electronic state is 1-A.
 Alpha  occ. eigenvalues --  -20.60787 -20.60780 -15.85827 -11.31189 -11.27764
 Alpha  occ. eigenvalues --  -11.27746 -11.27511 -11.26780 -11.26769 -11.21330
 Alpha  occ. eigenvalues --  -11.21033 -11.20966 -11.20898 -11.20850 -11.20127
 Alpha  occ. eigenvalues --   -1.59858  -1.39410  -1.19365  -1.08763  -1.07998
 Alpha  occ. eigenvalues --   -1.04767  -1.03038  -0.95620  -0.95443  -0.86474
 Alpha  occ. eigenvalues --   -0.86165  -0.82428  -0.79114  -0.77820  -0.77448
 Alpha  occ. eigenvalues --   -0.72045  -0.71177  -0.70474  -0.65019  -0.64775
 Alpha  occ. eigenvalues --   -0.64635  -0.62115  -0.60442  -0.58854  -0.57078
 Alpha  occ. eigenvalues --   -0.55274  -0.54762  -0.53098  -0.52862  -0.52117
 Alpha  occ. eigenvalues --   -0.51887  -0.49429  -0.48800  -0.48798  -0.47419
 Alpha  occ. eigenvalues --   -0.46165  -0.45350  -0.45280  -0.44780  -0.43278
 Alpha  occ. eigenvalues --   -0.37349  -0.36371
 Alpha virt. eigenvalues --    0.05043   0.11279   0.16526   0.21049   0.23247
 Alpha virt. eigenvalues --    0.24437   0.26043   0.27191   0.27666   0.27946
 Alpha virt. eigenvalues --    0.29257   0.30594   0.31553   0.32121   0.32725

 Mulliken charges:
               1
     1  C   -0.170565
     2  C   -0.219435
     3  C   -0.173083
     4  C    0.157118
     5  C   -0.170722
     6  C   -0.218754
     7  H    0.225558
     8  H    0.223534
     9  H    0.280570
    10  H    0.275534
    11  H    0.223403
    12  N    0.492069
    13  O   -0.460575
    14  O   -0.462807
    15  C   -0.297506
    16  C   -0.302503
    17  C   -0.468672
    18  H    0.151073
    19  H    0.145594
    20  H    0.152540
    21  H    0.146751
    22  H    0.139737
    23  H    0.168404
    24  H    0.165669
    25  C   -0.297690
    26  C   -0.299205
    27  C   -0.475433
    28  H    0.149932
    29  H    0.147981
    30  H    0.152311
    31  H    0.150242
    32  H    0.154291
    33  H    0.155416
    34  H    0.159223
 Sum of Mulliken charges =  -0.00000

 Dipole moment (field-independent basis, Debye):
    X=              2.5211    Y=              4.4987    Z=              0.2857  Tot=              5.1649
 Quadrupole moment (field-independent basis, Debye-Ang):
   XX=            -77.4515   YY=            -95.7599   ZZ=            -94.3005
   XY=             14.6217   XZ=             -1.2279   YZ=              0.8698

 Normal termination of Gaussian 16 at Thu May  6 16:04:51 2021.
