 Gaussian 16, Revision A.03,
 Gaussian 16:  EM64L-G16RevA.03 25-Dec-2016

 -------------
 #p 6-31g* mp2
 -------------

 ------------------------------------------------------
 Input file generated by CHIRIPA (05-May-2021 14:53:16)
 ------------------------------------------------------
 Symbolic Z-matrix:
 Charge =  0 Multiplicity = 1

                         Standard orientation:
 ---------------------------------------------------------------------
 Center     Atomic      Atomic             Coordinates (Angstroms)
 Number     Number       Type             X           Y           Z
 ---------------------------------------------------------------------
      1          6           0        2.978751   -0.656039   -0.776418
      2          6           0        1.986400   -1.607929   -0.107740
      3          6           0        1.230443   -2.476230   -1.113908
      4          1           0        2.439455   -0.013084   -1.485442
      5          1           0        3.695754   -1.241556   -1.368425
      6          1           0        1.272323   -1.020884    0.483942
      7          1           0        2.528092   -2.248562    0.599915
      8          1           0        1.927938   -3.086562   -1.696658
      9          1           0        0.665034   -1.851908   -1.813290
     10          1           0        0.526478   -3.149116   -0.614389
     11          6           0        3.742194    0.218663    0.216446
     12          6           0        4.734544    1.170553   -0.452233
     13          6           0        5.490501    2.038855    0.553936
     14          1           0        3.025191    0.804180    0.808453
     15          1           0        4.281490   -0.424292    0.925469
     16          1           0        4.192853    1.811187   -1.159887
     17          1           0        5.448622    0.583508   -1.043915
     18          1           0        6.055911    1.414532    1.253317
     19          1           0        4.793007    2.649186    1.136686
     20          1           0        6.194466    2.711740    0.054417
     21          6           0       -3.633883    2.234779   -0.824822
     22          6           0       -3.721569    1.003540   -1.482763
     23          6           0       -3.166407   -0.146579   -0.913929
     24          6           0       -2.527869   -0.028683    0.319627
     25          6           0       -2.424152    1.183723    0.999778
     26          6           0       -2.986595    2.320789    0.412167
     27          1           0       -4.067975    3.123149   -1.273999
     28          1           0       -4.223671    0.933766   -2.443527
     29          1           0       -3.219859   -1.112385   -1.401553
     30          1           0       -1.917421    1.221896    1.956431
     31          1           0       -2.916985    3.275661    0.925409
     32          7           0       -1.936290   -1.239353    0.931765
     33          8           0       -1.378979   -1.108993    2.019445
     34          8           0       -2.041123   -2.295712    0.312287
 ---------------------------------------------------------------------

 SCF Done:  E(RHF) =  -669.536184534     A.U. after   15 cycles
 E2 =    -0.2092219150D+01 EUMP2 =    -0.67162840368403D+03

 The electronic state is 1-A.
 Alpha  occ. eigenvalues --  -20.60988 -20.60968 -15.85987 -11.31308 -11.27868
 Alpha  occ. eigenvalues --  -11.27861 -11.27603 -11.26873 -11.26862 -11.21269
 Alpha  occ. eigenvalues --  -11.20891 -11.20823 -11.20737 -11.20598 -11.19884
 Alpha  occ. eigenvalues --   -1.60027  -1.39584  -1.19473  -1.08879  -1.07836
 Alpha  occ. eigenvalues --   -1.04867  -1.02869  -0.95726  -0.95318  -0.86342
 Alpha  occ. eigenvalues --   -0.86267  -0.82557  -0.78957  -0.77617  -0.77603
 Alpha  occ. eigenvalues --   -0.72217  -0.71353  -0.70581  -0.65128  -0.64870
 Alpha  occ. eigenvalues --   -0.64482  -0.62214  -0.60283  -0.58702  -0.56883
 Alpha  occ. eigenvalues --   -0.55371  -0.54644  -0.53201  -0.52959  -0.51966
 Alpha  occ. eigenvalues --   -0.51751  -0.49325  -0.48980  -0.48959  -0.47275
 Alpha  occ. eigenvalues --   -0.46080  -0.45297  -0.45139  -0.44689  -0.43063
 Alpha  occ. eigenvalues --   -0.37450  -0.36468
 Alpha virt. eigenvalues --    0.04882   0.11175   0.16339   0.21302   0.23351
 Alpha virt. eigenvalues --    0.24888   0.27133   0.27214   0.27961   0.28225
 Alpha virt. eigenvalues --    0.28733   0.30879   0.31995   0.32093   0.32599

 Mulliken charges:
               1
     1  C   -0.297457
     2  C   -0.301222
     3  C   -0.481801
     4  H    0.144635
     5  H    0.147623
     6  H    0.155568
     7  H    0.153170
     8  H    0.147953
     9  H    0.144624
    10  H    0.184382
    11  C   -0.297140
    12  C   -0.298920
    13  C   -0.475089
    14  H    0.148080
    15  H    0.150604
    16  H    0.149318
    17  H    0.151542
    18  H    0.155748
    19  H    0.153525
    20  H    0.158452
    21  C   -0.170557
    22  C   -0.218623
    23  C   -0.170812
    24  C    0.158143
    25  C   -0.171242
    26  C   -0.218589
    27  H    0.226082
    28  H    0.223980
    29  H    0.276325
    30  H    0.275870
    31  H    0.223884
    32  N    0.488614
    33  O   -0.458932
    34  O   -0.457737
 Sum of Mulliken charges =  -0.00000

 Dipole moment (field-independent basis, Debye):
    X=             -2.3324    Y=              4.1521    Z=             -2.0353  Tot=              5.1790
 Quadrupole moment (field-independent basis, Debye-Ang):
   XX=            -84.8030   YY=            -93.6320   ZZ=            -93.9504
   XY=            -11.0793   XZ=              6.2856   YZ=              3.1898

 Normal termination of Gaussian 16 at Thu May  6 09:06:01 2021.
