 Gaussian 16, Revision A.03,
 Gaussian 16:  EM64L-G16RevA.03 25-Dec-2016

 -------------
 #p 6-31g* mp2
 -------------

 ------------------------------------------------------
 Input file generated by CHIRIPA (05-May-2021 14:55:23)
 ------------------------------------------------------
 Symbolic Z-matrix:
 Charge =  0 Multiplicity = 1

                         Standard orientation:
 ---------------------------------------------------------------------
 Center     Atomic      Atomic             Coordinates (Angstroms)
 Number     Number       Type             X           Y           Z
 ---------------------------------------------------------------------
      1          6           0       -0.778558    2.892927   -0.042887
      2          6           0       -1.434281    2.392773   -1.172664
      3          6           0       -2.127277    1.180049   -1.112625
      4          6           0       -2.144090    0.490525    0.098806
      5          6           0       -1.500591    0.962698    1.241720
      6          6           0       -0.813744    2.177554    1.158580
      7          1           0       -0.242610    3.835828   -0.098499
      8          1           0       -1.408642    2.946193   -2.107069
      9          1           0       -2.643576    0.769778   -1.972004
     10          1           0       -1.543929    0.388391    2.159169
     11          1           0       -0.305409    2.563562    2.037579
     12          7           0       -2.874479   -0.794460    0.174594
     13          8           0       -2.874280   -1.382827    1.253696
     14          8           0       -3.433327   -1.188934   -0.846541
     15          6           0        2.886318   -0.198711   -0.184641
     16          6           0        4.374439   -0.129768    0.159930
     17          6           0        4.952116    1.277577    0.006749
     18          1           0        2.738784    0.149483   -1.216116
     19          1           0        2.334676    0.497489    0.462190
     20          1           0        4.922938   -0.826906   -0.486416
     21          1           0        4.518473   -0.478348    1.190639
     22          1           0        4.430859    1.981553    0.663490
     23          1           0        4.837624    1.631014   -1.023093
     24          1           0        6.017007    1.303989    0.258085
     25          6           0        2.294386   -1.599193   -0.036325
     26          6           0        0.806266   -1.668136   -0.380896
     27          6           0        0.228589   -3.075481   -0.227715
     28          1           0        2.846029   -2.295393   -0.683157
     29          1           0        2.441921   -1.947386    0.995150
     30          1           0        0.662232   -1.319556   -1.411606
     31          1           0        0.257767   -0.970998    0.265449
     32          1           0        0.343081   -3.428918    0.802127
     33          1           0        0.749845   -3.779457   -0.884457
     34          1           0       -0.836302   -3.101893   -0.479052
 ---------------------------------------------------------------------

 SCF Done:  E(RHF) =  -669.534453393     A.U. after   15 cycles
 E2 =    -0.2095276516D+01 EUMP2 =    -0.67162972990979D+03

 The electronic state is 1-A.
 Alpha  occ. eigenvalues --  -20.60894 -20.60880 -15.85909 -11.31221 -11.27821
 Alpha  occ. eigenvalues --  -11.27807 -11.27582 -11.26868 -11.26836 -11.21750
 Alpha  occ. eigenvalues --  -11.21449 -11.21361 -11.21263 -11.21199 -11.20380
 Alpha  occ. eigenvalues --   -1.59951  -1.39505  -1.19444  -1.08840  -1.08378
 Alpha  occ. eigenvalues --   -1.04847  -1.03422  -0.95856  -0.95673  -0.86862
 Alpha  occ. eigenvalues --   -0.86243  -0.82511  -0.79519  -0.78204  -0.77559
 Alpha  occ. eigenvalues --   -0.72139  -0.71301  -0.70548  -0.65110  -0.65015
 Alpha  occ. eigenvalues --   -0.64846  -0.62192  -0.60838  -0.59248  -0.57456
 Alpha  occ. eigenvalues --   -0.55343  -0.55153  -0.53282  -0.52933  -0.52484
 Alpha  occ. eigenvalues --   -0.52268  -0.49805  -0.48903  -0.48898  -0.47802
 Alpha  occ. eigenvalues --   -0.46579  -0.45685  -0.45663  -0.44880  -0.43653
 Alpha  occ. eigenvalues --   -0.37314  -0.36393
 Alpha virt. eigenvalues --    0.04928   0.11099   0.16437   0.21267   0.22902
 Alpha virt. eigenvalues --    0.24390   0.26503   0.27215   0.27600   0.27958
 Alpha virt. eigenvalues --    0.28329   0.30802   0.31502   0.31750   0.32270

 Mulliken charges:
               1
     1  C   -0.170190
     2  C   -0.217626
     3  C   -0.170705
     4  C    0.163953
     5  C   -0.178232
     6  C   -0.215414
     7  H    0.226329
     8  H    0.223830
     9  H    0.275765
    10  H    0.275578
    11  H    0.223847
    12  N    0.490370
    13  O   -0.459626
    14  O   -0.460704
    15  C   -0.297569
    16  C   -0.299540
    17  C   -0.474753
    18  H    0.147967
    19  H    0.145430
    20  H    0.153266
    21  H    0.151900
    22  H    0.150691
    23  H    0.154209
    24  H    0.161032
    25  C   -0.296902
    26  C   -0.308621
    27  C   -0.479000
    28  H    0.149723
    29  H    0.148978
    30  H    0.148968
    31  H    0.154359
    32  H    0.156515
    33  H    0.151857
    34  H    0.174316
 Sum of Mulliken charges =  -0.00000

 Dipole moment (field-independent basis, Debye):
    X=              2.4040    Y=              4.5133    Z=             -0.2746  Tot=              5.1210
 Quadrupole moment (field-independent basis, Debye-Ang):
   XX=           -106.7761   YY=            -91.5820   ZZ=            -89.2756
   XY=             -9.1587   XZ=              2.0849   YZ=             -0.0195

 Normal termination of Gaussian 16 at Thu May  6 01:33:33 2021.
