 Gaussian 16, Revision A.03,
 Gaussian 16:  EM64L-G16RevA.03 25-Dec-2016

 -------------
 #p 6-31g* mp2
 -------------

 ------------------------------------------------------
 Input file generated by CHIRIPA (05-May-2021 14:51:09)
 ------------------------------------------------------
 Symbolic Z-matrix:
 Charge =  0 Multiplicity = 1

                         Standard orientation:
 ---------------------------------------------------------------------
 Center     Atomic      Atomic             Coordinates (Angstroms)
 Number     Number       Type             X           Y           Z
 ---------------------------------------------------------------------
      1          6           0        2.308120    0.962339   -0.642416
      2          6           0        1.614724    2.315455   -0.480350
      3          6           0        0.994280    2.821539   -1.782934
      4          1           0        3.086889    1.046498   -1.412727
      5          1           0        1.580249    0.227216   -1.012811
      6          1           0        2.343352    3.047478   -0.109055
      7          1           0        0.837643    2.228115    0.289801
      8          1           0        0.246992    2.112942   -2.154487
      9          1           0        1.761256    2.936959   -2.555608
     10          1           0        0.503923    3.790139   -1.644288
     11          6           0        2.933291    0.443189    0.651173
     12          6           0        3.626687   -0.909927    0.489108
     13          6           0        4.247131   -1.416010    1.791691
     14          1           0        3.661162    1.178313    1.021568
     15          1           0        2.154522    0.359031    1.421484
     16          1           0        4.403768   -0.822587   -0.281043
     17          1           0        2.898059   -1.641949    0.117812
     18          1           0        3.480155   -1.531431    2.564366
     19          1           0        4.994419   -0.707413    2.163244
     20          1           0        4.737488   -2.384611    1.653045
     21          6           0       -2.712183   -0.193061    0.557107
     22          6           0       -4.102717    0.442506    0.578488
     23          6           0       -4.270321    1.460026    1.707361
     24          1           0       -2.524085   -0.680914    1.523318
     25          1           0       -1.956612    0.598071    0.454070
     26          1           0       -4.855512   -0.349704    0.680062
     27          1           0       -4.287601    0.928738   -0.387955
     28          1           0       -3.541220    2.270524    1.606839
     29          1           0       -4.112358    0.984817    2.680925
     30          1           0       -5.271559    1.902035    1.704056
     31          6           0       -2.529228   -1.212468   -0.565864
     32          6           0       -1.138695   -1.848035   -0.587245
     33          6           0       -0.971089   -2.865554   -1.716119
     34          1           0       -3.284800   -2.003600   -0.462828
     35          1           0       -2.717325   -0.724614   -1.532075
     36          1           0       -0.953810   -2.334268    0.379198
     37          1           0       -0.385899   -1.055825   -0.688820
     38          1           0       -1.129053   -2.390346   -2.689682
     39          1           0       -1.700191   -3.676053   -1.615597
     40          1           0        0.030148   -3.307564   -1.712813
 ---------------------------------------------------------------------

 SCF Done:  E(RHF) =  -470.733426650     A.U. after   11 cycles
 E2 =    -0.1583497585D+01 EUMP2 =    -0.47231692423506D+03

 The electronic state is 1-A.
 Alpha  occ. eigenvalues --  -11.21667 -11.21645 -11.21640 -11.21593 -11.21467
 Alpha  occ. eigenvalues --  -11.21408 -11.21408 -11.21347 -11.21131 -11.21129
 Alpha  occ. eigenvalues --  -11.21100 -11.21063  -1.08499  -1.08436  -1.03585
 Alpha  occ. eigenvalues --   -1.03547  -0.96032  -0.95995  -0.87047  -0.87012
 Alpha  occ. eigenvalues --   -0.79668  -0.79596  -0.78343  -0.78221  -0.65287
 Alpha  occ. eigenvalues --   -0.64932  -0.61023  -0.60906  -0.59400  -0.59364
 Alpha  occ. eigenvalues --   -0.57654  -0.57597  -0.55372  -0.55234  -0.52722
 Alpha  occ. eigenvalues --   -0.52692  -0.52466  -0.52412  -0.50014  -0.49913
 Alpha  occ. eigenvalues --   -0.48006  -0.47921  -0.46845  -0.46567  -0.46048
 Alpha  occ. eigenvalues --   -0.45812  -0.45742  -0.45363  -0.43838  -0.43799
 Alpha virt. eigenvalues --    0.19324   0.22829   0.23841   0.24289   0.25800
 Alpha virt. eigenvalues --    0.26719   0.26892   0.27971   0.28249   0.29452
 Alpha virt. eigenvalues --    0.30514   0.31613   0.31634   0.31750   0.32489

 Mulliken charges:
               1
     1  C   -0.305808
     2  C   -0.300938
     3  C   -0.475828
     4  H    0.150042
     5  H    0.156358
     6  H    0.152435
     7  H    0.152546
     8  H    0.154263
     9  H    0.155661
    10  H    0.160372
    11  C   -0.298103
    12  C   -0.300236
    13  C   -0.475735
    14  H    0.149504
    15  H    0.150360
    16  H    0.151819
    17  H    0.152538
    18  H    0.155331
    19  H    0.155133
    20  H    0.160174
    21  C   -0.299830
    22  C   -0.299663
    23  C   -0.475804
    24  H    0.149689
    25  H    0.150186
    26  H    0.152132
    27  H    0.152257
    28  H    0.155288
    29  H    0.155166
    30  H    0.160476
    31  C   -0.297638
    32  C   -0.308992
    33  C   -0.475457
    34  H    0.149983
    35  H    0.149685
    36  H    0.152043
    37  H    0.159217
    38  H    0.155361
    39  H    0.155673
    40  H    0.160340
 Sum of Mulliken charges =  -0.00000

 Dipole moment (field-independent basis, Debye):
    X=             -0.0083    Y=             -0.0059    Z=              0.0003  Tot=              0.0102
 Quadrupole moment (field-independent basis, Debye-Ang):
   XX=            -84.1649   YY=            -84.8084   ZZ=            -85.6628
   XY=              1.1569   XZ=             -0.6387   YZ=             -0.7244

 Normal termination of Gaussian 16 at Wed May  5 15:06:55 2021.
