 Gaussian 16, Revision A.03,
 Gaussian 16:  EM64L-G16RevA.03 25-Dec-2016

 -------------
 #p 6-31g* mp2
 -------------

 ------------------------------------------------------
 Input file generated by CHIRIPA (05-May-2021 14:53:11)
 ------------------------------------------------------
 Symbolic Z-matrix:
 Charge =  0 Multiplicity = 1

                         Standard orientation:
 ---------------------------------------------------------------------
 Center     Atomic      Atomic             Coordinates (Angstroms)
 Number     Number       Type             X           Y           Z
 ---------------------------------------------------------------------
      1          6           0       -3.883269   -0.500086   -0.036693
      2          6           0       -3.572684   -1.898970   -0.570215
      3          6           0       -4.518882   -2.965697   -0.018313
      4          1           0       -3.825106   -0.511706    1.060315
      5          1           0       -4.919795   -0.239652   -0.292004
      6          1           0       -2.536614   -2.156131   -0.315179
      7          1           0       -3.631405   -1.883974   -1.666091
      8          1           0       -5.555639   -2.736171   -0.284874
      9          1           0       -4.454627   -3.009875    1.073713
     10          1           0       -4.278917   -3.958035   -0.412701
     11          6           0       -2.945860    0.577187   -0.579348
     12          6           0       -3.256445    1.976071   -0.045826
     13          6           0       -2.310246    3.042797   -0.597729
     14          1           0       -1.909334    0.316752   -0.324038
     15          1           0       -3.004023    0.588806   -1.676356
     16          1           0       -3.197724    1.961074    1.050050
     17          1           0       -4.292515    2.233231   -0.300862
     18          1           0       -2.374501    3.086975   -1.689755
     19          1           0       -1.273490    2.813272   -0.331167
     20          1           0       -2.550212    4.035135   -0.203340
     21          6           0        4.405008   -0.877847   -1.380713
     22          6           0        3.718600    0.311107   -1.648581
     23          6           0        2.753919    0.790273   -0.757324
     24          6           0        2.499665    0.051838    0.397388
     25          6           0        3.166751   -1.136152    0.692287
     26          6           0        4.127382   -1.596415   -0.213192
     27          1           0        5.152823   -1.242733   -2.078587
     28          1           0        3.932141    0.871239   -2.554505
     29          1           0        2.207703    1.707717   -0.939977
     30          1           0        2.932101   -1.672583    1.603659
     31          1           0        4.658901   -2.520088   -0.002571
     32          7           0        1.480544    0.549103    1.348450
     33          8           0        1.274937   -0.119977    2.358744
     34          8           0        0.906662    1.598526    1.065590
 ---------------------------------------------------------------------

 SCF Done:  E(RHF) =  -669.536454347     A.U. after   15 cycles
 E2 =    -0.2091265952D+01 EUMP2 =    -0.67162772029862D+03

 The electronic state is 1-A.
 Alpha  occ. eigenvalues --  -20.61025 -20.61020 -15.86053 -11.31324 -11.27884
 Alpha  occ. eigenvalues --  -11.27879 -11.27615 -11.26882 -11.26872 -11.21060
 Alpha  occ. eigenvalues --  -11.20653 -11.20612 -11.20579 -11.20490 -11.19893
 Alpha  occ. eigenvalues --   -1.60082  -1.39639  -1.19490  -1.08904  -1.07632
 Alpha  occ. eigenvalues --   -1.04880  -1.02720  -0.95754  -0.95174  -0.86283
 Alpha  occ. eigenvalues --   -0.86199  -0.82590  -0.78820  -0.77653  -0.77432
 Alpha  occ. eigenvalues --   -0.72280  -0.71392  -0.70600  -0.65149  -0.64883
 Alpha  occ. eigenvalues --   -0.64244  -0.62228  -0.60092  -0.58580  -0.56791
 Alpha  occ. eigenvalues --   -0.55387  -0.54434  -0.53213  -0.52971  -0.51892
 Alpha  occ. eigenvalues --   -0.51611  -0.49150  -0.49035  -0.48977  -0.47136
 Alpha  occ. eigenvalues --   -0.45854  -0.45217  -0.44960  -0.44685  -0.42989
 Alpha  occ. eigenvalues --   -0.37467  -0.36478
 Alpha virt. eigenvalues --    0.04853   0.11175   0.16326   0.21220   0.23639
 Alpha virt. eigenvalues --    0.25059   0.26944   0.27371   0.27909   0.28300
 Alpha virt. eigenvalues --    0.29012   0.30708   0.31792   0.32440   0.32624

 Mulliken charges:
               1
     1  C   -0.298381
     2  C   -0.298820
     3  C   -0.475368
     4  H    0.153534
     5  H    0.146885
     6  H    0.151329
     7  H    0.148828
     8  H    0.154094
     9  H    0.156526
    10  H    0.157271
    11  C   -0.298652
    12  C   -0.296675
    13  C   -0.486004
    14  H    0.153798
    15  H    0.143524
    16  H    0.158235
    17  H    0.146083
    18  H    0.145308
    19  H    0.177481
    20  H    0.156652
    21  C   -0.170431
    22  C   -0.218523
    23  C   -0.170356
    24  C    0.157520
    25  C   -0.170782
    26  C   -0.218552
    27  H    0.226180
    28  H    0.224171
    29  H    0.276165
    30  H    0.275798
    31  H    0.223943
    32  N    0.492304
    33  O   -0.458604
    34  O   -0.464482
 Sum of Mulliken charges =  -0.00000

 Dipole moment (field-independent basis, Debye):
    X=              3.8647    Y=             -1.7511    Z=             -3.1956  Tot=              5.3117
 Quadrupole moment (field-independent basis, Debye-Ang):
   XX=            -77.9263   YY=            -93.3096   ZZ=            -95.7148
   XY=             -5.6878   XZ=             -6.4631   YZ=             -3.2471

 Normal termination of Gaussian 16 at Wed May  5 23:18:34 2021.
