 Gaussian 16, Revision A.03,
 Gaussian 16:  EM64L-G16RevA.03 25-Dec-2016

 -------------
 #p 6-31g* mp2
 -------------

 ------------------------------------------------------
 Input file generated by CHIRIPA (05-May-2021 14:53:12)
 ------------------------------------------------------
 Symbolic Z-matrix:
 Charge =  0 Multiplicity = 1

                         Standard orientation:
 ---------------------------------------------------------------------
 Center     Atomic      Atomic             Coordinates (Angstroms)
 Number     Number       Type             X           Y           Z
 ---------------------------------------------------------------------
      1          6           0        3.596374    0.887573   -0.235282
      2          6           0        3.114691    1.951498    0.751648
      3          6           0        2.336001    3.078531    0.072510
      4          1           0        4.227608    1.363291   -0.998289
      5          1           0        2.729116    0.468434   -0.764036
      6          1           0        3.982471    2.367527    1.279374
      7          1           0        2.484687    1.473159    1.512505
      8          1           0        1.452834    2.682604   -0.439212
      9          1           0        2.959128    3.582053   -0.673667
     10          1           0        2.001136    3.828014    0.796389
     11          6           0        4.376454   -0.245762    0.428613
     12          6           0        4.858136   -1.309687   -0.558317
     13          6           0        5.636827   -2.436721    0.120822
     14          1           0        5.243712    0.173377    0.957368
     15          1           0        3.745220   -0.721481    1.191621
     16          1           0        5.488141   -0.831348   -1.319173
     17          1           0        3.990357   -1.725716   -1.086042
     18          1           0        5.013700   -2.940242    0.866999
     19          1           0        6.519994   -2.040793    0.632543
     20          1           0        5.971692   -3.186204   -0.603057
     21          6           0       -0.615739   -0.277724   -0.424748
     22          6           0       -1.284308   -1.451003   -0.060117
     23          6           0       -2.668525   -1.447734    0.136038
     24          6           0       -3.355946   -0.248095   -0.041758
     25          6           0       -2.718322    0.937215   -0.404752
     26          6           0       -1.333616    0.910546   -0.595602
     27          1           0        0.459744   -0.289353   -0.575066
     28          1           0       -0.729368   -2.375284    0.073270
     29          1           0       -3.211244   -2.341624    0.418587
     30          1           0       -3.298623    1.843249   -0.530339
     31          1           0       -0.817032    1.823240   -0.878752
     32          7           0       -4.821615   -0.232248    0.163094
     33          8           0       -5.404345    0.837582    0.000225
     34          8           0       -5.359922   -1.289957    0.482648
 ---------------------------------------------------------------------

 SCF Done:  E(RHF) =  -669.535045837     A.U. after   15 cycles
 E2 =    -0.2092171140D+01 EUMP2 =    -0.67162721697647D+03

 The electronic state is 1-A.
 Alpha  occ. eigenvalues --  -20.60745 -20.60740 -15.85798 -11.31165 -11.27736
 Alpha  occ. eigenvalues --  -11.27728 -11.27459 -11.26753 -11.26731 -11.22680
 Alpha  occ. eigenvalues --  -11.22592 -11.22505 -11.22364 -11.22241 -11.21815
 Alpha  occ. eigenvalues --   -1.59820  -1.39374  -1.19337  -1.09494  -1.08733
 Alpha  occ. eigenvalues --   -1.04743  -1.04524  -0.96987  -0.95570  -0.88000
 Alpha  occ. eigenvalues --   -0.86143  -0.82403  -0.80589  -0.79299  -0.77448
 Alpha  occ. eigenvalues --   -0.72017  -0.71143  -0.70486  -0.66154  -0.64990
 Alpha  occ. eigenvalues --   -0.64758  -0.62176  -0.61840  -0.60340  -0.58583
 Alpha  occ. eigenvalues --   -0.56364  -0.55217  -0.53638  -0.53412  -0.53067
 Alpha  occ. eigenvalues --   -0.52824  -0.50912  -0.48897  -0.48772  -0.48767
 Alpha  occ. eigenvalues --   -0.47629  -0.46825  -0.46758  -0.44793  -0.44779
 Alpha  occ. eigenvalues --   -0.37317  -0.36344
 Alpha virt. eigenvalues --    0.05084   0.11278   0.16555   0.18075   0.22323
 Alpha virt. eigenvalues --    0.23706   0.24834   0.25287   0.26324   0.28142
 Alpha virt. eigenvalues --    0.29304   0.30789   0.30815   0.31174   0.31617

 Mulliken charges:
               1
     1  C   -0.302878
     2  C   -0.302046
     3  C   -0.477859
     4  H    0.155213
     5  H    0.140338
     6  H    0.157720
     7  H    0.153862
     8  H    0.145099
     9  H    0.159844
    10  H    0.166110
    11  C   -0.299448
    12  C   -0.299481
    13  C   -0.476184
    14  H    0.154165
    15  H    0.148935
    16  H    0.154800
    17  H    0.147379
    18  H    0.155071
    19  H    0.157682
    20  H    0.162723
    21  C   -0.178294
    22  C   -0.221038
    23  C   -0.170759
    24  C    0.158590
    25  C   -0.171220
    26  C   -0.225924
    27  H    0.236221
    28  H    0.223696
    29  H    0.275477
    30  H    0.276023
    31  H    0.229170
    32  N    0.487886
    33  O   -0.460373
    34  O   -0.460499
 Sum of Mulliken charges =  -0.00000

 Dipole moment (field-independent basis, Debye):
    X=              5.4445    Y=              0.0099    Z=             -0.6440  Tot=              5.4824
 Quadrupole moment (field-independent basis, Debye-Ang):
   XX=           -128.3309   YY=            -90.0852   ZZ=            -95.3848
   XY=             -0.0373   XZ=              2.1169   YZ=             -0.7404

 Normal termination of Gaussian 16 at Thu May  6 05:44:27 2021.
