 Gaussian 16, Revision A.03,
 Gaussian 16:  EM64L-G16RevA.03 25-Dec-2016

 -------------
 #p 6-31g* mp2
 -------------

 ------------------------------------------------------
 Input file generated by CHIRIPA (05-May-2021 14:53:12)
 ------------------------------------------------------
 Symbolic Z-matrix:
 Charge =  0 Multiplicity = 1

                         Standard orientation:
 ---------------------------------------------------------------------
 Center     Atomic      Atomic             Coordinates (Angstroms)
 Number     Number       Type             X           Y           Z
 ---------------------------------------------------------------------
      1          6           0        3.500870    0.372141   -0.351313
      2          6           0        3.642416    1.875987   -0.588796
      3          6           0        2.332148    2.531242   -1.026554
      4          1           0        3.140098   -0.105727   -1.272416
      5          1           0        2.730331    0.199584    0.412813
      6          1           0        4.413435    2.045720   -1.351250
      7          1           0        4.003076    2.350304    0.332922
      8          1           0        1.558182    2.391300   -0.264981
      9          1           0        1.970873    2.084986   -1.958722
     10          1           0        2.456106    3.606198   -1.190758
     11          6           0        4.802341   -0.297131    0.086837
     12          6           0        4.660795   -1.800976    0.324319
     13          6           0        5.971063   -2.456232    0.762078
     14          1           0        5.572880   -0.124574   -0.677290
     15          1           0        5.163113    0.180737    1.007939
     16          1           0        4.300135   -2.275294   -0.597399
     17          1           0        3.889776   -1.970710    1.086773
     18          1           0        6.332338   -2.009975    1.694245
     19          1           0        6.745029   -2.316289    0.000504
     20          1           0        5.847105   -3.531188    0.926281
     21          6           0       -1.612613    1.692831    0.963881
     22          6           0       -1.386238    1.067918   -0.266874
     23          6           0       -2.283129    0.112253   -0.753533
     24          6           0       -3.401105   -0.195790    0.020115
     25          6           0       -3.654243    0.409422    1.250126
     26          6           0       -2.743898    1.362171    1.717126
     27          1           0       -0.910660    2.434082    1.334294
     28          1           0       -0.508512    1.322733   -0.853997
     29          1           0       -2.132227   -0.386891   -1.703007
     30          1           0       -4.538123    0.134552    1.812818
     31          1           0       -2.922257    1.845877    2.673296
     32          7           0       -4.357725   -1.205967   -0.484683
     33          8           0       -5.335132   -1.459744    0.215967
     34          8           0       -4.112003   -1.724839   -1.571435
 ---------------------------------------------------------------------

 SCF Done:  E(RHF) =  -669.535392005     A.U. after   15 cycles
 E2 =    -0.2091387761D+01 EUMP2 =    -0.67162677976637D+03

 The electronic state is 1-A.
 Alpha  occ. eigenvalues --  -20.60708 -20.60703 -15.85759 -11.31111 -11.27677
 Alpha  occ. eigenvalues --  -11.27653 -11.27413 -11.26703 -11.26605 -11.22527
 Alpha  occ. eigenvalues --  -11.22368 -11.22153 -11.22038 -11.21940 -11.21415
 Alpha  occ. eigenvalues --   -1.59783  -1.39337  -1.19276  -1.09135  -1.08677
 Alpha  occ. eigenvalues --   -1.04675  -1.04262  -0.96742  -0.95517  -0.87771
 Alpha  occ. eigenvalues --   -0.86073  -0.82346  -0.80348  -0.78902  -0.77392
 Alpha  occ. eigenvalues --   -0.71979  -0.71106  -0.70400  -0.65768  -0.64929
 Alpha  occ. eigenvalues --   -0.64702  -0.62065  -0.61638  -0.60111  -0.58314
 Alpha  occ. eigenvalues --   -0.56044  -0.55185  -0.53434  -0.53283  -0.53008
 Alpha  occ. eigenvalues --   -0.52637  -0.50694  -0.48779  -0.48735  -0.48586
 Alpha  occ. eigenvalues --   -0.47361  -0.46447  -0.46342  -0.44746  -0.44487
 Alpha  occ. eigenvalues --   -0.37263  -0.36273
 Alpha virt. eigenvalues --    0.05132   0.11344   0.16630   0.19895   0.22460
 Alpha virt. eigenvalues --    0.23858   0.25313   0.25820   0.27088   0.27258
 Alpha virt. eigenvalues --    0.28893   0.30315   0.30912   0.31557   0.32011

 Mulliken charges:
               1
     1  C   -0.299856
     2  C   -0.299433
     3  C   -0.481515
     4  H    0.150138
     5  H    0.148606
     6  H    0.156405
     7  H    0.153945
     8  H    0.146677
     9  H    0.155841
    10  H    0.165944
    11  C   -0.298712
    12  C   -0.300355
    13  C   -0.476171
    14  H    0.151137
    15  H    0.150284
    16  H    0.153282
    17  H    0.152732
    18  H    0.155365
    19  H    0.155867
    20  H    0.162318
    21  C   -0.174315
    22  C   -0.223868
    23  C   -0.172263
    24  C    0.158856
    25  C   -0.171530
    26  C   -0.218390
    27  H    0.225426
    28  H    0.233178
    29  H    0.275466
    30  H    0.275234
    31  H    0.222954
    32  N    0.488016
    33  O   -0.460694
    34  O   -0.460570
 Sum of Mulliken charges =  -0.00000

 Dipole moment (field-independent basis, Debye):
    X=              3.6288    Y=              3.5440    Z=              1.7519  Tot=              5.3663
 Quadrupole moment (field-independent basis, Debye-Ang):
   XX=           -116.5820   YY=            -97.0269   ZZ=            -90.6805
   XY=            -12.6858   XZ=             -9.2888   YZ=              0.6318

 Normal termination of Gaussian 16 at Thu May  6 13:40:58 2021.
