 Gaussian 16, Revision A.03,
 Gaussian 16:  EM64L-G16RevA.03 25-Dec-2016

 -------------
 #p 6-31g* mp2
 -------------

 ------------------------------------------------------
 Input file generated by CHIRIPA (05-May-2021 14:51:07)
 ------------------------------------------------------
 Symbolic Z-matrix:
 Charge =  0 Multiplicity = 1

                         Standard orientation:
 ---------------------------------------------------------------------
 Center     Atomic      Atomic             Coordinates (Angstroms)
 Number     Number       Type             X           Y           Z
 ---------------------------------------------------------------------
      1          6           0        2.533148    0.774215   -0.097746
      2          6           0        1.743371    2.010372   -0.529199
      3          6           0        2.269063    3.298672    0.104618
      4          1           0        2.496870    0.687369    0.996825
      5          1           0        3.590005    0.911000   -0.365586
      6          1           0        0.688077    1.870706   -0.261869
      7          1           0        1.781374    2.094178   -1.622885
      8          1           0        3.315126    3.465211   -0.172180
      9          1           0        2.215618    3.240470    1.196569
     10          1           0        1.690083    4.169836   -0.217433
     11          6           0        2.019558   -0.521521   -0.723063
     12          6           0        2.809336   -1.757678   -0.291609
     13          6           0        2.283644   -3.045979   -0.925427
     14          1           0        0.962701   -0.658307   -0.455223
     15          1           0        2.055837   -0.434675   -1.817634
     16          1           0        2.771333   -1.841484    0.802076
     17          1           0        3.864629   -1.618013   -0.558939
     18          1           0        2.337089   -2.987776   -2.017378
     19          1           0        1.237580   -3.212517   -0.648629
     20          1           0        2.862624   -3.917142   -0.603376
     21          6           0       -2.399496   -0.379117   -0.299789
     22          6           0       -3.226621    0.584453   -1.151481
     23          6           0       -3.464530    0.064810   -2.569637
     24          1           0       -1.434267   -0.558246   -0.792934
     25          1           0       -2.912215   -1.349917   -0.254371
     26          1           0       -2.713183    1.553565   -1.194137
     27          1           0       -4.189917    0.761458   -0.656156
     28          1           0       -3.997672   -0.891102   -2.545272
     29          1           0       -2.512548   -0.094495   -3.086310
     30          1           0       -4.057798    0.769175   -3.161045
     31          6           0       -2.153211    0.126424    1.120598
     32          6           0       -1.326085   -0.837147    1.972290
     33          6           0       -1.088176   -0.317503    3.390445
     34          1           0       -1.640492    1.097224    1.075179
     35          1           0       -3.118439    0.305553    1.613743
     36          1           0       -0.362790   -1.014152    1.476965
     37          1           0       -1.839524   -1.806257    2.014945
     38          1           0       -2.040160   -0.158198    3.907118
     39          1           0       -0.555035    0.638409    3.366081
     40          1           0       -0.494909   -1.021868    3.981854
 ---------------------------------------------------------------------

 SCF Done:  E(RHF) =  -470.732786714     A.U. after   11 cycles
 E2 =    -0.1585038606D+01 EUMP2 =    -0.47231782531997D+03

 The electronic state is 1-A.
 Alpha  occ. eigenvalues --  -11.21680 -11.21667 -11.21640 -11.21613 -11.21456
 Alpha  occ. eigenvalues --  -11.21453 -11.21388 -11.21377 -11.21141 -11.21132
 Alpha  occ. eigenvalues --  -11.21087 -11.21066  -1.08546  -1.08431  -1.03585
 Alpha  occ. eigenvalues --   -1.03566  -0.96032  -0.96015  -0.87045  -0.87034
 Alpha  occ. eigenvalues --   -0.79668  -0.79621  -0.78438  -0.78182  -0.65553
 Alpha  occ. eigenvalues --   -0.64732  -0.61014  -0.60936  -0.59400  -0.59380
 Alpha  occ. eigenvalues --   -0.57677  -0.57596  -0.55335  -0.55303  -0.52722
 Alpha  occ. eigenvalues --   -0.52713  -0.52458  -0.52439  -0.49996  -0.49964
 Alpha  occ. eigenvalues --   -0.47996  -0.47949  -0.46844  -0.46612  -0.46397
 Alpha  occ. eigenvalues --   -0.45811  -0.45728  -0.45048  -0.43837  -0.43817
 Alpha virt. eigenvalues --    0.18883   0.22386   0.23466   0.24841   0.25297
 Alpha virt. eigenvalues --    0.26734   0.26920   0.27769   0.28190   0.30612
 Alpha virt. eigenvalues --    0.31016   0.31500   0.31724   0.31950   0.32486

 Mulliken charges:
               1
     1  C   -0.298052
     2  C   -0.304057
     3  C   -0.475595
     4  H    0.149848
     5  H    0.150158
     6  H    0.154578
     7  H    0.152220
     8  H    0.155657
     9  H    0.155150
    10  H    0.160403
    11  C   -0.311261
    12  C   -0.299610
    13  C   -0.476379
    14  H    0.161237
    15  H    0.149817
    16  H    0.152161
    17  H    0.152300
    18  H    0.155186
    19  H    0.155881
    20  H    0.160467
    21  C   -0.305684
    22  C   -0.299442
    23  C   -0.475901
    24  H    0.156223
    25  H    0.149655
    26  H    0.152185
    27  H    0.151941
    28  H    0.155135
    29  H    0.155807
    30  H    0.160254
    31  C   -0.300835
    32  C   -0.306476
    33  C   -0.475390
    34  H    0.151404
    35  H    0.150423
    36  H    0.157363
    37  H    0.152397
    38  H    0.155709
    39  H    0.154798
    40  H    0.160327
 Sum of Mulliken charges =  -0.00000

 Dipole moment (field-independent basis, Debye):
    X=              0.0022    Y=             -0.0066    Z=             -0.0062  Tot=              0.0093
 Quadrupole moment (field-independent basis, Debye-Ang):
   XX=            -83.7316   YY=            -85.6182   ZZ=            -85.3003
   XY=              0.1673   XZ=             -1.1582   YZ=             -0.8918

 Normal termination of Gaussian 16 at Thu May  6 05:14:29 2021.
