 Gaussian 16, Revision A.03,
 Gaussian 16:  EM64L-G16RevA.03 25-Dec-2016

 -------------
 #p 6-31g* mp2
 -------------

 ------------------------------------------------------
 Input file generated by CHIRIPA (05-May-2021 14:51:07)
 ------------------------------------------------------
 Symbolic Z-matrix:
 Charge =  0 Multiplicity = 1

                         Standard orientation:
 ---------------------------------------------------------------------
 Center     Atomic      Atomic             Coordinates (Angstroms)
 Number     Number       Type             X           Y           Z
 ---------------------------------------------------------------------
      1          6           0       -2.807317   -0.618580    0.858541
      2          6           0       -1.478733   -1.310178    1.166017
      3          6           0       -1.590869   -2.327595    2.301834
      4          1           0       -3.171646   -0.118272    1.766231
      5          1           0       -3.556846   -1.378797    0.598404
      6          1           0       -0.731569   -0.548778    1.424151
      7          1           0       -1.117429   -1.808736    0.257438
      8          1           0       -2.315842   -3.108228    2.049589
      9          1           0       -1.927790   -1.841111    3.222930
     10          1           0       -0.629716   -2.810063    2.504985
     11          6           0       -2.711331    0.401381   -0.274682
     12          6           0       -4.039915    1.092979   -0.582158
     13          6           0       -3.927779    2.110397   -1.717975
     14          1           0       -1.961802    1.161599   -0.014545
     15          1           0       -2.347002   -0.098926   -1.182373
     16          1           0       -4.401219    1.591538    0.326420
     17          1           0       -4.787079    0.331580   -0.840292
     18          1           0       -3.590859    1.623913   -2.639072
     19          1           0       -3.202806    2.891029   -1.465730
     20          1           0       -4.888932    2.592865   -1.921126
     21          6           0        2.678729    0.533586    0.337612
     22          6           0        3.418316    1.869942    0.265863
     23          6           0        3.247546    2.708860    1.532690
     24          1           0        1.610710    0.721812    0.513257
     25          1           0        3.043139   -0.033078    1.205651
     26          1           0        3.053604    2.433329   -0.602581
     27          1           0        4.484669    1.678520    0.090178
     28          1           0        3.628932    2.169876    2.405984
     29          1           0        2.189735    2.928973    1.709289
     30          1           0        3.784393    3.659832    1.459849
     31          6           0        2.839919   -0.316388   -0.921471
     32          6           0        2.100332   -1.652743   -0.849722
     33          6           0        2.271103   -2.491662   -2.116548
     34          1           0        2.475509    0.250277   -1.789510
     35          1           0        3.907939   -0.504613   -1.097116
     36          1           0        1.033979   -1.461322   -0.674036
     37          1           0        2.465044   -2.216130    0.018723
     38          1           0        3.328913   -2.711775   -2.293147
     39          1           0        1.889716   -1.952678   -2.989842
     40          1           0        1.734255   -3.442635   -2.043708
 ---------------------------------------------------------------------

 SCF Done:  E(RHF) =  -470.733033229     A.U. after   11 cycles
 E2 =    -0.1583547271D+01 EUMP2 =    -0.47231658049976D+03

 The electronic state is 1-A.
 Alpha  occ. eigenvalues --  -11.21649 -11.21612 -11.21593 -11.21485 -11.21460
 Alpha  occ. eigenvalues --  -11.21392 -11.21373 -11.21309 -11.21113 -11.21080
 Alpha  occ. eigenvalues --  -11.21080 -11.21036  -1.08485  -1.08388  -1.03575
 Alpha  occ. eigenvalues --   -1.03490  -0.96013  -0.95955  -0.87032  -0.86969
 Alpha  occ. eigenvalues --   -0.79720  -0.79504  -0.78404  -0.78088  -0.65111
 Alpha  occ. eigenvalues --   -0.65030  -0.61028  -0.60848  -0.59434  -0.59273
 Alpha  occ. eigenvalues --   -0.57636  -0.57552  -0.55305  -0.55241  -0.52712
 Alpha  occ. eigenvalues --   -0.52644  -0.52440  -0.52381  -0.49990  -0.49877
 Alpha  occ. eigenvalues --   -0.48168  -0.47792  -0.46806  -0.46479  -0.46158
 Alpha  occ. eigenvalues --   -0.45712  -0.45699  -0.45228  -0.43817  -0.43747
 Alpha virt. eigenvalues --    0.21111   0.23362   0.23565   0.24158   0.25119
 Alpha virt. eigenvalues --    0.26180   0.26911   0.27930   0.28088   0.29836
 Alpha virt. eigenvalues --    0.30393   0.31434   0.31660   0.31956   0.31983

 Mulliken charges:
               1
     1  C   -0.297610
     2  C   -0.307362
     3  C   -0.475426
     4  H    0.149750
     5  H    0.149640
     6  H    0.155757
     7  H    0.156206
     8  H    0.154994
     9  H    0.155153
    10  H    0.160992
    11  C   -0.298812
    12  C   -0.299568
    13  C   -0.475761
    14  H    0.148758
    15  H    0.149264
    16  H    0.152201
    17  H    0.152223
    18  H    0.155178
    19  H    0.155081
    20  H    0.160506
    21  C   -0.301519
    22  C   -0.299574
    23  C   -0.475568
    24  H    0.152506
    25  H    0.149262
    26  H    0.151951
    27  H    0.152070
    28  H    0.155203
    29  H    0.154487
    30  H    0.160310
    31  C   -0.297530
    32  C   -0.307930
    33  C   -0.475520
    34  H    0.149267
    35  H    0.149270
    36  H    0.162027
    37  H    0.150846
    38  H    0.155041
    39  H    0.154712
    40  H    0.159526
 Sum of Mulliken charges =  -0.00000

 Dipole moment (field-independent basis, Debye):
    X=             -0.0390    Y=             -0.0059    Z=              0.0167  Tot=              0.0429
 Quadrupole moment (field-independent basis, Debye-Ang):
   XX=            -84.0955   YY=            -85.2058   ZZ=            -85.5526
   XY=             -0.0798   XZ=              0.4909   YZ=              0.2749

 Normal termination of Gaussian 16 at Thu May  6 10:00:07 2021.
