 Gaussian 16, Revision A.03,
 Gaussian 16:  EM64L-G16RevA.03 25-Dec-2016

 -------------
 #p 6-31g* mp2
 -------------

 ------------------------------------------------------
 Input file generated by CHIRIPA (05-May-2021 14:55:22)
 ------------------------------------------------------
 Symbolic Z-matrix:
 Charge =  0 Multiplicity = 1

                         Standard orientation:
 ---------------------------------------------------------------------
 Center     Atomic      Atomic             Coordinates (Angstroms)
 Number     Number       Type             X           Y           Z
 ---------------------------------------------------------------------
      1          6           0        2.595168    2.573657   -0.086196
      2          6           0        3.859969    2.130599    0.314428
      3          6           0        4.189565    0.773396    0.251872
      4          6           0        3.225847   -0.117258   -0.218525
      5          6           0        1.957160    0.293298   -0.624934
      6          6           0        1.649468    1.655212   -0.553774
      7          1           0        2.347638    3.629795   -0.034259
      8          1           0        4.596400    2.841618    0.677975
      9          1           0        5.161201    0.403152    0.555619
     10          1           0        1.243996   -0.439277   -0.982914
     11          1           0        0.666418    1.996441   -0.865576
     12          7           0        3.563181   -1.556561   -0.289305
     13          8           0        2.696459   -2.321138   -0.707459
     14          8           0        4.687918   -1.892858    0.074712
     15          6           0       -4.559742    0.053633   -0.272512
     16          6           0       -6.015024   -0.178838    0.135036
     17          6           0       -7.007057    0.240522   -0.950231
     18          1           0       -4.417556    1.116740   -0.510271
     19          1           0       -4.351421   -0.503820   -1.196225
     20          1           0       -6.220149    0.377780    1.058462
     21          1           0       -6.153717   -1.241481    0.372037
     22          1           0       -6.830910   -0.323459   -1.871915
     23          1           0       -6.897721    1.305004   -1.181589
     24          1           0       -8.041357    0.065707   -0.637945
     25          6           0       -3.556098   -0.360723    0.802074
     26          6           0       -2.100816   -0.128253    0.394526
     27          6           0       -1.108783   -0.547612    1.479793
     28          1           0       -3.764419    0.196730    1.725786
     29          1           0       -3.698284   -1.423830    1.039833
     30          1           0       -1.962123    0.934391    0.157524
     31          1           0       -1.895691   -0.684870   -0.528901
     32          1           0       -1.218120   -1.612093    1.711150
     33          1           0       -1.284929    0.016368    2.401476
     34          1           0       -0.074483   -0.372796    1.167507
 ---------------------------------------------------------------------

 SCF Done:  E(RHF) =  -669.534908372     A.U. after   15 cycles
 E2 =    -0.2092527430D+01 EUMP2 =    -0.67162743580193D+03

 The electronic state is 1-A.
 Alpha  occ. eigenvalues --  -20.60777 -20.60772 -15.85832 -11.31214 -11.27781
 Alpha  occ. eigenvalues --  -11.27763 -11.27522 -11.26800 -11.26783 -11.22111
 Alpha  occ. eigenvalues --  -11.21832 -11.21729 -11.21661 -11.21274 -11.21235
 Alpha  occ. eigenvalues --   -1.59852  -1.39405  -1.19396  -1.08779  -1.08753
 Alpha  occ. eigenvalues --   -1.04809  -1.03831  -0.96254  -0.95611  -0.87264
 Alpha  occ. eigenvalues --   -0.86189  -0.82443  -0.79915  -0.78578  -0.77489
 Alpha  occ. eigenvalues --   -0.72050  -0.71177  -0.70505  -0.65387  -0.65044
 Alpha  occ. eigenvalues --   -0.64789  -0.62196  -0.61223  -0.59627  -0.57891
 Alpha  occ. eigenvalues --   -0.55514  -0.55286  -0.53407  -0.52904  -0.52818
 Alpha  occ. eigenvalues --   -0.52465  -0.50172  -0.48810  -0.48802  -0.48221
 Alpha  occ. eigenvalues --   -0.46952  -0.46110  -0.46032  -0.44808  -0.44089
 Alpha  occ. eigenvalues --   -0.37370  -0.36333
 Alpha virt. eigenvalues --    0.05015   0.11187   0.16454   0.20260   0.22749
 Alpha virt. eigenvalues --    0.23954   0.25645   0.26185   0.27451   0.28018
 Alpha virt. eigenvalues --    0.29252   0.29493   0.31351   0.31764   0.31968

 Mulliken charges:
               1
     1  C   -0.170887
     2  C   -0.218237
     3  C   -0.170991
     4  C    0.158832
     5  C   -0.175279
     6  C   -0.218391
     7  H    0.225789
     8  H    0.223607
     9  H    0.275776
    10  H    0.279226
    11  H    0.226574
    12  N    0.488457
    13  O   -0.460477
    14  O   -0.460311
    15  C   -0.298542
    16  C   -0.300003
    17  C   -0.475888
    18  H    0.147124
    19  H    0.150474
    20  H    0.152027
    21  H    0.153660
    22  H    0.155888
    23  H    0.154339
    24  H    0.161266
    25  C   -0.297945
    26  C   -0.302962
    27  C   -0.481661
    28  H    0.150304
    29  H    0.153621
    30  H    0.143262
    31  H    0.151310
    32  H    0.161724
    33  H    0.154962
    34  H    0.163351
 Sum of Mulliken charges =  -0.00000

 Dipole moment (field-independent basis, Debye):
    X=             -1.2105    Y=              5.0173    Z=              0.2814  Tot=              5.1689
 Quadrupole moment (field-independent basis, Debye-Ang):
   XX=            -98.6592   YY=            -95.4331   ZZ=            -95.2820
   XY=             18.1494   XZ=              2.3066   YZ=             -0.2342

 Normal termination of Gaussian 16 at Thu May  6 19:11:39 2021.
