 Gaussian 16, Revision A.03,
 Gaussian 16:  EM64L-G16RevA.03 25-Dec-2016

 -------------
 #p 6-31g* mp2
 -------------

 ------------------------------------------------------
 Input file generated by CHIRIPA (05-May-2021 14:57:26)
 ------------------------------------------------------
 Symbolic Z-matrix:
 Charge =  0 Multiplicity = 1

                         Standard orientation:
 ---------------------------------------------------------------------
 Center     Atomic      Atomic             Coordinates (Angstroms)
 Number     Number       Type             X           Y           Z
 ---------------------------------------------------------------------
      1          6           0       -1.771175    1.856773    0.920991
      2          6           0       -2.550426    2.035623   -0.226746
      3          6           0       -3.380151    1.009561   -0.688593
      4          6           0       -3.406241   -0.187718    0.024942
      5          6           0       -2.641685   -0.396371    1.171767
      6          6           0       -1.819206    0.643486    1.615361
      7          1           0       -1.129439    2.659200    1.272675
      8          1           0       -2.515137    2.976809   -0.768011
      9          1           0       -3.993861    1.121143   -1.574215
     10          1           0       -2.698074   -1.345847    1.690162
     11          1           0       -1.215124    0.501772    2.507014
     12          7           0       -4.280798   -1.281266   -0.454332
     13          8           0       -4.285875   -2.326568    0.192162
     14          8           0       -4.944637   -1.072380   -1.467407
     15          6           0        4.387232   -2.243627    0.076314
     16          6           0        4.424894   -1.536836   -1.130147
     17          6           0        3.804943   -0.288712   -1.241478
     18          6           0        3.153330    0.225118   -0.121358
     19          6           0        3.098379   -0.454830    1.094348
     20          6           0        3.725262   -1.701324    1.182761
     21          1           0        4.871517   -3.212567    0.153897
     22          1           0        4.938255   -1.955546   -1.991069
     23          1           0        3.818720    0.279856   -2.163411
     24          1           0        2.578910   -0.011631    1.935268
     25          1           0        3.694402   -2.247985    2.120980
     26          7           0        2.493347    1.545588   -0.227088
     27          8           0        1.925795    1.976485    0.774336
     28          8           0        2.556099    2.124674   -1.309381
 ---------------------------------------------------------------------

 SCF Done:  E(RHF) =  -868.339965233     A.U. after   16 cycles
 E2 =    -0.2598747990D+01 EUMP2 =    -0.87093871322323D+03

 The electronic state is 1-A.
 Alpha  occ. eigenvalues --  -20.61598 -20.61557 -20.60306 -20.60296 -15.86610
 Alpha  occ. eigenvalues --  -15.85354 -11.31737 -11.30508 -11.28315 -11.28249
 Alpha  occ. eigenvalues --  -11.27955 -11.27248 -11.27209 -11.27122 -11.27068
 Alpha  occ. eigenvalues --  -11.26579 -11.26005 -11.25921  -1.60636  -1.59386
 Alpha  occ. eigenvalues --   -1.40201  -1.38946  -1.19881  -1.18658  -1.09316
 Alpha  occ. eigenvalues --   -1.08039  -1.05254  -1.04049  -0.96198  -0.94914
 Alpha  occ. eigenvalues --   -0.86662  -0.85425  -0.83047  -0.81776  -0.78122
 Alpha  occ. eigenvalues --   -0.76894  -0.72862  -0.71934  -0.71574  -0.70990
 Alpha  occ. eigenvalues --   -0.70711  -0.69630  -0.65542  -0.65255  -0.64288
 Alpha  occ. eigenvalues --   -0.64030  -0.62614  -0.61418  -0.55752  -0.54377
 Alpha  occ. eigenvalues --   -0.53584  -0.53346  -0.52372  -0.52126  -0.49617
 Alpha  occ. eigenvalues --   -0.49571  -0.48342  -0.48310  -0.45657  -0.44400
 Alpha  occ. eigenvalues --   -0.37834  -0.36844  -0.36523  -0.35682
 Alpha virt. eigenvalues --    0.04385   0.05679   0.10812   0.11998   0.15929
 Alpha virt. eigenvalues --    0.17255   0.20844   0.22277   0.26633   0.27442
 Alpha virt. eigenvalues --    0.28356   0.29307   0.30601   0.31570   0.32376

 Mulliken charges:
               1
     1  C   -0.164467
     2  C   -0.220336
     3  C   -0.171737
     4  C    0.156517
     5  C   -0.173021
     6  C   -0.221308
     7  H    0.241645
     8  H    0.225574
     9  H    0.273457
    10  H    0.270728
    11  H    0.219280
    12  N    0.488339
    13  O   -0.464154
    14  O   -0.462082
    15  C   -0.169551
    16  C   -0.218068
    17  C   -0.169978
    18  C    0.159327
    19  C   -0.170108
    20  C   -0.218001
    21  H    0.228160
    22  H    0.225884
    23  H    0.276637
    24  H    0.270455
    25  H    0.224407
    26  N    0.490653
    27  O   -0.470925
    28  O   -0.457328
 Sum of Mulliken charges =  -0.00000

 Dipole moment (field-independent basis, Debye):
    X=              5.7833    Y=             -0.6672    Z=              1.9712  Tot=              6.1464
 Quadrupole moment (field-independent basis, Debye-Ang):
   XX=           -112.0022   YY=           -107.3261   ZZ=            -97.7818
   XY=            -29.9338   XZ=             -5.3536   YZ=             -2.4075

 Normal termination of Gaussian 16 at Wed May  5 16:32:04 2021.
