 Gaussian 16, Revision A.03,
 Gaussian 16:  EM64L-G16RevA.03 25-Dec-2016

 -------------
 #p 6-31g* mp2
 -------------

 ------------------------------------------------------
 Input file generated by CHIRIPA (05-May-2021 14:55:24)
 ------------------------------------------------------
 Symbolic Z-matrix:
 Charge =  0 Multiplicity = 1

                         Standard orientation:
 ---------------------------------------------------------------------
 Center     Atomic      Atomic             Coordinates (Angstroms)
 Number     Number       Type             X           Y           Z
 ---------------------------------------------------------------------
      1          6           0        1.282138   -1.836994    1.194883
      2          6           0        0.790215   -1.132160    0.091370
      3          6           0        1.570775   -0.153874   -0.531711
      4          6           0        2.844467    0.095046   -0.022753
      5          6           0        3.362685   -0.590284    1.075001
      6          6           0        2.564542   -1.564287    1.682318
      7          1           0        0.668951   -2.595287    1.672785
      8          1           0       -0.205347   -1.341840   -0.289334
      9          1           0        1.214742    0.406709   -1.387517
     10          1           0        4.359008   -0.359059    1.431783
     11          1           0        2.949175   -2.110107    2.539163
     12          7           0        3.680118    1.128447   -0.674036
     13          8           0        4.798951    1.328999   -0.206459
     14          8           0        3.200445    1.718306   -1.639757
     15          6           0       -3.380729   -0.651828    0.020676
     16          6           0       -3.054817   -1.451781   -1.241007
     17          6           0       -2.889930   -2.946922   -0.966863
     18          1           0       -2.582925   -0.804645    0.760338
     19          1           0       -4.302664   -1.047182    0.469146
     20          1           0       -2.134524   -1.054138   -1.687726
     21          1           0       -3.853395   -1.296890   -1.977823
     22          1           0       -3.808762   -3.364406   -0.542532
     23          1           0       -2.080125   -3.120275   -0.250786
     24          1           0       -2.657346   -3.499694   -1.882400
     25          6           0       -3.548530    0.844521   -0.237218
     26          6           0       -3.874442    1.644474    1.024465
     27          6           0       -4.039328    3.139616    0.750321
     28          1           0       -2.626594    1.239874   -0.685689
     29          1           0       -4.346333    0.997337   -0.976881
     30          1           0       -3.075863    1.489583    1.761281
     31          1           0       -4.794734    1.246831    1.471185
     32          1           0       -4.849133    3.312968    0.034245
     33          1           0       -3.120497    3.557099    0.325990
     34          1           0       -4.271912    3.692387    1.665859
 ---------------------------------------------------------------------

 SCF Done:  E(RHF) =  -669.535113964     A.U. after   15 cycles
 E2 =    -0.2092423641D+01 EUMP2 =    -0.67162753760440D+03

 The electronic state is 1-A.
 Alpha  occ. eigenvalues --  -20.60760 -20.60755 -15.85812 -11.31179 -11.27746
 Alpha  occ. eigenvalues --  -11.27739 -11.27485 -11.26762 -11.26700 -11.22716
 Alpha  occ. eigenvalues --  -11.22327 -11.22228 -11.22113 -11.22044 -11.21402
 Alpha  occ. eigenvalues --   -1.59835  -1.39389  -1.19348  -1.09273  -1.08741
 Alpha  occ. eigenvalues --   -1.04757  -1.04322  -0.96758  -0.95580  -0.87773
 Alpha  occ. eigenvalues --   -0.86154  -0.82414  -0.80408  -0.79019  -0.77468
 Alpha  occ. eigenvalues --   -0.72032  -0.71158  -0.70462  -0.66147  -0.65000
 Alpha  occ. eigenvalues --   -0.64652  -0.62288  -0.61469  -0.60146  -0.58346
 Alpha  occ. eigenvalues --   -0.56071  -0.55246  -0.53440  -0.53176  -0.53070
 Alpha  occ. eigenvalues --   -0.52813  -0.50722  -0.48809  -0.48787  -0.48668
 Alpha  occ. eigenvalues --   -0.47492  -0.46548  -0.46471  -0.44794  -0.44560
 Alpha  occ. eigenvalues --   -0.37328  -0.36348
 Alpha virt. eigenvalues --    0.05072   0.11231   0.16542   0.18537   0.22872
 Alpha virt. eigenvalues --    0.23881   0.24744   0.25586   0.27165   0.28621
 Alpha virt. eigenvalues --    0.29085   0.30480   0.30886   0.31479   0.31931

 Mulliken charges:
               1
     1  C   -0.174315
     2  C   -0.228332
     3  C   -0.174557
     4  C    0.159076
     5  C   -0.171292
     6  C   -0.218327
     7  H    0.225704
     8  H    0.241213
     9  H    0.275238
    10  H    0.275585
    11  H    0.223400
    12  N    0.488028
    13  O   -0.460487
    14  O   -0.460474
    15  C   -0.300818
    16  C   -0.307141
    17  C   -0.476296
    18  H    0.144285
    19  H    0.153842
    20  H    0.144910
    21  H    0.161305
    22  H    0.161246
    23  H    0.144442
    24  H    0.165903
    25  C   -0.297971
    26  C   -0.300410
    27  C   -0.476558
    28  H    0.148865
    29  H    0.152695
    30  H    0.152661
    31  H    0.152484
    32  H    0.156071
    33  H    0.157942
    34  H    0.162084
 Sum of Mulliken charges =  -0.00000

 Dipole moment (field-independent basis, Debye):
    X=             -3.1748    Y=             -3.5955    Z=              2.2711  Tot=              5.3070
 Quadrupole moment (field-independent basis, Debye-Ang):
   XX=           -107.1829   YY=            -96.9104   ZZ=            -93.0349
   XY=            -11.1199   XZ=              9.8159   YZ=             -0.2207

 Normal termination of Gaussian 16 at Thu May  6 00:01:19 2021.
