 Gaussian 16, Revision A.03,
 Gaussian 16:  EM64L-G16RevA.03 25-Dec-2016

 -------------
 #p 6-31g* mp2
 -------------

 ------------------------------------------------------
 Input file generated by CHIRIPA (05-May-2021 14:53:13)
 ------------------------------------------------------
 Symbolic Z-matrix:
 Charge =  0 Multiplicity = 1

                         Standard orientation:
 ---------------------------------------------------------------------
 Center     Atomic      Atomic             Coordinates (Angstroms)
 Number     Number       Type             X           Y           Z
 ---------------------------------------------------------------------
      1          6           0       -3.549778    0.853275   -0.023012
      2          6           0       -2.719538    1.908382   -0.754747
      3          6           0       -3.472048    3.225816   -0.944198
      4          1           0       -4.476160    0.670570   -0.584598
      5          1           0       -3.851122    1.248681    0.956907
      6          1           0       -2.418684    1.510579   -1.732426
      7          1           0       -1.794936    2.088457   -0.191454
      8          1           0       -3.758818    3.648371    0.024208
      9          1           0       -4.386111    3.067210   -1.525519
     10          1           0       -2.860087    3.965770   -1.469395
     11          6           0       -2.811079   -0.469319    0.173965
     12          6           0       -3.641319   -1.524426    0.905700
     13          6           0       -2.888809   -2.841860    1.095151
     14          1           0       -2.509735   -0.864725   -0.805954
     15          1           0       -1.884697   -0.286614    0.735551
     16          1           0       -4.565921   -1.704501    0.342407
     17          1           0       -3.942172   -1.126623    1.883379
     18          1           0       -1.974746   -2.683253    1.676473
     19          1           0       -2.602039   -3.264415    0.126745
     20          1           0       -3.500770   -3.581814    1.620348
     21          6           0        3.831205    1.625164    1.124981
     22          6           0        4.442560    0.799735    0.175541
     23          6           0        3.706247   -0.187146   -0.486619
     24          6           0        2.354536   -0.321597   -0.173426
     25          6           0        1.716877    0.485319    0.767620
     26          6           0        2.472709    1.465602    1.417475
     27          1           0        4.410771    2.389235    1.634583
     28          1           0        5.497419    0.921385   -0.053627
     29          1           0        4.154345   -0.839821   -1.225970
     30          1           0        0.663595    0.340153    0.974845
     31          1           0        1.995282    2.105209    2.154368
     32          7           0        1.564702   -1.362872   -0.867911
     33          8           0        0.375316   -1.461147   -0.574071
     34          8           0        2.149971   -2.061032   -1.692939
 ---------------------------------------------------------------------

 SCF Done:  E(RHF) =  -669.535216133     A.U. after   15 cycles
 E2 =    -0.2092689340D+01 EUMP2 =    -0.67162790547332D+03

 The electronic state is 1-A.
 Alpha  occ. eigenvalues --  -20.60849 -20.60843 -15.85884 -11.31247 -11.27816
 Alpha  occ. eigenvalues --  -11.27811 -11.27556 -11.26831 -11.26821 -11.21307
 Alpha  occ. eigenvalues --  -11.20879 -11.20849 -11.20785 -11.20415 -11.20022
 Alpha  occ. eigenvalues --   -1.59921  -1.39475  -1.19419  -1.08817  -1.07789
 Alpha  occ. eigenvalues --   -1.04822  -1.02914  -0.95657  -0.95337  -0.86353
 Alpha  occ. eigenvalues --   -0.86220  -0.82497  -0.79019  -0.77803  -0.77253
 Alpha  occ. eigenvalues --   -0.72097  -0.71235  -0.70531  -0.65074  -0.64849
 Alpha  occ. eigenvalues --   -0.64432  -0.62171  -0.60331  -0.58739  -0.56933
 Alpha  occ. eigenvalues --   -0.55326  -0.54629  -0.53149  -0.52920  -0.52083
 Alpha  occ. eigenvalues --   -0.51732  -0.49292  -0.48886  -0.48872  -0.47303
 Alpha  occ. eigenvalues --   -0.46082  -0.45100  -0.45009  -0.44722  -0.43149
 Alpha  occ. eigenvalues --   -0.37398  -0.36422
 Alpha virt. eigenvalues --    0.04976   0.11214   0.16462   0.20290   0.23116
 Alpha virt. eigenvalues --    0.24716   0.25150   0.27646   0.27773   0.28576
 Alpha virt. eigenvalues --    0.29541   0.31260   0.31898   0.32151   0.32623

 Mulliken charges:
               1
     1  C   -0.298896
     2  C   -0.296773
     3  C   -0.475194
     4  H    0.149036
     5  H    0.143935
     6  H    0.156761
     7  H    0.141740
     8  H    0.152631
     9  H    0.156295
    10  H    0.157992
    11  C   -0.298210
    12  C   -0.300681
    13  C   -0.472586
    14  H    0.165697
    15  H    0.148235
    16  H    0.149174
    17  H    0.144865
    18  H    0.154966
    19  H    0.165495
    20  H    0.153354
    21  C   -0.170218
    22  C   -0.218936
    23  C   -0.169853
    24  C    0.155055
    25  C   -0.172802
    26  C   -0.221470
    27  H    0.225863
    28  H    0.223654
    29  H    0.275776
    30  H    0.283728
    31  H    0.224036
    32  N    0.491998
    33  O   -0.464482
    34  O   -0.460184
 Sum of Mulliken charges =  -0.00000

 Dipole moment (field-independent basis, Debye):
    X=              2.9482    Y=              3.5012    Z=              2.2734  Tot=              5.1106
 Quadrupole moment (field-independent basis, Debye-Ang):
   XX=            -79.1869   YY=            -98.6273   ZZ=            -94.2732
   XY=              7.4665   XZ=              3.7875   YZ=              0.2436

 Normal termination of Gaussian 16 at Thu May  6 07:22:02 2021.
