 Gaussian 16, Revision A.03,
 Gaussian 16:  EM64L-G16RevA.03 25-Dec-2016

 -------------
 #p 6-31g* mp2
 -------------

 ------------------------------------------------------
 Input file generated by CHIRIPA (05-May-2021 14:57:24)
 ------------------------------------------------------
 Symbolic Z-matrix:
 Charge =  0 Multiplicity = 1

                         Standard orientation:
 ---------------------------------------------------------------------
 Center     Atomic      Atomic             Coordinates (Angstroms)
 Number     Number       Type             X           Y           Z
 ---------------------------------------------------------------------
      1          6           0        2.256314    1.654080   -0.405218
      2          6           0        3.528279    2.231570   -0.476864
      3          6           0        4.673742    1.450861   -0.295326
      4          6           0        4.509713    0.089771   -0.042704
      5          6           0        3.256039   -0.514888    0.034622
      6          6           0        2.124486    0.285108   -0.150153
      7          1           0        1.371893    2.268045   -0.547498
      8          1           0        3.633681    3.294468   -0.674811
      9          1           0        5.670469    1.872087   -0.345548
     10          1           0        3.182823   -1.577215    0.233413
     11          1           0        1.137921   -0.166086   -0.093962
     12          7           0        5.715001   -0.746940    0.151195
     13          8           0        5.543598   -1.943716    0.372517
     14          8           0        6.808286   -0.190133    0.078181
     15          6           0       -6.580348    0.865089   -0.074202
     16          6           0       -6.351380   -0.361711   -0.705911
     17          6           0       -5.097975   -0.976345   -0.630097
     18          6           0       -4.091681   -0.333315    0.089052
     19          6           0       -4.288799    0.889211    0.729260
     20          6           0       -5.550143    1.485541    0.640108
     21          1           0       -7.557108    1.335442   -0.138277
     22          1           0       -7.149590   -0.845860   -1.261344
     23          1           0       -4.893352   -1.925885   -1.109598
     24          1           0       -3.473491    1.347608    1.275668
     25          1           0       -5.725096    2.438311    1.131702
     26          7           0       -2.760555   -0.974311    0.176374
     27          8           0       -1.890569   -0.387347    0.816088
     28          8           0       -2.612409   -2.051552   -0.396552
 ---------------------------------------------------------------------

 SCF Done:  E(RHF) =  -868.340213717     A.U. after   16 cycles
 E2 =    -0.2598302901D+01 EUMP2 =    -0.87093851661802D+03

 The electronic state is 1-A.
 Alpha  occ. eigenvalues --  -20.61820 -20.61789 -20.60026 -20.60012 -15.86819
 Alpha  occ. eigenvalues --  -15.85064 -11.31935 -11.30284 -11.28488 -11.28451
 Alpha  occ. eigenvalues --  -11.28156 -11.27431 -11.27406 -11.26869 -11.26712
 Alpha  occ. eigenvalues --  -11.26507 -11.25900 -11.25559  -1.60863  -1.59099
 Alpha  occ. eigenvalues --   -1.40422  -1.38656  -1.20081  -1.18418  -1.09521
 Alpha  occ. eigenvalues --   -1.07844  -1.05444  -1.03772  -0.96398  -0.94712
 Alpha  occ. eigenvalues --   -0.86853  -0.85175  -0.83238  -0.81529  -0.78316
 Alpha  occ. eigenvalues --   -0.76594  -0.73045  -0.72162  -0.71287  -0.71181
 Alpha  occ. eigenvalues --   -0.70419  -0.69542  -0.65735  -0.65441  -0.64058
 Alpha  occ. eigenvalues --   -0.63725  -0.62794  -0.61095  -0.55948  -0.54301
 Alpha  occ. eigenvalues --   -0.53787  -0.53530  -0.52147  -0.51829  -0.49813
 Alpha  occ. eigenvalues --   -0.49778  -0.48051  -0.48027  -0.45877  -0.44094
 Alpha  occ. eigenvalues --   -0.38042  -0.37036  -0.36413  -0.35374
 Alpha virt. eigenvalues --    0.04182   0.05891   0.10622   0.12273   0.15723
 Alpha virt. eigenvalues --    0.17434   0.20795   0.22508   0.26725   0.27636
 Alpha virt. eigenvalues --    0.28587   0.29200   0.30401   0.31848   0.32133

 Mulliken charges:
               1
     1  C   -0.172892
     2  C   -0.218723
     3  C   -0.173402
     4  C    0.158309
     5  C   -0.173246
     6  C   -0.226424
     7  H    0.222994
     8  H    0.218745
     9  H    0.272066
    10  H    0.277022
    11  H    0.248308
    12  N    0.488028
    13  O   -0.460762
    14  O   -0.463705
    15  C   -0.169801
    16  C   -0.218488
    17  C   -0.170234
    18  C    0.157564
    19  C   -0.171277
    20  C   -0.218483
    21  H    0.228077
    22  H    0.225976
    23  H    0.277134
    24  H    0.274137
    25  H    0.225065
    26  N    0.489249
    27  O   -0.469059
    28  O   -0.456177
 Sum of Mulliken charges =  -0.00000

 Dipole moment (field-independent basis, Debye):
    X=             -9.5451    Y=              5.0676    Z=             -1.0046  Tot=             10.8535
 Quadrupole moment (field-independent basis, Debye-Ang):
   XX=           -103.4820   YY=           -100.2909   ZZ=           -104.6842
   XY=              8.8758   XZ=             -1.1665   YZ=              2.0975

 Normal termination of Gaussian 16 at Wed May  5 21:03:41 2021.
