 Gaussian 16, Revision A.03,
 Gaussian 16:  EM64L-G16RevA.03 25-Dec-2016

 -------------
 #p 6-31g* mp2
 -------------

 ------------------------------------------------------
 Input file generated by CHIRIPA (05-May-2021 14:57:23)
 ------------------------------------------------------
 Symbolic Z-matrix:
 Charge =  0 Multiplicity = 1

                         Standard orientation:
 ---------------------------------------------------------------------
 Center     Atomic      Atomic             Coordinates (Angstroms)
 Number     Number       Type             X           Y           Z
 ---------------------------------------------------------------------
      1          6           0        2.810296   -2.503819   -0.575958
      2          6           0        4.008880   -1.783803   -0.537313
      3          6           0        4.005182   -0.413093   -0.262195
      4          6           0        2.779314    0.208503   -0.029477
      5          6           0        1.568428   -0.481462   -0.061013
      6          6           0        1.596036   -1.851500   -0.338104
      7          1           0        2.822456   -3.568359   -0.790442
      8          1           0        4.953377   -2.287782   -0.721639
      9          1           0        4.918344    0.168501   -0.226130
     10          1           0        0.642569    0.048535    0.126886
     11          1           0        0.663655   -2.408140   -0.367472
     12          7           0        2.762743    1.659256    0.262822
     13          8           0        1.669529    2.183577    0.464341
     14          8           0        3.843281    2.244566    0.284873
     15          6           0       -2.750765    2.472539   -0.556286
     16          6           0       -3.526427    1.568783   -1.289835
     17          6           0       -3.551359    0.213499   -0.947592
     18          6           0       -2.785070   -0.205478    0.138938
     19          6           0       -2.002191    0.670516    0.889288
     20          6           0       -1.992459    2.021316    0.529021
     21          1           0       -2.737300    3.523614   -0.829149
     22          1           0       -4.116333    1.916380   -2.133182
     23          1           0       -4.142969   -0.507723   -1.498278
     24          1           0       -1.424641    0.294206    1.724898
     25          1           0       -1.389138    2.720924    1.100509
     26          7           0       -2.803418   -1.637884    0.510796
     27          8           0       -2.119453   -1.981837    1.472319
     28          8           0       -3.501418   -2.389527   -0.166305
 ---------------------------------------------------------------------

 SCF Done:  E(RHF) =  -868.340419135     A.U. after   16 cycles
 E2 =    -0.2601355716D+01 EUMP2 =    -0.87094177485110D+03

 The electronic state is 1-A.
 Alpha  occ. eigenvalues --  -20.61316 -20.61303 -20.61082 -20.61026 -15.86331
 Alpha  occ. eigenvalues --  -15.86093 -11.31415 -11.31102 -11.27871 -11.27798
 Alpha  occ. eigenvalues --  -11.27639 -11.27542 -11.27419 -11.27260 -11.26846
 Alpha  occ. eigenvalues --  -11.26644 -11.26597 -11.26444  -1.60395  -1.60124
 Alpha  occ. eigenvalues --   -1.39950  -1.39692  -1.19504  -1.19229  -1.08926
 Alpha  occ. eigenvalues --   -1.08686  -1.04829  -1.04561  -0.95829  -0.95585
 Alpha  occ. eigenvalues --   -0.86233  -0.85973  -0.82656  -0.82418  -0.77813
 Alpha  occ. eigenvalues --   -0.77469  -0.72537  -0.72342  -0.71734  -0.71430
 Alpha  occ. eigenvalues --   -0.70600  -0.70294  -0.65114  -0.64900  -0.64750
 Alpha  occ. eigenvalues --   -0.64522  -0.62223  -0.61841  -0.55275  -0.55083
 Alpha  occ. eigenvalues --   -0.53294  -0.52939  -0.52844  -0.52494  -0.49327
 Alpha  occ. eigenvalues --   -0.49272  -0.49096  -0.49034  -0.45404  -0.45176
 Alpha  occ. eigenvalues --   -0.37431  -0.37189  -0.36378  -0.36154
 Alpha virt. eigenvalues --    0.04648   0.04978   0.11132   0.11499   0.16266
 Alpha virt. eigenvalues --    0.16561   0.21280   0.22033   0.26896   0.27673
 Alpha virt. eigenvalues --    0.28361   0.29082   0.31066   0.31538   0.32280

 Mulliken charges:
               1
     1  C   -0.170411
     2  C   -0.219078
     3  C   -0.170900
     4  C    0.155335
     5  C   -0.177677
     6  C   -0.222547
     7  H    0.228217
     8  H    0.223112
     9  H    0.274058
    10  H    0.280915
    11  H    0.235121
    12  N    0.490031
    13  O   -0.473390
    14  O   -0.458506
    15  C   -0.171748
    16  C   -0.217098
    17  C   -0.173453
    18  C    0.158198
    19  C   -0.194178
    20  C   -0.206899
    21  H    0.230263
    22  H    0.224346
    23  H    0.274326
    24  H    0.276851
    25  H    0.242864
    26  N    0.485785
    27  O   -0.464595
    28  O   -0.458943
 Sum of Mulliken charges =  -0.00000

 Dipole moment (field-independent basis, Debye):
    X=              0.0298    Y=              0.0861    Z=             -2.3649  Tot=              2.3667
 Quadrupole moment (field-independent basis, Debye-Ang):
   XX=            -98.2920   YY=           -109.0941   ZZ=           -103.4437
   XY=            -28.6182   XZ=              3.0688   YZ=              1.8615

 Normal termination of Gaussian 16 at Thu May  6 17:58:04 2021.
