 Gaussian 16, Revision A.03,
 Gaussian 16:  EM64L-G16RevA.03 25-Dec-2016

 -------------
 #p 6-31g* mp2
 -------------

 ------------------------------------------------------
 Input file generated by CHIRIPA (05-May-2021 14:57:26)
 ------------------------------------------------------
 Symbolic Z-matrix:
 Charge =  0 Multiplicity = 1

                         Standard orientation:
 ---------------------------------------------------------------------
 Center     Atomic      Atomic             Coordinates (Angstroms)
 Number     Number       Type             X           Y           Z
 ---------------------------------------------------------------------
      1          6           0       -1.587619    0.052676    0.245880
      2          6           0       -2.396607    0.471461    1.307331
      3          6           0       -3.789459    0.402307    1.208685
      4          6           0       -4.342229   -0.093133    0.028739
      5          6           0       -3.562991   -0.518066   -1.046208
      6          6           0       -2.172362   -0.439882   -0.925437
      7          1           0       -0.506482    0.109904    0.331104
      8          1           0       -1.945246    0.854422    2.218188
      9          1           0       -4.439377    0.719733    2.015075
     10          1           0       -4.041995   -0.895248   -1.941589
     11          1           0       -1.546568   -0.765826   -1.751382
     12          7           0       -5.815602   -0.171122   -0.087405
     13          8           0       -6.278056   -0.611466   -1.137581
     14          8           0       -6.480080    0.209570    0.873938
     15          6           0        5.158658   -2.181059    0.313020
     16          6           0        3.771582   -2.072802    0.168718
     17          6           0        3.173831   -0.824973   -0.031689
     18          6           0        3.996994    0.298896   -0.082771
     19          6           0        5.381888    0.223568    0.057534
     20          6           0        5.957975   -1.034549    0.257065
     21          1           0        5.614590   -3.154398    0.468360
     22          1           0        3.148345   -2.961492    0.211740
     23          1           0        2.102576   -0.712459   -0.146462
     24          1           0        5.977058    1.127416    0.010099
     25          1           0        7.035465   -1.115615    0.368811
     26          7           0        3.375649    1.625363   -0.294469
     27          8           0        4.122897    2.600332   -0.335633
     28          8           0        2.153158    1.664963   -0.415227
 ---------------------------------------------------------------------

 SCF Done:  E(RHF) =  -868.338494134     A.U. after   16 cycles
 E2 =    -0.2599146143D+01 EUMP2 =    -0.87093764027697D+03

 The electronic state is 1-A.
 Alpha  occ. eigenvalues --  -20.61799 -20.61745 -20.60488 -20.60482 -15.86815
 Alpha  occ. eigenvalues --  -15.85540 -11.32088 -11.30836 -11.28734 -11.28572
 Alpha  occ. eigenvalues --  -11.28296 -11.27634 -11.27562 -11.27420 -11.27400
 Alpha  occ. eigenvalues --  -11.27079 -11.26405 -11.26362  -1.60833  -1.59565
 Alpha  occ. eigenvalues --   -1.40398  -1.39120  -1.20232  -1.19002  -1.09630
 Alpha  occ. eigenvalues --   -1.08396  -1.05626  -1.04402  -0.96493  -0.95244
 Alpha  occ. eigenvalues --   -0.87026  -0.85796  -0.83334  -0.82085  -0.78415
 Alpha  occ. eigenvalues --   -0.77153  -0.73041  -0.72145  -0.71759  -0.71340
 Alpha  occ. eigenvalues --   -0.70888  -0.70072  -0.65885  -0.65619  -0.64651
 Alpha  occ. eigenvalues --   -0.64405  -0.62995  -0.61759  -0.56099  -0.54861
 Alpha  occ. eigenvalues --   -0.53945  -0.53704  -0.52725  -0.52494  -0.49805
 Alpha  occ. eigenvalues --   -0.49760  -0.48518  -0.48511  -0.45820  -0.44542
 Alpha  occ. eigenvalues --   -0.38178  -0.37221  -0.36950  -0.36012
 Alpha virt. eigenvalues --    0.04125   0.05390   0.10429   0.11649   0.15663
 Alpha virt. eigenvalues --    0.16892   0.18929   0.21831   0.25059   0.26971
 Alpha virt. eigenvalues --    0.27684   0.28928   0.30562   0.30939   0.32775

 Mulliken charges:
               1
     1  C   -0.176002
     2  C   -0.220008
     3  C   -0.170877
     4  C    0.157805
     5  C   -0.171101
     6  C   -0.220346
     7  H    0.238818
     8  H    0.224848
     9  H    0.274676
    10  H    0.274228
    11  H    0.220834
    12  N    0.488138
    13  O   -0.461586
    14  O   -0.461152
    15  C   -0.169899
    16  C   -0.219654
    17  C   -0.172238
    18  C    0.158174
    19  C   -0.169699
    20  C   -0.218082
    21  H    0.228817
    22  H    0.225352
    23  H    0.269864
    24  H    0.277880
    25  H    0.226682
    26  N    0.490246
    27  O   -0.454089
    28  O   -0.471628
 Sum of Mulliken charges =  -0.00000

 Dipole moment (field-independent basis, Debye):
    X=              7.8207    Y=             -4.3679    Z=              1.1931  Tot=              9.0369
 Quadrupole moment (field-independent basis, Debye-Ang):
   XX=           -127.7333   YY=           -106.9513   ZZ=           -101.6876
   XY=            -18.1732   XZ=              0.9296   YZ=              2.6478

 Normal termination of Gaussian 16 at Wed May  5 22:52:07 2021.
