 Gaussian 16, Revision A.03,
 Gaussian 16:  EM64L-G16RevA.03 25-Dec-2016

 -------------
 #p 6-31g* mp2
 -------------

 ------------------------------------------------------
 Input file generated by CHIRIPA (05-May-2021 14:57:25)
 ------------------------------------------------------
 Symbolic Z-matrix:
 Charge =  0 Multiplicity = 1

                         Standard orientation:
 ---------------------------------------------------------------------
 Center     Atomic      Atomic             Coordinates (Angstroms)
 Number     Number       Type             X           Y           Z
 ---------------------------------------------------------------------
      1          6           0        2.024647    1.462519   -0.640273
      2          6           0        1.803711    0.310375    0.121483
      3          6           0        2.868423   -0.527007    0.467499
      4          6           0        4.146847   -0.180431    0.032982
      5          6           0        4.399069    0.960605   -0.727092
      6          6           0        3.319338    1.783391   -1.061387
      7          1           0        1.191720    2.107349   -0.904514
      8          1           0        0.799301    0.058695    0.449909
      9          1           0        2.725703   -1.425024    1.056240
     10          1           0        5.411530    1.185291   -1.039912
     11          1           0        3.493889    2.677525   -1.653081
     12          7           0        5.281960   -1.059204    0.393089
     13          8           0        6.398784   -0.731749   -0.002023
     14          8           0        5.033343   -2.058801    1.063635
     15          6           0       -2.490315    1.987140    0.657334
     16          6           0       -3.622719    1.687624    1.421841
     17          6           0       -4.444102    0.608701    1.081542
     18          6           0       -4.101828   -0.153070   -0.034631
     19          6           0       -2.980297    0.120072   -0.816201
     20          6           0       -2.173277    1.203788   -0.457282
     21          1           0       -1.857823    2.827135    0.928918
     22          1           0       -3.871376    2.294255    2.287990
     23          1           0       -5.326694    0.354524    1.655864
     24          1           0       -2.758152   -0.502875   -1.674110
     25          1           0       -1.294458    1.434059   -1.052847
     26          7           0       -4.963787   -1.297815   -0.404746
     27          8           0       -4.640521   -1.953548   -1.392749
     28          8           0       -5.946336   -1.517657    0.300168
 ---------------------------------------------------------------------

 SCF Done:  E(RHF) =  -868.336648012     A.U. after   16 cycles
 E2 =    -0.2600358814D+01 EUMP2 =    -0.87093700682556D+03

 The electronic state is 1-A.
 Alpha  occ. eigenvalues --  -20.61417 -20.61411 -20.61167 -20.61162 -15.86480
 Alpha  occ. eigenvalues --  -15.86223 -11.32041 -11.31738 -11.28705 -11.28620
 Alpha  occ. eigenvalues --  -11.28498 -11.28298 -11.28288 -11.28224 -11.27841
 Alpha  occ. eigenvalues --  -11.27644 -11.27407 -11.27375  -1.60489  -1.60238
 Alpha  occ. eigenvalues --   -1.40037  -1.39787  -1.20265  -1.19929  -1.09631
 Alpha  occ. eigenvalues --   -1.09331  -1.05703  -1.05336  -0.96418  -0.96140
 Alpha  occ. eigenvalues --   -0.87112  -0.86739  -0.83247  -0.82950  -0.78259
 Alpha  occ. eigenvalues --   -0.77939  -0.72694  -0.72441  -0.71817  -0.71562
 Alpha  occ. eigenvalues --   -0.71379  -0.71140  -0.65923  -0.65830  -0.65570
 Alpha  occ. eigenvalues --   -0.65274  -0.63044  -0.62648  -0.56224  -0.55962
 Alpha  occ. eigenvalues --   -0.54033  -0.53801  -0.53661  -0.53404  -0.49469
 Alpha  occ. eigenvalues --   -0.49435  -0.49212  -0.49185  -0.45398  -0.45159
 Alpha  occ. eigenvalues --   -0.38268  -0.37975  -0.37305  -0.36925
 Alpha virt. eigenvalues --    0.04302   0.04561   0.10205   0.10692   0.15700
 Alpha virt. eigenvalues --    0.15980   0.18049   0.21969   0.24780   0.26783
 Alpha virt. eigenvalues --    0.27274   0.29054   0.29781   0.30961   0.31781

 Mulliken charges:
               1
     1  C   -0.175808
     2  C   -0.222225
     3  C   -0.170239
     4  C    0.159705
     5  C   -0.170588
     6  C   -0.217294
     7  H    0.215827
     8  H    0.226544
     9  H    0.278589
    10  H    0.277503
    11  H    0.224506
    12  N    0.487854
    13  O   -0.458944
    14  O   -0.458245
    15  C   -0.172397
    16  C   -0.218274
    17  C   -0.168904
    18  C    0.159141
    19  C   -0.171217
    20  C   -0.227633
    21  H    0.225035
    22  H    0.227023
    23  H    0.279095
    24  H    0.279017
    25  H    0.219977
    26  N    0.487934
    27  O   -0.458303
    28  O   -0.457678
 Sum of Mulliken charges =  -0.00000

 Dipole moment (field-independent basis, Debye):
    X=             -1.0826    Y=              6.9833    Z=              0.1346  Tot=              7.0680
 Quadrupole moment (field-independent basis, Debye-Ang):
   XX=           -157.8614   YY=           -106.2790   ZZ=           -101.6104
   XY=             -2.0422   XZ=            -15.5566   YZ=             -0.6904

 Normal termination of Gaussian 16 at Fri May  7 06:32:47 2021.
