 Gaussian 16, Revision A.03,
 Gaussian 16:  EM64L-G16RevA.03 25-Dec-2016

 -------------
 #p 6-31g* mp2
 -------------

 ------------------------------------------------------
 Input file generated by CHIRIPA (05-May-2021 14:53:16)
 ------------------------------------------------------
 Symbolic Z-matrix:
 Charge =  0 Multiplicity = 1

                         Standard orientation:
 ---------------------------------------------------------------------
 Center     Atomic      Atomic             Coordinates (Angstroms)
 Number     Number       Type             X           Y           Z
 ---------------------------------------------------------------------
      1          6           0       -2.681155    1.177494   -0.582016
      2          6           0       -1.482208    1.937420   -0.013665
      3          6           0       -1.134497    3.185506   -0.825559
      4          1           0       -2.467546    0.892802   -1.621375
      5          1           0       -3.550298    1.849023   -0.614195
      6          1           0       -0.615943    1.264255    0.018722
      7          1           0       -1.698620    2.220170    1.024523
      8          1           0       -1.981350    3.879014   -0.847634
      9          1           0       -0.892521    2.917668   -1.859151
     10          1           0       -0.274582    3.713479   -0.401706
     11          6           0       -3.040994   -0.072677    0.218806
     12          6           0       -4.239941   -0.832603   -0.349545
     13          6           0       -4.587652   -2.080689    0.462349
     14          1           0       -2.171851   -0.744206    0.250985
     15          1           0       -3.254603    0.212015    1.258165
     16          1           0       -4.023529   -1.115353   -1.387733
     17          1           0       -5.106206   -0.159438   -0.381932
     18          1           0       -4.829628   -1.812851    1.495941
     19          1           0       -3.740799   -2.774197    0.484424
     20          1           0       -5.447566   -2.608662    0.038496
     21          6           0        2.466376    2.002542    0.764446
     22          6           0        1.703884    1.144839    1.564117
     23          6           0        1.568881   -0.205673    1.228798
     24          6           0        2.212867   -0.666890    0.081692
     25          6           0        2.979438    0.162714   -0.735264
     26          6           0        3.100601    1.509611   -0.380673
     27          1           0        2.565873    3.050248    1.032415
     28          1           0        1.210217    1.524890    2.454005
     29          1           0        0.984658   -0.891691    1.830030
     30          1           0        3.459765   -0.245282   -1.616311
     31          1           0        3.693398    2.173407   -1.003578
     32          7           0        2.077271   -2.094704   -0.283497
     33          8           0        2.654571   -2.476432   -1.299196
     34          8           0        1.396258   -2.805059    0.452882
 ---------------------------------------------------------------------

 SCF Done:  E(RHF) =  -669.534352729     A.U. after   15 cycles
 E2 =    -0.2094100541D+01 EUMP2 =    -0.67162845326999D+03

 The electronic state is 1-A.
 Alpha  occ. eigenvalues --  -20.60870 -20.60864 -15.85920 -11.31304 -11.27837
 Alpha  occ. eigenvalues --  -11.27807 -11.27563 -11.26875 -11.26831 -11.21691
 Alpha  occ. eigenvalues --  -11.21493 -11.21444 -11.21412 -11.21359 -11.20856
 Alpha  occ. eigenvalues --   -1.59944  -1.39496  -1.19470  -1.08858  -1.08464
 Alpha  occ. eigenvalues --   -1.04868  -1.03566  -0.96030  -0.95685  -0.87046
 Alpha  occ. eigenvalues --   -0.86251  -0.82516  -0.79657  -0.78291  -0.77557
 Alpha  occ. eigenvalues --   -0.72135  -0.71269  -0.70552  -0.65120  -0.65094
 Alpha  occ. eigenvalues --   -0.64846  -0.62197  -0.60985  -0.59461  -0.57666
 Alpha  occ. eigenvalues --   -0.55354  -0.55313  -0.53266  -0.52939  -0.52691
 Alpha  occ. eigenvalues --   -0.52455  -0.49950  -0.48896  -0.48891  -0.47955
 Alpha  occ. eigenvalues --   -0.46649  -0.45829  -0.45719  -0.44890  -0.43830
 Alpha  occ. eigenvalues --   -0.37428  -0.36329
 Alpha virt. eigenvalues --    0.04933   0.11094   0.16394   0.20895   0.22963
 Alpha virt. eigenvalues --    0.24234   0.26353   0.26435   0.27213   0.28218
 Alpha virt. eigenvalues --    0.28728   0.30309   0.31492   0.31768   0.32362

 Mulliken charges:
               1
     1  C   -0.297522
     2  C   -0.306968
     3  C   -0.473253
     4  H    0.151264
     5  H    0.148399
     6  H    0.164754
     7  H    0.143483
     8  H    0.155354
     9  H    0.156647
    10  H    0.150640
    11  C   -0.300139
    12  C   -0.299401
    13  C   -0.477118
    14  H    0.152826
    15  H    0.146143
    16  H    0.153953
    17  H    0.150593
    18  H    0.153048
    19  H    0.161025
    20  H    0.160418
    21  C   -0.169472
    22  C   -0.215105
    23  C   -0.176007
    24  C    0.160697
    25  C   -0.172101
    26  C   -0.217537
    27  H    0.226066
    28  H    0.225130
    29  H    0.276519
    30  H    0.275872
    31  H    0.224202
    32  N    0.487984
    33  O   -0.459864
    34  O   -0.460528
 Sum of Mulliken charges =  -0.00000

 Dipole moment (field-independent basis, Debye):
    X=              0.5720    Y=              4.9144    Z=              1.2666  Tot=              5.1071
 Quadrupole moment (field-independent basis, Debye-Ang):
   XX=            -91.3510   YY=           -102.8821   ZZ=            -91.4542
   XY=             11.1245   XZ=              0.1869   YZ=             -0.3244

 Normal termination of Gaussian 16 at Thu May  6 18:51:29 2021.
