 Gaussian 16, Revision A.03,
 Gaussian 16:  EM64L-G16RevA.03 25-Dec-2016

 -------------
 #p 6-31g* mp2
 -------------

 ------------------------------------------------------
 Input file generated by CHIRIPA (05-May-2021 14:53:12)
 ------------------------------------------------------
 Symbolic Z-matrix:
 Charge =  0 Multiplicity = 1

                         Standard orientation:
 ---------------------------------------------------------------------
 Center     Atomic      Atomic             Coordinates (Angstroms)
 Number     Number       Type             X           Y           Z
 ---------------------------------------------------------------------
      1          6           0        3.906096   -0.280721    0.584444
      2          6           0        3.009905   -1.415045    0.086310
      3          6           0        1.939344   -1.812570    1.103004
      4          1           0        4.386287   -0.586948    1.523905
      5          1           0        3.282669    0.592334    0.822161
      6          1           0        3.634984   -2.285240   -0.151707
      7          1           0        2.531940   -1.106155   -0.852174
      8          1           0        1.291661   -0.960526    1.333501
      9          1           0        2.400972   -2.146310    2.037947
     10          1           0        1.310034   -2.624996    0.726450
     11          6           0        4.981303    0.127904   -0.420883
     12          6           0        5.877494    1.262227    0.077252
     13          6           0        6.948055    1.659753   -0.939442
     14          1           0        5.604730   -0.745151   -0.658599
     15          1           0        4.501112    0.434130   -1.360343
     16          1           0        6.355459    0.953338    1.015736
     17          1           0        5.252415    2.132423    0.315269
     18          1           0        6.486427    1.993493   -1.874385
     19          1           0        7.595738    0.807709   -1.169939
     20          1           0        7.577364    2.472179   -0.562888
     21          6           0       -4.996457    2.057590    0.158080
     22          6           0       -3.823582    1.984447    0.916720
     23          6           0       -2.971273    0.882211    0.801856
     24          6           0       -3.324226   -0.133455   -0.085351
     25          6           0       -4.485797   -0.089628   -0.854846
     26          6           0       -5.323245    1.022145   -0.723728
     27          1           0       -5.652778    2.917538    0.253621
     28          1           0       -3.567263    2.787110    1.602342
     29          1           0       -2.057102    0.799957    1.377132
     30          1           0       -4.714638   -0.905329   -1.529887
     31          1           0       -6.233468    1.076261   -1.314160
     32          7           0       -2.429792   -1.305390   -0.215555
     33          8           0       -2.763260   -2.187050   -1.004297
     34          8           0       -1.412201   -1.320104    0.473597
 ---------------------------------------------------------------------

 SCF Done:  E(RHF) =  -669.535495622     A.U. after   15 cycles
 E2 =    -0.2091052729D+01 EUMP2 =    -0.67162654835118D+03

 The electronic state is 1-A.
 Alpha  occ. eigenvalues --  -20.60888 -20.60880 -15.85921 -11.31274 -11.27844
 Alpha  occ. eigenvalues --  -11.27837 -11.27582 -11.26855 -11.26845 -11.21173
 Alpha  occ. eigenvalues --  -11.20795 -11.20727 -11.20612 -11.20469 -11.19443
 Alpha  occ. eigenvalues --   -1.59955  -1.39511  -1.19446  -1.08845  -1.07709
 Alpha  occ. eigenvalues --   -1.04846  -1.02693  -0.95690  -0.95108  -0.86249
 Alpha  occ. eigenvalues --   -0.86128  -0.82516  -0.78802  -0.77582  -0.77466
 Alpha  occ. eigenvalues --   -0.72151  -0.71272  -0.70555  -0.65103  -0.64850
 Alpha  occ. eigenvalues --   -0.64350  -0.62195  -0.60093  -0.58550  -0.56709
 Alpha  occ. eigenvalues --   -0.55349  -0.54409  -0.53176  -0.52939  -0.51756
 Alpha  occ. eigenvalues --   -0.51555  -0.49158  -0.48899  -0.48810  -0.47086
 Alpha  occ. eigenvalues --   -0.45864  -0.45025  -0.44977  -0.44856  -0.42924
 Alpha  occ. eigenvalues --   -0.37426  -0.36449
 Alpha virt. eigenvalues --    0.04962   0.11205   0.16451   0.21262   0.23510
 Alpha virt. eigenvalues --    0.25121   0.26977   0.27370   0.27859   0.28206
 Alpha virt. eigenvalues --    0.29137   0.30753   0.31837   0.32387   0.32788

 Mulliken charges:
               1
     1  C   -0.296926
     2  C   -0.300591
     3  C   -0.471987
     4  H    0.147431
     5  H    0.145642
     6  H    0.148052
     7  H    0.152311
     8  H    0.158700
     9  H    0.144007
    10  H    0.175475
    11  C   -0.297464
    12  C   -0.298783
    13  C   -0.475223
    14  H    0.149006
    15  H    0.148606
    16  H    0.151122
    17  H    0.149771
    18  H    0.154387
    19  H    0.155058
    20  H    0.158339
    21  C   -0.170696
    22  C   -0.218530
    23  C   -0.170784
    24  C    0.157743
    25  C   -0.170751
    26  C   -0.218547
    27  H    0.225915
    28  H    0.223765
    29  H    0.275330
    30  H    0.275829
    31  H    0.223744
    32  N    0.492997
    33  O   -0.459940
    34  O   -0.463008
 Sum of Mulliken charges =  -0.00000

 Dipole moment (field-independent basis, Debye):
    X=             -3.4647    Y=              4.0507    Z=              0.4326  Tot=              5.3479
 Quadrupole moment (field-independent basis, Debye-Ang):
   XX=            -73.7357   YY=            -95.2680   ZZ=            -93.4459
   XY=            -13.0717   XZ=              1.8676   YZ=              1.2387

 Normal termination of Gaussian 16 at Thu May  6 05:42:23 2021.
