 Gaussian 16, Revision A.03,
 Gaussian 16:  EM64L-G16RevA.03 25-Dec-2016

 -------------
 #p 6-31g* mp2
 -------------

 ------------------------------------------------------
 Input file generated by CHIRIPA (05-May-2021 14:53:15)
 ------------------------------------------------------
 Symbolic Z-matrix:
 Charge =  0 Multiplicity = 1

                         Standard orientation:
 ---------------------------------------------------------------------
 Center     Atomic      Atomic             Coordinates (Angstroms)
 Number     Number       Type             X           Y           Z
 ---------------------------------------------------------------------
      1          6           0       -2.991229    0.662799   -0.577207
      2          6           0       -3.090857    2.015287    0.129076
      3          6           0       -2.233100    3.093226   -0.534319
      4          1           0       -1.941102    0.340359   -0.591708
      5          1           0       -3.296294    0.781408   -1.626141
      6          1           0       -2.787016    1.893878    1.176720
      7          1           0       -4.140895    2.334454    0.142067
      8          1           0       -2.539745    3.243506   -1.574505
      9          1           0       -1.178174    2.800427   -0.533973
     10          1           0       -2.319278    4.051878   -0.013339
     11          6           0       -3.843146   -0.425084    0.074313
     12          6           0       -3.743518   -1.777572   -0.631970
     13          6           0       -4.601274   -2.855511    0.031425
     14          1           0       -3.538080   -0.543693    1.123246
     15          1           0       -4.893273   -0.102644    0.088814
     16          1           0       -2.693480   -2.096739   -0.644961
     17          1           0       -4.047358   -1.656163   -1.679614
     18          1           0       -5.656201   -2.562711    0.031079
     19          1           0       -4.294630   -3.005791    1.071611
     20          1           0       -4.515097   -3.814163   -0.489555
     21          6           0        4.427062   -0.559549   -1.552763
     22          6           0        3.192228   -0.019949   -1.927648
     23          6           0        2.211082    0.242703   -0.966962
     24          6           0        2.499780   -0.047739    0.365550
     25          6           0        3.720426   -0.585671    0.770449
     26          6           0        4.686762   -0.840193   -0.207284
     27          1           0        5.183487   -0.760426   -2.305669
     28          1           0        2.987771    0.199005   -2.971823
     29          1           0        1.246602    0.660166   -1.229484
     30          1           0        3.895050   -0.793379    1.819154
     31          1           0        5.644857   -1.259283    0.086759
     32          7           0        1.468925    0.226015    1.391608
     33          8           0        1.747912   -0.038775    2.558951
     34          8           0        0.401473    0.700190    1.009062
 ---------------------------------------------------------------------

 SCF Done:  E(RHF) =  -669.536408846     A.U. after   15 cycles
 E2 =    -0.2091936865D+01 EUMP2 =    -0.67162834571068D+03

 The electronic state is 1-A.
 Alpha  occ. eigenvalues --  -20.61058 -20.61043 -15.86078 -11.31348 -11.27906
 Alpha  occ. eigenvalues --  -11.27902 -11.27633 -11.26902 -11.26892 -11.20950
 Alpha  occ. eigenvalues --  -11.20514 -11.20484 -11.20461 -11.20299 -11.20094
 Alpha  occ. eigenvalues --   -1.60109  -1.39668  -1.19512  -1.08926  -1.07494
 Alpha  occ. eigenvalues --   -1.04901  -1.02654  -0.95777  -0.95124  -0.86305
 Alpha  occ. eigenvalues --   -0.86152  -0.82616  -0.78749  -0.77700  -0.77283
 Alpha  occ. eigenvalues --   -0.72318  -0.71416  -0.70622  -0.65181  -0.64903
 Alpha  occ. eigenvalues --   -0.64067  -0.62250  -0.60009  -0.58515  -0.56747
 Alpha  occ. eigenvalues --   -0.55407  -0.54395  -0.53235  -0.52993  -0.51862
 Alpha  occ. eigenvalues --   -0.51574  -0.49111  -0.49074  -0.49013  -0.47073
 Alpha  occ. eigenvalues --   -0.45750  -0.45142  -0.44838  -0.44632  -0.42900
 Alpha  occ. eigenvalues --   -0.37488  -0.36499
 Alpha virt. eigenvalues --    0.04820   0.11150   0.16316   0.20657   0.23466
 Alpha virt. eigenvalues --    0.24459   0.26216   0.27488   0.28098   0.28790
 Alpha virt. eigenvalues --    0.29139   0.30673   0.31553   0.32535   0.32638

 Mulliken charges:
               1
     1  C   -0.303514
     2  C   -0.296544
     3  C   -0.479660
     4  H    0.162673
     5  H    0.140102
     6  H    0.164595
     7  H    0.145273
     8  H    0.146372
     9  H    0.163007
    10  H    0.157492
    11  C   -0.298435
    12  C   -0.298766
    13  C   -0.475347
    14  H    0.156114
    15  H    0.145889
    16  H    0.150795
    17  H    0.147900
    18  H    0.153925
    19  H    0.156747
    20  H    0.156825
    21  C   -0.170309
    22  C   -0.219006
    23  C   -0.171705
    24  C    0.157463
    25  C   -0.170648
    26  C   -0.218625
    27  H    0.226278
    28  H    0.224556
    29  H    0.277896
    30  H    0.275862
    31  H    0.224020
    32  N    0.493783
    33  O   -0.458179
    34  O   -0.466827
 Sum of Mulliken charges =  -0.00000

 Dipole moment (field-independent basis, Debye):
    X=              3.9450    Y=             -0.9981    Z=             -3.4136  Tot=              5.3115
 Quadrupole moment (field-independent basis, Debye-Ang):
   XX=            -75.5444   YY=            -96.2221   ZZ=            -94.9981
   XY=             -4.5581   XZ=             -5.3409   YZ=             -1.1932

 Normal termination of Gaussian 16 at Wed May  5 18:39:25 2021.
