 Gaussian 16, Revision A.03,
 Gaussian 16:  EM64L-G16RevA.03 25-Dec-2016

 -------------
 #p 6-31g* mp2
 -------------

 ------------------------------------------------------
 Input file generated by CHIRIPA (05-May-2021 14:55:22)
 ------------------------------------------------------
 Symbolic Z-matrix:
 Charge =  0 Multiplicity = 1

                         Standard orientation:
 ---------------------------------------------------------------------
 Center     Atomic      Atomic             Coordinates (Angstroms)
 Number     Number       Type             X           Y           Z
 ---------------------------------------------------------------------
      1          6           0       -1.517845    1.432819    0.379457
      2          6           0       -1.934285    1.089923   -0.911094
      3          6           0       -3.051675    0.271832   -1.102707
      4          6           0       -3.732265   -0.187707    0.023752
      5          6           0       -3.342059    0.136369    1.322215
      6          6           0       -2.221820    0.955789    1.490034
      7          1           0       -0.648723    2.068848    0.519065
      8          1           0       -1.389492    1.458935   -1.775429
      9          1           0       -3.395866   -0.009121   -2.090642
     10          1           0       -3.905404   -0.246819    2.164371
     11          1           0       -1.900692    1.220462    2.493463
     12          7           0       -4.916704   -1.054487   -0.166505
     13          8           0       -5.499193   -1.446393    0.842333
     14          8           0       -5.240151   -1.325550   -1.320864
     15          6           0        5.105479   -0.297752    0.280390
     16          6           0        5.486463   -1.626872   -0.372509
     17          6           0        6.644415   -2.325459    0.340876
     18          1           0        5.983193    0.362884    0.291556
     19          1           0        4.835815   -0.477015    1.330410
     20          1           0        5.753996   -1.445352   -1.421361
     21          1           0        4.607689   -2.284350   -0.382294
     22          1           0        6.384208   -2.535322    1.383397
     23          1           0        7.537029   -1.691556    0.338427
     24          1           0        6.900272   -3.273538   -0.142389
     25          6           0        3.949383    0.412572   -0.421470
     26          6           0        3.568399    1.741692    0.231429
     27          6           0        2.410448    2.440280   -0.481955
     28          1           0        4.219047    0.591835   -1.471490
     29          1           0        3.071669   -0.248064   -0.432636
     30          1           0        4.447173    2.399170    0.241215
     31          1           0        3.300866    1.560172    1.280281
     32          1           0        1.517833    1.806376   -0.479506
     33          1           0        2.670654    2.650142   -1.524477
     34          1           0        2.154589    3.388358    0.001309
 ---------------------------------------------------------------------

 SCF Done:  E(RHF) =  -669.535569671     A.U. after   15 cycles
 E2 =    -0.2091012312D+01 EUMP2 =    -0.67162658198274D+03

 The electronic state is 1-A.
 Alpha  occ. eigenvalues --  -20.60745 -20.60739 -15.85798 -11.31161 -11.27730
 Alpha  occ. eigenvalues --  -11.27726 -11.27416 -11.26737 -11.26725 -11.22512
 Alpha  occ. eigenvalues --  -11.22292 -11.22089 -11.22038 -11.21919 -11.21426
 Alpha  occ. eigenvalues --   -1.59820  -1.39374  -1.19331  -1.09101  -1.08722
 Alpha  occ. eigenvalues --   -1.04733  -1.04241  -0.96715  -0.95558  -0.87739
 Alpha  occ. eigenvalues --   -0.86128  -0.82393  -0.80317  -0.78868  -0.77442
 Alpha  occ. eigenvalues --   -0.72016  -0.71144  -0.70450  -0.65731  -0.64980
 Alpha  occ. eigenvalues --   -0.64737  -0.62083  -0.61643  -0.60102  -0.58294
 Alpha  occ. eigenvalues --   -0.56126  -0.55134  -0.53407  -0.53155  -0.53032
 Alpha  occ. eigenvalues --   -0.52819  -0.50636  -0.48774  -0.48772  -0.48622
 Alpha  occ. eigenvalues --   -0.47329  -0.46421  -0.46314  -0.44780  -0.44474
 Alpha  occ. eigenvalues --   -0.37299  -0.36341
 Alpha virt. eigenvalues --    0.05072   0.11279   0.16511   0.20326   0.22463
 Alpha virt. eigenvalues --    0.23798   0.25805   0.26317   0.26907   0.27441
 Alpha virt. eigenvalues --    0.29244   0.30604   0.30919   0.31201   0.31521

 Mulliken charges:
               1
     1  C   -0.175229
     2  C   -0.220523
     3  C   -0.170945
     4  C    0.158353
     5  C   -0.170914
     6  C   -0.219501
     7  H    0.232563
     8  H    0.224394
     9  H    0.275539
    10  H    0.275412
    11  H    0.223379
    12  N    0.488081
    13  O   -0.460531
    14  O   -0.460482
    15  C   -0.298794
    16  C   -0.300290
    17  C   -0.476078
    18  H    0.150679
    19  H    0.149974
    20  H    0.152587
    21  H    0.153029
    22  H    0.155676
    23  H    0.155605
    24  H    0.161928
    25  C   -0.299490
    26  C   -0.298923
    27  C   -0.483529
    28  H    0.150817
    29  H    0.150674
    30  H    0.155816
    31  H    0.151578
    32  H    0.149586
    33  H    0.160029
    34  H    0.159529
 Sum of Mulliken charges =  -0.00000

 Dipole moment (field-independent basis, Debye):
    X=              4.3796    Y=              3.0264    Z=              0.6578  Tot=              5.3641
 Quadrupole moment (field-independent basis, Debye-Ang):
   XX=           -126.0915   YY=            -96.8198   ZZ=            -89.5676
   XY=            -11.3883   XZ=             -3.8815   YZ=             -0.4363

 Normal termination of Gaussian 16 at Thu May  6 09:24:52 2021.
