 Gaussian 16, Revision A.03,
 Gaussian 16:  EM64L-G16RevA.03 25-Dec-2016

 -------------
 #p 6-31g* mp2
 -------------

 ------------------------------------------------------
 Input file generated by CHIRIPA (05-May-2021 14:53:18)
 ------------------------------------------------------
 Symbolic Z-matrix:
 Charge =  0 Multiplicity = 1

                         Standard orientation:
 ---------------------------------------------------------------------
 Center     Atomic      Atomic             Coordinates (Angstroms)
 Number     Number       Type             X           Y           Z
 ---------------------------------------------------------------------
      1          6           0       -6.278949    0.328960   -0.148846
      2          6           0       -7.557355   -0.385831    0.290173
      3          6           0       -8.824948    0.360428   -0.127080
      4          1           0       -6.267441    1.341253    0.277856
      5          1           0       -6.291502    0.450195   -1.240880
      6          1           0       -7.541752   -0.506915    1.380912
      7          1           0       -7.565730   -1.396608   -0.137466
      8          1           0       -8.867542    0.468708   -1.215685
      9          1           0       -8.843428    1.363456    0.311320
     10          1           0       -9.726961   -0.168070    0.196837
     11          6           0       -5.003313   -0.404872    0.260999
     12          6           0       -3.724907    0.309918   -0.178020
     13          6           0       -2.457314   -0.436341    0.239233
     14          1           0       -4.990760   -0.526107    1.353033
     15          1           0       -5.014821   -1.417166   -0.165702
     16          1           0       -3.716532    1.320695    0.249619
     17          1           0       -3.740509    0.431002   -1.268759
     18          1           0       -2.438833   -1.439369   -0.199167
     19          1           0       -2.414720   -0.544621    1.327839
     20          1           0       -1.555300    0.092158   -0.084684
     21          6           0        1.898967    0.065859   -0.315314
     22          6           0        2.602823    1.263642   -0.152766
     23          6           0        3.992640    1.255550   -0.001465
     24          6           0        4.649613    0.026153   -0.017562
     25          6           0        3.976495   -1.184044   -0.177638
     26          6           0        2.586837   -1.152014   -0.327211
     27          1           0        0.819386    0.081443   -0.432177
     28          1           0        2.071239    2.210938   -0.143133
     29          1           0        4.562381    2.167997    0.126029
     30          1           0        4.534052   -2.112763   -0.183104
     31          1           0        2.042816   -2.083784   -0.453275
     32          7           0        6.120867    0.004916    0.141698
     33          8           0        6.676320   -1.091349    0.124025
     34          8           0        6.690723    1.084936    0.281185
 ---------------------------------------------------------------------

 SCF Done:  E(RHF) =  -669.535531867     A.U. after   15 cycles
 E2 =    -0.2090594490D+01 EUMP2 =    -0.67162612635729D+03

 The electronic state is 1-A.
 Alpha  occ. eigenvalues --  -20.60719 -20.60714 -15.85773 -11.31127 -11.27700
 Alpha  occ. eigenvalues --  -11.27695 -11.27410 -11.26708 -11.26696 -11.22522
 Alpha  occ. eigenvalues --  -11.22310 -11.22108 -11.22081 -11.21949 -11.21475
 Alpha  occ. eigenvalues --   -1.59795  -1.39349  -1.19299  -1.09121  -1.08693
 Alpha  occ. eigenvalues --   -1.04703  -1.04264  -0.96735  -0.95531  -0.87758
 Alpha  occ. eigenvalues --   -0.86098  -0.82367  -0.80333  -0.78891  -0.77415
 Alpha  occ. eigenvalues --   -0.71991  -0.71118  -0.70424  -0.65743  -0.64950
 Alpha  occ. eigenvalues --   -0.64709  -0.62052  -0.61648  -0.60180  -0.58335
 Alpha  occ. eigenvalues --   -0.56002  -0.55258  -0.53403  -0.53140  -0.53029
 Alpha  occ. eigenvalues --   -0.52794  -0.50655  -0.48752  -0.48746  -0.48642
 Alpha  occ. eigenvalues --   -0.47342  -0.46445  -0.46339  -0.44757  -0.44513
 Alpha  occ. eigenvalues --   -0.37273  -0.36310
 Alpha virt. eigenvalues --    0.05121   0.11346   0.16609   0.19918   0.22358
 Alpha virt. eigenvalues --    0.23710   0.25778   0.26008   0.26834   0.27364
 Alpha virt. eigenvalues --    0.28321   0.30322   0.30727   0.31391   0.32525

 Mulliken charges:
               1
     1  C   -0.298791
     2  C   -0.300141
     3  C   -0.476060
     4  H    0.150470
     5  H    0.150253
     6  H    0.152697
     7  H    0.152529
     8  H    0.155670
     9  H    0.155729
    10  H    0.161675
    11  C   -0.299518
    12  C   -0.298792
    13  C   -0.481189
    14  H    0.151067
    15  H    0.150666
    16  H    0.153567
    17  H    0.153304
    18  H    0.157023
    19  H    0.160346
    20  H    0.150903
    21  C   -0.177085
    22  C   -0.221693
    23  C   -0.170745
    24  C    0.158215
    25  C   -0.170742
    26  C   -0.221829
    27  H    0.237531
    28  H    0.223312
    29  H    0.275374
    30  H    0.275380
    31  H    0.224101
    32  N    0.487987
    33  O   -0.460590
    34  O   -0.460625
 Sum of Mulliken charges =  -0.00000

 Dipole moment (field-independent basis, Debye):
    X=             -5.4554    Y=              0.0554    Z=             -0.5360  Tot=              5.4819
 Quadrupole moment (field-independent basis, Debye-Ang):
   XX=           -143.7034   YY=            -89.6455   ZZ=            -94.8686
   XY=              0.6913   XZ=             -2.8064   YZ=              0.9683

 Normal termination of Gaussian 16 at Thu May  6 12:19:04 2021.
