 Gaussian 16, Revision A.03,
 Gaussian 16:  EM64L-G16RevA.03 25-Dec-2016

 -------------
 #p 6-31g* mp2
 -------------

 ------------------------------------------------------
 Input file generated by CHIRIPA (05-May-2021 14:53:13)
 ------------------------------------------------------
 Symbolic Z-matrix:
 Charge =  0 Multiplicity = 1

                         Standard orientation:
 ---------------------------------------------------------------------
 Center     Atomic      Atomic             Coordinates (Angstroms)
 Number     Number       Type             X           Y           Z
 ---------------------------------------------------------------------
      1          6           0        3.086670    0.556888    0.416905
      2          6           0        3.242909    2.036550    0.769290
      3          6           0        1.985149    2.628628    1.405905
      4          1           0        2.236219    0.437502   -0.268241
      5          1           0        2.835983   -0.005161    1.327208
      6          1           0        3.494588    2.595438   -0.141160
      7          1           0        4.093206    2.152451    1.453525
      8          1           0        1.733824    2.096771    2.329249
      9          1           0        1.131804    2.542274    0.725503
     10          1           0        2.118844    3.687172    1.649770
     11          6           0        4.335748   -0.049268   -0.220362
     12          6           0        4.179509   -1.528930   -0.572746
     13          6           0        5.437269   -2.121008   -1.209361
     14          1           0        4.586435    0.512781   -1.130664
     15          1           0        5.186199    0.070118    0.464784
     16          1           0        3.329212   -1.644831   -1.256982
     17          1           0        3.927830   -2.087818    0.337703
     18          1           0        6.290613   -2.034654   -0.528960
     19          1           0        5.688594   -1.589151   -2.132705
     20          1           0        5.303574   -3.179552   -1.453227
     21          6           0       -2.920228    2.072329   -1.176676
     22          6           0       -1.748960    1.594354   -0.579858
     23          6           0       -1.725860    0.337745    0.032470
     24          6           0       -2.897366   -0.417804    0.029560
     25          6           0       -4.079928    0.030767   -0.556634
     26          6           0       -4.079930    1.290387   -1.163183
     27          1           0       -2.929201    3.049664   -1.650103
     28          1           0       -0.846834    2.199444   -0.588824
     29          1           0       -0.832866   -0.056682    0.501946
     30          1           0       -4.963552   -0.595338   -0.531758
     31          1           0       -4.990995    1.659033   -1.625900
     32          7           0       -2.885139   -1.749714    0.674745
     33          8           0       -3.930457   -2.396003    0.658724
     34          8           0       -1.830467   -2.122158    1.184246
 ---------------------------------------------------------------------

 SCF Done:  E(RHF) =  -669.535536677     A.U. after   15 cycles
 E2 =    -0.2091367926D+01 EUMP2 =    -0.67162690460257D+03

 The electronic state is 1-A.
 Alpha  occ. eigenvalues --  -20.60724 -20.60719 -15.85778 -11.31137 -11.27716
 Alpha  occ. eigenvalues --  -11.27691 -11.27460 -11.26731 -11.26707 -11.22177
 Alpha  occ. eigenvalues --  -11.21900 -11.21862 -11.21696 -11.21631 -11.21116
 Alpha  occ. eigenvalues --   -1.59800  -1.39353  -1.19314  -1.08808  -1.08711
 Alpha  occ. eigenvalues --   -1.04718  -1.03906  -0.96380  -0.95545  -0.87400
 Alpha  occ. eigenvalues --   -0.86116  -0.82382  -0.79981  -0.78584  -0.77422
 Alpha  occ. eigenvalues --   -0.71996  -0.71123  -0.70422  -0.65454  -0.64966
 Alpha  occ. eigenvalues --   -0.64737  -0.62116  -0.61270  -0.59756  -0.57965
 Alpha  occ. eigenvalues --   -0.55706  -0.55215  -0.53085  -0.53043  -0.52944
 Alpha  occ. eigenvalues --   -0.52651  -0.50321  -0.48757  -0.48750  -0.48284
 Alpha  occ. eigenvalues --   -0.47008  -0.46135  -0.46021  -0.44760  -0.44150
 Alpha  occ. eigenvalues --   -0.37299  -0.36317
 Alpha virt. eigenvalues --    0.05104   0.11328   0.16576   0.19107   0.22858
 Alpha virt. eigenvalues --    0.23819   0.25375   0.26546   0.26831   0.28255
 Alpha virt. eigenvalues --    0.29325   0.29747   0.31300   0.31686   0.32109

 Mulliken charges:
               1
     1  C   -0.300260
     2  C   -0.299768
     3  C   -0.479832
     4  H    0.143559
     5  H    0.154849
     6  H    0.151697
     7  H    0.156124
     8  H    0.161260
     9  H    0.143842
    10  H    0.163667
    11  C   -0.298579
    12  C   -0.300538
    13  C   -0.476155
    14  H    0.148920
    15  H    0.151233
    16  H    0.152796
    17  H    0.156030
    18  H    0.155337
    19  H    0.154243
    20  H    0.162575
    21  C   -0.171395
    22  C   -0.223875
    23  C   -0.174407
    24  C    0.158596
    25  C   -0.170840
    26  C   -0.218673
    27  H    0.225862
    28  H    0.230017
    29  H    0.278059
    30  H    0.275433
    31  H    0.223216
    32  N    0.488073
    33  O   -0.460782
    34  O   -0.460285
 Sum of Mulliken charges =  -0.00000

 Dipole moment (field-independent basis, Debye):
    X=              0.1265    Y=              4.6402    Z=             -2.2035  Tot=              5.1384
 Quadrupole moment (field-independent basis, Debye-Ang):
   XX=            -89.8524   YY=            -99.4787   ZZ=            -94.6135
   XY=            -12.7349   XZ=              9.0015   YZ=              0.7978

 Normal termination of Gaussian 16 at Thu May  6 10:28:57 2021.
