 Gaussian 16, Revision A.03,
 Gaussian 16:  EM64L-G16RevA.03 25-Dec-2016

 -------------
 #p 6-31g* mp2
 -------------

 ------------------------------------------------------
 Input file generated by CHIRIPA (05-May-2021 14:51:11)
 ------------------------------------------------------
 Symbolic Z-matrix:
 Charge =  0 Multiplicity = 1

                         Standard orientation:
 ---------------------------------------------------------------------
 Center     Atomic      Atomic             Coordinates (Angstroms)
 Number     Number       Type             X           Y           Z
 ---------------------------------------------------------------------
      1          6           0       -3.732952    0.558656   -0.469066
      2          6           0       -3.033563    1.609727    0.393540
      3          6           0       -2.121794    2.529754   -0.418877
      4          1           0       -2.975078   -0.041526   -0.990942
      5          1           0       -4.320797    1.065058   -1.247134
      6          1           0       -2.448316    1.101524    1.170606
      7          1           0       -3.793186    2.207353    0.913572
      8          1           0       -2.695416    3.062834   -1.183981
      9          1           0       -1.342905    1.950721   -0.925487
     10          1           0       -1.631947    3.273394    0.217449
     11          6           0       -4.647931   -0.368649    0.328835
     12          6           0       -5.347320   -1.419721   -0.533771
     13          6           0       -6.259089   -2.339748    0.278645
     14          1           0       -4.060086   -0.875052    1.106903
     15          1           0       -5.405805    0.231533    0.850711
     16          1           0       -4.587697   -2.017346   -1.053803
     17          1           0       -5.932567   -0.911517   -1.310837
     18          1           0       -7.037978   -1.760715    0.785255
     19          1           0       -5.685467   -2.872827    1.043750
     20          1           0       -6.748936   -3.083387   -0.357680
     21          6           0        4.838130   -0.356122    0.379548
     22          6           0        5.894974   -0.737460   -0.657585
     23          6           0        7.185023   -1.258075   -0.023134
     24          1           0        5.252132    0.407885    1.051739
     25          1           0        4.613441   -1.232491    1.003155
     26          1           0        6.116594    0.138995   -1.279942
     27          1           0        5.478342   -1.500508   -1.327503
     28          1           0        6.984643   -2.147687    0.582705
     29          1           0        7.626520   -0.498866    0.630537
     30          1           0        7.926687   -1.524772   -0.782520
     31          6           0        3.542753    0.166115   -0.239317
     32          6           0        2.485908    0.547453    0.797817
     33          6           0        1.195860    1.068068    0.163365
     34          1           0        3.767442    1.042484   -0.862924
     35          1           0        3.128750   -0.597892   -0.911508
     36          1           0        2.902541    1.310502    1.467734
     37          1           0        2.264289   -0.329001    1.420173
     38          1           0        0.754363    0.308860   -0.490305
     39          1           0        1.396240    1.957679   -0.442474
     40          1           0        0.454196    1.334765    0.922751
 ---------------------------------------------------------------------

 SCF Done:  E(RHF) =  -470.732746262     A.U. after   11 cycles
 E2 =    -0.1582853020D+01 EUMP2 =    -0.47231559928184D+03

 The electronic state is 1-A.
 Alpha  occ. eigenvalues --  -11.21609 -11.21598 -11.21580 -11.21529 -11.21414
 Alpha  occ. eigenvalues --  -11.21365 -11.21355 -11.21303 -11.21078 -11.21074
 Alpha  occ. eigenvalues --  -11.21056 -11.20879  -1.08443  -1.08379  -1.03567
 Alpha  occ. eigenvalues --   -1.03446  -0.96062  -0.95852  -0.87112  -0.86838
 Alpha  occ. eigenvalues --   -0.79672  -0.79476  -0.78258  -0.78193  -0.65074
 Alpha  occ. eigenvalues --   -0.65015  -0.60959  -0.60897  -0.59413  -0.59214
 Alpha  occ. eigenvalues --   -0.57665  -0.57466  -0.55286  -0.55245  -0.52754
 Alpha  occ. eigenvalues --   -0.52522  -0.52483  -0.52254  -0.49938  -0.49819
 Alpha  occ. eigenvalues --   -0.47979  -0.47801  -0.46639  -0.46560  -0.45820
 Alpha  occ. eigenvalues --   -0.45722  -0.45715  -0.45632  -0.43785  -0.43703
 Alpha virt. eigenvalues --    0.21626   0.23002   0.23604   0.24952   0.26251
 Alpha virt. eigenvalues --    0.26610   0.26826   0.27550   0.27726   0.29158
 Alpha virt. eigenvalues --    0.29974   0.31119   0.31321   0.31998   0.32355

 Mulliken charges:
               1
     1  C   -0.298169
     2  C   -0.301250
     3  C   -0.479939
     4  H    0.149431
     5  H    0.149500
     6  H    0.151997
     7  H    0.151503
     8  H    0.153744
     9  H    0.164772
    10  H    0.158834
    11  C   -0.298267
    12  C   -0.299592
    13  C   -0.475670
    14  H    0.149351
    15  H    0.149582
    16  H    0.151757
    17  H    0.151914
    18  H    0.155167
    19  H    0.155083
    20  H    0.160147
    21  C   -0.298233
    22  C   -0.299618
    23  C   -0.475706
    24  H    0.149692
    25  H    0.149457
    26  H    0.151974
    27  H    0.151890
    28  H    0.155160
    29  H    0.155203
    30  H    0.160279
    31  C   -0.298456
    32  C   -0.301088
    33  C   -0.477680
    34  H    0.149618
    35  H    0.149405
    36  H    0.151994
    37  H    0.151535
    38  H    0.153275
    39  H    0.156274
    40  H    0.165133
 Sum of Mulliken charges =  -0.00000

 Dipole moment (field-independent basis, Debye):
    X=              0.0318    Y=              0.0092    Z=             -0.0070  Tot=              0.0339
 Quadrupole moment (field-independent basis, Debye-Ang):
   XX=            -85.7017   YY=            -84.2172   ZZ=            -85.0923
   XY=             -0.1887   XZ=              0.1373   YZ=              0.3868

 Normal termination of Gaussian 16 at Wed May  5 23:07:10 2021.
