 Gaussian 16, Revision A.03,
 Gaussian 16:  EM64L-G16RevA.03 25-Dec-2016

 -------------
 #p 6-31g* mp2
 -------------

 ------------------------------------------------------
 Input file generated by CHIRIPA (05-May-2021 14:51:14)
 ------------------------------------------------------
 Symbolic Z-matrix:
 Charge =  0 Multiplicity = 1

                         Standard orientation:
 ---------------------------------------------------------------------
 Center     Atomic      Atomic             Coordinates (Angstroms)
 Number     Number       Type             X           Y           Z
 ---------------------------------------------------------------------
      1          6           0        3.755655   -0.672914    0.079906
      2          6           0        2.594539   -1.461453   -0.526724
      3          6           0        2.641530   -2.948417   -0.173845
      4          1           0        4.704504   -1.103922   -0.267746
      5          1           0        3.739746   -0.792198    1.172112
      6          1           0        2.611812   -1.339591   -1.617351
      7          1           0        1.648342   -1.028397   -0.177739
      8          1           0        2.601001   -3.088315    0.911230
      9          1           0        3.569945   -3.401278   -0.536562
     10          1           0        1.802378   -3.493084   -0.617715
     11          6           0        3.722499    0.815168   -0.263955
     12          6           0        4.883615    1.603707    0.342675
     13          6           0        4.836623    3.090671   -0.010204
     14          1           0        3.738408    0.934452   -1.356161
     15          1           0        2.773650    1.246177    0.083697
     16          1           0        5.829811    1.170652   -0.006310
     17          1           0        4.866341    1.481846    1.433302
     18          1           0        3.908208    3.543532    0.352513
     19          1           0        4.877153    3.230570   -1.095279
     20          1           0        5.675775    3.635338    0.433666
     21          6           0       -3.146834   -0.306475    0.513085
     22          6           0       -2.239179   -1.296868   -0.217167
     23          6           0       -1.058877   -1.758498    0.638157
     24          1           0       -2.553782    0.564849    0.822970
     25          1           0       -3.521107   -0.773562    1.434576
     26          1           0       -1.867835   -0.828547   -1.137708
     27          1           0       -2.834502   -2.165849   -0.525517
     28          1           0       -1.412933   -2.249767    1.550242
     29          1           0       -0.440773   -0.904866    0.934573
     30          1           0       -0.423112   -2.465936    0.096683
     31          6           0       -4.331319    0.164221   -0.329036
     32          6           0       -5.238974    1.154614    0.401216
     33          6           0       -6.419276    1.616243   -0.454107
     34          1           0       -3.957047    0.631307   -1.250528
     35          1           0       -4.924371   -0.707103   -0.638920
     36          1           0       -4.643652    2.023595    0.709566
     37          1           0       -5.610319    0.686293    1.321756
     38          1           0       -7.037380    0.762612   -0.750524
     39          1           0       -6.065220    2.107513   -1.366193
     40          1           0       -7.055041    2.323682    0.087366
 ---------------------------------------------------------------------

 SCF Done:  E(RHF) =  -470.732161888     A.U. after   11 cycles
 E2 =    -0.1583412598D+01 EUMP2 =    -0.47231557448596D+03

 The electronic state is 1-A.
 Alpha  occ. eigenvalues --  -11.21616 -11.21612 -11.21587 -11.21443 -11.21420
 Alpha  occ. eigenvalues --  -11.21371 -11.21360 -11.21298 -11.21079 -11.21066
 Alpha  occ. eigenvalues --  -11.21056 -11.21024  -1.08451  -1.08381  -1.03585
 Alpha  occ. eigenvalues --   -1.03451  -0.96056  -0.95895  -0.87029  -0.86957
 Alpha  occ. eigenvalues --   -0.79665  -0.79507  -0.78268  -0.78188  -0.65136
 Alpha  occ. eigenvalues --   -0.64980  -0.61129  -0.60769  -0.59608  -0.59115
 Alpha  occ. eigenvalues --   -0.57742  -0.57403  -0.55373  -0.55164  -0.52822
 Alpha  occ. eigenvalues --   -0.52527  -0.52475  -0.52242  -0.50076  -0.49800
 Alpha  occ. eigenvalues --   -0.47979  -0.47807  -0.46807  -0.46418  -0.45836
 Alpha  occ. eigenvalues --   -0.45747  -0.45712  -0.45532  -0.43795  -0.43715
 Alpha virt. eigenvalues --    0.21663   0.23080   0.23497   0.24948   0.25879
 Alpha virt. eigenvalues --    0.26789   0.26907   0.27344   0.27690   0.29210
 Alpha virt. eigenvalues --    0.30144   0.31281   0.31653   0.31960   0.32438

 Mulliken charges:
               1
     1  C   -0.297746
     2  C   -0.307417
     3  C   -0.476607
     4  H    0.149179
     5  H    0.149203
     6  H    0.150631
     7  H    0.162084
     8  H    0.155865
     9  H    0.155239
    10  H    0.159181
    11  C   -0.297958
    12  C   -0.299594
    13  C   -0.475668
    14  H    0.149442
    15  H    0.148547
    16  H    0.152028
    17  H    0.151911
    18  H    0.154942
    19  H    0.155121
    20  H    0.160235
    21  C   -0.298634
    22  C   -0.300350
    23  C   -0.481921
    24  H    0.149536
    25  H    0.149589
    26  H    0.152531
    27  H    0.152089
    28  H    0.155365
    29  H    0.155221
    30  H    0.167748
    31  C   -0.298273
    32  C   -0.299645
    33  C   -0.475715
    34  H    0.149620
    35  H    0.149702
    36  H    0.151893
    37  H    0.151924
    38  H    0.155201
    39  H    0.155226
    40  H    0.160276
 Sum of Mulliken charges =  -0.00000

 Dipole moment (field-independent basis, Debye):
    X=             -0.0332    Y=             -0.0155    Z=              0.0086  Tot=              0.0376
 Quadrupole moment (field-independent basis, Debye-Ang):
   XX=            -85.1551   YY=            -85.5469   ZZ=            -84.2590
   XY=              0.6424   XZ=             -1.0531   YZ=              0.2406

 Normal termination of Gaussian 16 at Thu May  6 04:00:32 2021.
