 Gaussian 16, Revision A.03,
 Gaussian 16:  EM64L-G16RevA.03 25-Dec-2016

 -------------
 #p 6-31g* mp2
 -------------

 ------------------------------------------------------
 Input file generated by CHIRIPA (05-May-2021 14:55:20)
 ------------------------------------------------------
 Symbolic Z-matrix:
 Charge =  0 Multiplicity = 1

                         Standard orientation:
 ---------------------------------------------------------------------
 Center     Atomic      Atomic             Coordinates (Angstroms)
 Number     Number       Type             X           Y           Z
 ---------------------------------------------------------------------
      1          6           0        1.972368   -2.507768    0.995501
      2          6           0        3.316952   -2.199584    0.763903
      3          6           0        3.674803   -0.987382    0.166361
      4          6           0        2.657676   -0.102621   -0.188522
      5          6           0        1.309164   -0.380884    0.029138
      6          6           0        0.974525   -1.599037    0.628027
      7          1           0        1.703396   -3.451747    1.460209
      8          1           0        4.094013   -2.903409    1.048249
      9          1           0        4.707909   -0.723394   -0.024482
     10          1           0        0.556919    0.340829   -0.265267
     11          1           0       -0.070517   -1.835714    0.806678
     12          7           0        3.024231    1.183833   -0.821826
     13          8           0        2.109257    1.946333   -1.125228
     14          8           0        4.219569    1.405295   -1.002816
     15          6           0       -3.164413    1.149592    0.112695
     16          6           0       -2.211288    1.557936    1.236436
     17          6           0       -1.900573    3.055013    1.233254
     18          1           0       -2.724398    1.432148   -0.853480
     19          1           0       -4.099103    1.719214    0.209017
     20          1           0       -1.279202    0.986705    1.138836
     21          1           0       -2.653537    1.274202    2.200036
     22          1           0       -2.818574    3.639246    1.353866
     23          1           0       -1.436430    3.350117    0.286636
     24          1           0       -1.217539    3.324997    2.044693
     25          6           0       -3.484582   -0.344102    0.102717
     26          6           0       -4.437707   -0.752447   -1.021024
     27          6           0       -4.748422   -2.249524   -1.017843
     28          1           0       -2.549892   -0.913725    0.006395
     29          1           0       -3.924597   -0.626659    1.068891
     30          1           0       -3.995458   -0.468713   -1.984625
     31          1           0       -5.369793   -0.181216   -0.923424
     32          1           0       -5.212564   -2.544626   -0.071224
     33          1           0       -3.830421   -2.833757   -1.138455
     34          1           0       -5.431456   -2.519507   -1.829280
 ---------------------------------------------------------------------

 SCF Done:  E(RHF) =  -669.535412745     A.U. after   15 cycles
 E2 =    -0.2092314907D+01 EUMP2 =    -0.67162772765220D+03

 The electronic state is 1-A.
 Alpha  occ. eigenvalues --  -20.60781 -20.60776 -15.85833 -11.31189 -11.27763
 Alpha  occ. eigenvalues --  -11.27739 -11.27499 -11.26779 -11.26757 -11.22093
 Alpha  occ. eigenvalues --  -11.22033 -11.22022 -11.21790 -11.21552 -11.21077
 Alpha  occ. eigenvalues --   -1.59854  -1.39408  -1.19364  -1.08919  -1.08759
 Alpha  occ. eigenvalues --   -1.04770  -1.03913  -0.96342  -0.95596  -0.87351
 Alpha  occ. eigenvalues --   -0.86164  -0.82434  -0.79994  -0.78762  -0.77471
 Alpha  occ. eigenvalues --   -0.72053  -0.71176  -0.70485  -0.65590  -0.65010
 Alpha  occ. eigenvalues --   -0.64777  -0.62161  -0.61255  -0.59717  -0.57962
 Alpha  occ. eigenvalues --   -0.55632  -0.55268  -0.53099  -0.52996  -0.52896
 Alpha  occ. eigenvalues --   -0.52723  -0.50267  -0.48809  -0.48808  -0.48289
 Alpha  occ. eigenvalues --   -0.47034  -0.46280  -0.46193  -0.44815  -0.44192
 Alpha  occ. eigenvalues --   -0.37343  -0.36358
 Alpha virt. eigenvalues --    0.05023   0.11271   0.16488   0.18667   0.22914
 Alpha virt. eigenvalues --    0.23470   0.24478   0.26512   0.27580   0.28204
 Alpha virt. eigenvalues --    0.29736   0.31173   0.31384   0.31537   0.31722

 Mulliken charges:
               1
     1  C   -0.171067
     2  C   -0.218453
     3  C   -0.170837
     4  C    0.159158
     5  C   -0.175858
     6  C   -0.223312
     7  H    0.226057
     8  H    0.223523
     9  H    0.275620
    10  H    0.279910
    11  H    0.228664
    12  N    0.488069
    13  O   -0.460847
    14  O   -0.460277
    15  C   -0.300856
    16  C   -0.303267
    17  C   -0.477372
    18  H    0.153919
    19  H    0.153435
    20  H    0.143037
    21  H    0.152475
    22  H    0.155363
    23  H    0.165429
    24  H    0.162824
    25  C   -0.299778
    26  C   -0.300011
    27  C   -0.475834
    28  H    0.139248
    29  H    0.150817
    30  H    0.154828
    31  H    0.155000
    32  H    0.155198
    33  H    0.152167
    34  H    0.163029
 Sum of Mulliken charges =  -0.00000

 Dipole moment (field-independent basis, Debye):
    X=             -1.3959    Y=             -4.3981    Z=              2.1938  Tot=              5.1093
 Quadrupole moment (field-independent basis, Debye-Ang):
   XX=            -95.7568   YY=            -94.7777   ZZ=            -96.0389
   XY=            -14.1967   XZ=              6.2091   YZ=              0.4587

 Normal termination of Gaussian 16 at Wed May  5 17:24:32 2021.
