 Gaussian 16, Revision A.03,
 Gaussian 16:  EM64L-G16RevA.03 25-Dec-2016

 -------------
 #p 6-31g* mp2
 -------------

 ------------------------------------------------------
 Input file generated by CHIRIPA (05-May-2021 14:53:14)
 ------------------------------------------------------
 Symbolic Z-matrix:
 Charge =  0 Multiplicity = 1

                         Standard orientation:
 ---------------------------------------------------------------------
 Center     Atomic      Atomic             Coordinates (Angstroms)
 Number     Number       Type             X           Y           Z
 ---------------------------------------------------------------------
      1          6           0        2.687986   -0.064483   -0.167238
      2          6           0        3.944605   -0.916264    0.015416
      3          6           0        3.662629   -2.415499   -0.087426
      4          1           0        1.944752   -0.351964    0.589005
      5          1           0        2.240893   -0.288156   -1.145743
      6          1           0        4.389964   -0.690038    0.992705
      7          1           0        4.685006   -0.626588   -0.741228
      8          1           0        3.239556   -2.661631   -1.066726
      9          1           0        2.942838   -2.725442    0.677059
     10          1           0        4.574640   -3.005625    0.046165
     11          6           0        2.953729    1.436544   -0.067092
     12          6           0        1.697110    2.288324   -0.249746
     13          6           0        1.979086    3.787560   -0.146904
     14          1           0        3.400822    1.660217    0.911413
     15          1           0        3.696963    1.724025   -0.823335
     16          1           0        0.956709    1.998649    0.506898
     17          1           0        1.251751    2.062099   -1.227035
     18          1           0        2.698877    4.097503   -0.911389
     19          1           0        2.402159    4.033692    0.832396
     20          1           0        1.067075    4.377686   -0.280495
     21          6           0       -3.892476    1.332393   -0.061867
     22          6           0       -3.102947    1.194822    1.084535
     23          6           0       -2.164092    0.163368    1.180471
     24          6           0       -2.040539   -0.716587    0.106366
     25          6           0       -2.812502   -0.605745   -1.049090
     26          6           0       -3.744994    0.433255   -1.123150
     27          1           0       -4.619330    2.136582   -0.127895
     28          1           0       -3.215320    1.891636    1.910289
     29          1           0       -1.539925    0.033727    2.056272
     30          1           0       -2.677690   -1.315837   -1.855944
     31          1           0       -4.356797    0.537668   -2.014688
     32          7           0       -1.049984   -1.812536    0.196348
     33          8           0       -0.960377   -2.574712   -0.763699
     34          8           0       -0.381951   -1.888610    1.225223
 ---------------------------------------------------------------------

 SCF Done:  E(RHF) =  -669.536621893     A.U. after   15 cycles
 E2 =    -0.2092390181D+01 EUMP2 =    -0.67162901207307D+03

 The electronic state is 1-A.
 Alpha  occ. eigenvalues --  -20.60967 -20.60962 -15.85975 -11.31289 -11.27857
 Alpha  occ. eigenvalues --  -11.27841 -11.27578 -11.26857 -11.26846 -11.21355
 Alpha  occ. eigenvalues --  -11.20967 -11.20844 -11.20639 -11.20407 -11.19746
 Alpha  occ. eigenvalues --   -1.60006  -1.39568  -1.19451  -1.08856  -1.07766
 Alpha  occ. eigenvalues --   -1.04849  -1.02852  -0.95703  -0.95281  -0.86296
 Alpha  occ. eigenvalues --   -0.86248  -0.82542  -0.78979  -0.77616  -0.77488
 Alpha  occ. eigenvalues --   -0.72207  -0.71302  -0.70563  -0.65112  -0.64853
 Alpha  occ. eigenvalues --   -0.64401  -0.62199  -0.60253  -0.58731  -0.56876
 Alpha  occ. eigenvalues --   -0.55353  -0.54555  -0.53174  -0.52942  -0.52024
 Alpha  occ. eigenvalues --   -0.51680  -0.49224  -0.48969  -0.48957  -0.47257
 Alpha  occ. eigenvalues --   -0.46031  -0.45455  -0.45024  -0.44413  -0.43097
 Alpha  occ. eigenvalues --   -0.37419  -0.36440
 Alpha virt. eigenvalues --    0.04892   0.11169   0.16364   0.21260   0.23389
 Alpha virt. eigenvalues --    0.25073   0.26706   0.27452   0.27681   0.28680
 Alpha virt. eigenvalues --    0.28725   0.31025   0.32054   0.32162   0.32452

 Mulliken charges:
               1
     1  C   -0.307963
     2  C   -0.298609
     3  C   -0.478509
     4  H    0.165581
     5  H    0.147688
     6  H    0.148497
     7  H    0.146703
     8  H    0.156892
     9  H    0.171225
    10  H    0.153529
    11  C   -0.297232
    12  C   -0.298630
    13  C   -0.474971
    14  H    0.147755
    15  H    0.147624
    16  H    0.147231
    17  H    0.150587
    18  H    0.155684
    19  H    0.154458
    20  H    0.155773
    21  C   -0.170470
    22  C   -0.218369
    23  C   -0.170585
    24  C    0.159703
    25  C   -0.170806
    26  C   -0.218330
    27  H    0.226012
    28  H    0.223910
    29  H    0.275267
    30  H    0.275706
    31  H    0.223801
    32  N    0.489194
    33  O   -0.458040
    34  O   -0.460304
 Sum of Mulliken charges =  -0.00000

 Dipole moment (field-independent basis, Debye):
    X=             -3.7063    Y=              3.6602    Z=             -0.2817  Tot=              5.2166
 Quadrupole moment (field-independent basis, Debye-Ang):
   XX=            -81.4371   YY=           -101.9102   ZZ=            -89.7810
   XY=             -5.3590   XZ=              1.7248   YZ=              2.1998

 Normal termination of Gaussian 16 at Wed May  5 20:15:36 2021.
