 Gaussian 16, Revision A.03,
 Gaussian 16:  EM64L-G16RevA.03 25-Dec-2016

 -------------
 #p 6-31g* mp2
 -------------

 ------------------------------------------------------
 Input file generated by CHIRIPA (05-May-2021 14:51:14)
 ------------------------------------------------------
 Symbolic Z-matrix:
 Charge =  0 Multiplicity = 1

                         Standard orientation:
 ---------------------------------------------------------------------
 Center     Atomic      Atomic             Coordinates (Angstroms)
 Number     Number       Type             X           Y           Z
 ---------------------------------------------------------------------
      1          6           0       -3.411500   -0.609431    0.074298
      2          6           0       -3.862169   -1.895478   -0.619219
      3          6           0       -3.071930   -3.121902   -0.161836
      4          1           0       -2.341749   -0.451343   -0.119573
      5          1           0       -3.517593   -0.730704    1.161234
      6          1           0       -3.756561   -1.771318   -1.704598
      7          1           0       -4.931016   -2.050422   -0.423834
      8          1           0       -3.186304   -3.273779    0.916335
      9          1           0       -2.005176   -2.993089   -0.371706
     10          1           0       -3.410452   -4.030116   -0.670177
     11          6           0       -4.192162    0.625349   -0.372482
     12          6           0       -3.741493    1.911396    0.321035
     13          6           0       -4.531732    3.137820   -0.136349
     14          1           0       -4.086068    0.746623   -1.459419
     15          1           0       -5.261913    0.467261   -0.178611
     16          1           0       -2.672646    2.066340    0.125649
     17          1           0       -3.847101    1.787236    1.406414
     18          1           0       -5.598485    3.009007    0.073522
     19          1           0       -4.417358    3.289697   -1.214520
     20          1           0       -4.193210    4.046034    0.371993
     21          6           0        3.269004   -0.132476    0.682031
     22          6           0        1.877996   -0.387762    0.100734
     23          6           0        0.822860   -0.635158    1.179288
     24          1           0        3.566018   -0.993006    1.297022
     25          1           0        3.223414    0.733299    1.357124
     26          1           0        1.926489   -1.251949   -0.574134
     27          1           0        1.584338    0.473394   -0.513099
     28          1           0        0.745164    0.228573    1.847520
     29          1           0        1.089258   -1.506573    1.786140
     30          1           0       -0.163985   -0.815377    0.741660
     31          6           0        4.334657    0.116557   -0.383847
     32          6           0        5.725667    0.371844    0.197450
     33          6           0        6.780801    0.619240   -0.881103
     34          1           0        4.380248   -0.749217   -1.058940
     35          1           0        4.037643    0.977089   -0.998837
     36          1           0        6.019323   -0.489312    0.811284
     37          1           0        5.677173    1.236030    0.872317
     38          1           0        6.514403    1.490654   -1.487955
     39          1           0        6.858498   -0.244491   -1.549335
     40          1           0        7.767647    0.799458   -0.443475
 ---------------------------------------------------------------------

 SCF Done:  E(RHF) =  -470.733260048     A.U. after   11 cycles
 E2 =    -0.1582667766D+01 EUMP2 =    -0.47231592781376D+03

 The electronic state is 1-A.
 Alpha  occ. eigenvalues --  -11.21608 -11.21607 -11.21603 -11.21597 -11.21406
 Alpha  occ. eigenvalues --  -11.21406 -11.21347 -11.21346 -11.21074 -11.21073
 Alpha  occ. eigenvalues --  -11.21071 -11.21019  -1.08443  -1.08424  -1.03541
 Alpha  occ. eigenvalues --   -1.03518  -0.95991  -0.95964  -0.87015  -0.86974
 Alpha  occ. eigenvalues --   -0.79623  -0.79562  -0.78263  -0.78235  -0.65080
 Alpha  occ. eigenvalues --   -0.65058  -0.60941  -0.60918  -0.59444  -0.59264
 Alpha  occ. eigenvalues --   -0.57640  -0.57545  -0.55290  -0.55237  -0.52750
 Alpha  occ. eigenvalues --   -0.52649  -0.52441  -0.52339  -0.49936  -0.49897
 Alpha  occ. eigenvalues --   -0.47992  -0.47843  -0.46626  -0.46618  -0.45808
 Alpha  occ. eigenvalues --   -0.45766  -0.45711  -0.45702  -0.43794  -0.43708
 Alpha virt. eigenvalues --    0.21294   0.23102   0.23580   0.24658   0.26233
 Alpha virt. eigenvalues --    0.26645   0.27066   0.27528   0.27905   0.29109
 Alpha virt. eigenvalues --    0.30660   0.31404   0.31778   0.31859   0.32002

 Mulliken charges:
               1
     1  C   -0.305232
     2  C   -0.299369
     3  C   -0.477030
     4  H    0.156091
     5  H    0.149969
     6  H    0.151732
     7  H    0.152062
     8  H    0.155579
     9  H    0.156087
    10  H    0.160330
    11  C   -0.297631
    12  C   -0.299709
    13  C   -0.475721
    14  H    0.149357
    15  H    0.149739
    16  H    0.152007
    17  H    0.152123
    18  H    0.155202
    19  H    0.155118
    20  H    0.160204
    21  C   -0.298302
    22  C   -0.299253
    23  C   -0.484321
    24  H    0.149807
    25  H    0.149589
    26  H    0.151484
    27  H    0.151219
    28  H    0.155276
    29  H    0.155390
    30  H    0.168270
    31  C   -0.298241
    32  C   -0.299656
    33  C   -0.475704
    34  H    0.149486
    35  H    0.149522
    36  H    0.151988
    37  H    0.151943
    38  H    0.155143
    39  H    0.155177
    40  H    0.160272
 Sum of Mulliken charges =  -0.00000

 Dipole moment (field-independent basis, Debye):
    X=             -0.0195    Y=             -0.0049    Z=              0.0090  Tot=              0.0220
 Quadrupole moment (field-independent basis, Debye-Ang):
   XX=            -85.2749   YY=            -84.7349   ZZ=            -84.7234
   XY=              0.2223   XZ=             -0.0749   YZ=              0.2619

 Normal termination of Gaussian 16 at Wed May  5 16:53:10 2021.
