 Gaussian 16, Revision A.03,
 Gaussian 16:  EM64L-G16RevA.03 25-Dec-2016

 -------------
 #p 6-31g* mp2
 -------------

 ------------------------------------------------------
 Input file generated by CHIRIPA (05-May-2021 14:57:25)
 ------------------------------------------------------
 Symbolic Z-matrix:
 Charge =  0 Multiplicity = 1

                         Standard orientation:
 ---------------------------------------------------------------------
 Center     Atomic      Atomic             Coordinates (Angstroms)
 Number     Number       Type             X           Y           Z
 ---------------------------------------------------------------------
      1          6           0       -4.953538   -1.199634    0.510521
      2          6           0       -5.063824   -0.023698   -0.238833
      3          6           0       -3.919459    0.666304   -0.649776
      4          6           0       -2.675078    0.149687   -0.292126
      5          6           0       -2.532461   -1.019403    0.453649
      6          6           0       -3.690435   -1.692864    0.853765
      7          1           0       -5.847795   -1.729220    0.825546
      8          1           0       -6.043464    0.361682   -0.506850
      9          1           0       -3.975953    1.578902   -1.230629
     10          1           0       -1.542185   -1.379009    0.705553
     11          1           0       -3.601758   -2.605878    1.435647
     12          7           0       -1.456386    0.871405   -0.721442
     13          8           0       -0.371670    0.395531   -0.393461
     14          8           0       -1.608967    1.899297   -1.377792
     15          6           0        2.028554    1.915012    1.585894
     16          6           0        1.997395    0.621348    2.116915
     17          6           0        2.464277   -0.464234    1.369865
     18          6           0        2.957854   -0.218847    0.089453
     19          6           0        3.002064    1.058381   -0.467346
     20          6           0        2.529906    2.129023    0.297730
     21          1           0        1.663821    2.752515    2.173222
     22          1           0        1.608587    0.452169    3.117040
     23          1           0        2.451770   -1.476054    1.756495
     24          1           0        3.395427    1.195681   -1.467262
     25          1           0        2.555323    3.132619   -0.117232
     26          7           0        3.454914   -1.360195   -0.710957
     27          8           0        3.884878   -1.117545   -1.836519
     28          8           0        3.405135   -2.475822   -0.197601
 ---------------------------------------------------------------------

 SCF Done:  E(RHF) =  -868.337337118     A.U. after   16 cycles
 E2 =    -0.2601856478D+01 EUMP2 =    -0.87093919359625D+03

 The electronic state is 1-A.
 Alpha  occ. eigenvalues --  -20.61123 -20.61078 -20.59727 -20.59701 -15.86131
 Alpha  occ. eigenvalues --  -15.84756 -11.31450 -11.29781 -11.28012 -11.28004
 Alpha  occ. eigenvalues --  -11.27735 -11.27011 -11.26998 -11.26452 -11.26298
 Alpha  occ. eigenvalues --  -11.26118 -11.25462 -11.25278  -1.60179  -1.58792
 Alpha  occ. eigenvalues --   -1.39735  -1.38360  -1.19617  -1.17928  -1.09022
 Alpha  occ. eigenvalues --   -1.07426  -1.05008  -1.03347  -0.95871  -0.94325
 Alpha  occ. eigenvalues --   -0.86409  -0.84805  -0.82708  -0.81203  -0.77763
 Alpha  occ. eigenvalues --   -0.76268  -0.72411  -0.71503  -0.71008  -0.70722
 Alpha  occ. eigenvalues --   -0.70078  -0.69187  -0.65273  -0.65009  -0.63668
 Alpha  occ. eigenvalues --   -0.63456  -0.62356  -0.60772  -0.55512  -0.53956
 Alpha  occ. eigenvalues --   -0.53347  -0.53101  -0.51656  -0.51535  -0.49144
 Alpha  occ. eigenvalues --   -0.48981  -0.47768  -0.47727  -0.45152  -0.43843
 Alpha  occ. eigenvalues --   -0.37601  -0.36612  -0.35838  -0.34826
 Alpha virt. eigenvalues --    0.04765   0.06282   0.11043   0.12741   0.16266
 Alpha virt. eigenvalues --    0.17838   0.21188   0.22546   0.27081   0.27975
 Alpha virt. eigenvalues --    0.28486   0.29409   0.30754   0.31974   0.32271

 Mulliken charges:
               1
     1  C   -0.170577
     2  C   -0.218537
     3  C   -0.171058
     4  C    0.157451
     5  C   -0.171060
     6  C   -0.218548
     7  H    0.226560
     8  H    0.224045
     9  H    0.275323
    10  H    0.275451
    11  H    0.224629
    12  N    0.491419
    13  O   -0.460257
    14  O   -0.463385
    15  C   -0.165979
    16  C   -0.214710
    17  C   -0.170318
    18  C    0.166963
    19  C   -0.159558
    20  C   -0.205228
    21  H    0.218863
    22  H    0.213222
    23  H    0.266099
    24  H    0.271893
    25  H    0.220403
    26  N    0.487713
    27  O   -0.462533
    28  O   -0.468285
 Sum of Mulliken charges =  -0.00000

 Dipole moment (field-independent basis, Debye):
    X=             -6.2766    Y=              1.6220    Z=              4.1524  Tot=              7.6986
 Quadrupole moment (field-independent basis, Debye-Ang):
   XX=            -92.0811   YY=           -104.0758   ZZ=           -102.9204
   XY=             17.8043   XZ=              5.4239   YZ=             -3.9300

 Normal termination of Gaussian 16 at Thu May  6 06:41:23 2021.
