 Gaussian 16, Revision A.03,
 Gaussian 16:  EM64L-G16RevA.03 25-Dec-2016

 -------------
 #p 6-31g* mp2
 -------------

 ------------------------------------------------------
 Input file generated by CHIRIPA (05-May-2021 14:53:18)
 ------------------------------------------------------
 Symbolic Z-matrix:
 Charge =  0 Multiplicity = 1

                         Standard orientation:
 ---------------------------------------------------------------------
 Center     Atomic      Atomic             Coordinates (Angstroms)
 Number     Number       Type             X           Y           Z
 ---------------------------------------------------------------------
      1          6           0        3.254287   -0.084776   -0.154477
      2          6           0        2.887878   -1.492245    0.317502
      3          6           0        4.115146   -2.352164    0.621056
      4          1           0        3.883490   -0.158120   -1.052068
      5          1           0        3.865110    0.405447    0.616218
      6          1           0        2.276768   -1.979164   -0.453257
      7          1           0        2.259316   -1.415538    1.213962
      8          1           0        4.723712   -1.891525    1.405951
      9          1           0        4.741264   -2.458354   -0.270741
     10          1           0        3.830207   -3.354134    0.956803
     11          6           0        2.037992    0.786917   -0.461897
     12          6           0        2.404401    2.194385   -0.933875
     13          6           0        1.177133    3.054305   -1.237430
     14          1           0        1.427169    0.296694   -1.232592
     15          1           0        1.408789    0.860261    0.435694
     16          1           0        3.032963    2.117678   -1.830336
     17          1           0        3.015511    2.681305   -0.163116
     18          1           0        0.551015    3.160495   -0.345633
     19          1           0        0.568567    2.593666   -2.022325
     20          1           0        1.462072    4.056274   -1.573177
     21          6           0       -2.435206   -2.377434   -1.103581
     22          6           0       -3.203253   -1.237538   -1.362931
     23          6           0       -3.008022   -0.066695   -0.624311
     24          6           0       -2.031729   -0.070948    0.370738
     25          6           0       -1.250539   -1.190516    0.652871
     26          6           0       -1.463014   -2.350333   -0.098280
     27          1           0       -2.593563   -3.282691   -1.682226
     28          1           0       -3.958980   -1.255695   -2.143054
     29          1           0       -3.588531    0.830013   -0.804147
     30          1           0       -0.504672   -1.141958    1.436927
     31          1           0       -0.865061   -3.234098    0.105330
     32          7           0       -1.815918    1.162735    1.159315
     33          8           0       -0.949488    1.133272    2.030559
     34          8           0       -2.517284    2.135798    0.891225
 ---------------------------------------------------------------------

 SCF Done:  E(RHF) =  -669.536543310     A.U. after   15 cycles
 E2 =    -0.2093786167D+01 EUMP2 =    -0.67163032947649D+03

 The electronic state is 1-A.
 Alpha  occ. eigenvalues --  -20.60962 -20.60950 -15.85961 -11.31211 -11.27790
 Alpha  occ. eigenvalues --  -11.27771 -11.27524 -11.26782 -11.26763 -11.21834
 Alpha  occ. eigenvalues --  -11.21269 -11.21264 -11.21123 -11.20930 -11.20428
 Alpha  occ. eigenvalues --   -1.60002  -1.39563  -1.19388  -1.08806  -1.08238
 Alpha  occ. eigenvalues --   -1.04775  -1.03343  -0.95763  -0.95656  -0.86784
 Alpha  occ. eigenvalues --   -0.86182  -0.82496  -0.79467  -0.78074  -0.77511
 Alpha  occ. eigenvalues --   -0.72192  -0.71301  -0.70507  -0.65057  -0.64900
 Alpha  occ. eigenvalues --   -0.64728  -0.62128  -0.60726  -0.59191  -0.57384
 Alpha  occ. eigenvalues --   -0.55297  -0.55023  -0.53124  -0.52876  -0.52487
 Alpha  occ. eigenvalues --   -0.52189  -0.49718  -0.48960  -0.48935  -0.47761
 Alpha  occ. eigenvalues --   -0.46501  -0.45727  -0.45505  -0.44660  -0.43573
 Alpha  occ. eigenvalues --   -0.37359  -0.36345
 Alpha virt. eigenvalues --    0.04922   0.11231   0.16366   0.20569   0.23155
 Alpha virt. eigenvalues --    0.24332   0.25245   0.26651   0.27905   0.28134
 Alpha virt. eigenvalues --    0.29424   0.30736   0.31379   0.31899   0.32164

 Mulliken charges:
               1
     1  C   -0.296743
     2  C   -0.302504
     3  C   -0.475026
     4  H    0.148466
     5  H    0.152404
     6  H    0.147112
     7  H    0.148784
     8  H    0.158324
     9  H    0.156108
    10  H    0.156393
    11  C   -0.312968
    12  C   -0.297847
    13  C   -0.481473
    14  H    0.145023
    15  H    0.166452
    16  H    0.147953
    17  H    0.153796
    18  H    0.169914
    19  H    0.149631
    20  H    0.159382
    21  C   -0.170589
    22  C   -0.219077
    23  C   -0.170470
    24  C    0.159441
    25  C   -0.168846
    26  C   -0.220580
    27  H    0.225699
    28  H    0.223455
    29  H    0.275639
    30  H    0.277836
    31  H    0.224462
    32  N    0.488813
    33  O   -0.460668
    34  O   -0.458294
 Sum of Mulliken charges =  -0.00000

 Dipole moment (field-independent basis, Debye):
    X=             -0.8631    Y=             -4.2286    Z=             -2.6716  Tot=              5.0758
 Quadrupole moment (field-independent basis, Debye-Ang):
   XX=            -90.0307   YY=            -93.9710   ZZ=            -95.3609
   XY=              7.7756   XZ=              7.6563   YZ=             -1.9754

 Normal termination of Gaussian 16 at Thu May  6 10:44:36 2021.
