 Gaussian 16, Revision A.03,
 Gaussian 16:  EM64L-G16RevA.03 25-Dec-2016

 -------------
 #p 6-31g* mp2
 -------------

 ------------------------------------------------------
 Input file generated by CHIRIPA (05-May-2021 14:55:20)
 ------------------------------------------------------
 Symbolic Z-matrix:
 Charge =  0 Multiplicity = 1

                         Standard orientation:
 ---------------------------------------------------------------------
 Center     Atomic      Atomic             Coordinates (Angstroms)
 Number     Number       Type             X           Y           Z
 ---------------------------------------------------------------------
      1          6           0       -4.038590    1.333731    0.191519
      2          6           0       -4.353616    0.050257    0.649748
      3          6           0       -3.442431   -0.999781    0.502407
      4          6           0       -2.219918   -0.729628   -0.110594
      5          6           0       -1.876835    0.538274   -0.577507
      6          6           0       -2.803382    1.573221   -0.419569
      7          1           0       -4.752387    2.143564    0.310093
      8          1           0       -5.312140   -0.138652    1.124712
      9          1           0       -3.660536   -2.002981    0.848005
     10          1           0       -0.913383    0.695847   -1.046920
     11          1           0       -2.556026    2.568979   -0.776395
     12          7           0       -1.247155   -1.833268   -0.272187
     13          8           0       -0.176830   -1.569310   -0.815663
     14          8           0       -1.573449   -2.941361    0.147693
     15          6           0        3.530649    0.235989    0.472031
     16          6           0        3.938329   -0.983811   -0.354935
     17          6           0        4.906720   -1.904790    0.387905
     18          1           0        4.431608    0.798557    0.752625
     19          1           0        3.069176   -0.103102    1.409824
     20          1           0        4.397642   -0.642518   -1.291507
     21          1           0        3.036279   -1.543436   -0.633756
     22          1           0        4.453977   -2.273383    1.314060
     23          1           0        5.823075   -1.367346    0.652571
     24          1           0        5.185002   -2.770240   -0.221533
     25          6           0        2.562768    1.166214   -0.257089
     26          6           0        2.155088    2.386012    0.569877
     27          6           0        1.186697    3.306991   -0.172963
     28          1           0        3.024241    1.505305   -1.194882
     29          1           0        1.661809    0.603645   -0.537684
     30          1           0        3.057138    2.945638    0.848698
     31          1           0        1.695775    2.044720    1.506449
     32          1           0        0.270342    2.769547   -0.437629
     33          1           0        1.639441    3.675585   -1.099119
     34          1           0        0.908416    4.172443    0.436474
 ---------------------------------------------------------------------

 SCF Done:  E(RHF) =  -669.535783189     A.U. after   15 cycles
 E2 =    -0.2093452980D+01 EUMP2 =    -0.67162923616938D+03

 The electronic state is 1-A.
 Alpha  occ. eigenvalues --  -20.61021 -20.61015 -15.86043 -11.31313 -11.27873
 Alpha  occ. eigenvalues --  -11.27848 -11.27594 -11.26871 -11.26848 -11.21527
 Alpha  occ. eigenvalues --  -11.21447 -11.20858 -11.20712 -11.20574 -11.20237
 Alpha  occ. eigenvalues --   -1.60075  -1.39634  -1.19479  -1.08890  -1.07924
 Alpha  occ. eigenvalues --   -1.04871  -1.03100  -0.95743  -0.95596  -0.86633
 Alpha  occ. eigenvalues --   -0.86270  -0.82581  -0.79206  -0.77790  -0.77488
 Alpha  occ. eigenvalues --   -0.72272  -0.71384  -0.70598  -0.65141  -0.64905
 Alpha  occ. eigenvalues --   -0.64526  -0.62256  -0.60458  -0.59027  -0.57165
 Alpha  occ. eigenvalues --   -0.55382  -0.54903  -0.53194  -0.52963  -0.52331
 Alpha  occ. eigenvalues --   -0.52029  -0.49616  -0.49016  -0.49006  -0.47491
 Alpha  occ. eigenvalues --   -0.46178  -0.45320  -0.45168  -0.44749  -0.43307
 Alpha  occ. eigenvalues --   -0.37453  -0.36450
 Alpha virt. eigenvalues --    0.04829   0.11162   0.16276   0.20095   0.23420
 Alpha virt. eigenvalues --    0.24378   0.26027   0.26867   0.27666   0.28328
 Alpha virt. eigenvalues --    0.29610   0.30682   0.31608   0.31983   0.32438

 Mulliken charges:
               1
     1  C   -0.170466
     2  C   -0.218729
     3  C   -0.170408
     4  C    0.156443
     5  C   -0.173612
     6  C   -0.220398
     7  H    0.226317
     8  H    0.223957
     9  H    0.275763
    10  H    0.282329
    11  H    0.226235
    12  N    0.491512
    13  O   -0.465356
    14  O   -0.458347
    15  C   -0.295465
    16  C   -0.307443
    17  C   -0.475290
    18  H    0.145196
    19  H    0.149653
    20  H    0.147170
    21  H    0.175002
    22  H    0.155672
    23  H    0.150285
    24  H    0.160126
    25  C   -0.312843
    26  C   -0.299226
    27  C   -0.477159
    28  H    0.146720
    29  H    0.168822
    30  H    0.152672
    31  H    0.152167
    32  H    0.141834
    33  H    0.157222
    34  H    0.159646
 Sum of Mulliken charges =  -0.00000

 Dipole moment (field-independent basis, Debye):
    X=             -3.5787    Y=              3.6831    Z=              0.5577  Tot=              5.1656
 Quadrupole moment (field-independent basis, Debye-Ang):
   XX=            -78.1094   YY=            -99.3549   ZZ=            -94.7211
   XY=             -3.2250   XZ=             -3.3093   YZ=             -2.2777

 Normal termination of Gaussian 16 at Wed May  5 17:23:39 2021.
