 Gaussian 16, Revision A.03,
 Gaussian 16:  EM64L-G16RevA.03 25-Dec-2016

 -------------
 #p 6-31g* mp2
 -------------

 ------------------------------------------------------
 Input file generated by CHIRIPA (05-May-2021 14:57:21)
 ------------------------------------------------------
 Symbolic Z-matrix:
 Charge =  0 Multiplicity = 1

                         Standard orientation:
 ---------------------------------------------------------------------
 Center     Atomic      Atomic             Coordinates (Angstroms)
 Number     Number       Type             X           Y           Z
 ---------------------------------------------------------------------
      1          6           0       -4.785978    1.329039   -0.939902
      2          6           0       -4.451493    0.074116   -1.459335
      3          6           0       -3.500713   -0.727983   -0.821211
      4          6           0       -2.901350   -0.241703    0.339644
      5          6           0       -3.213311    1.004120    0.881767
      6          6           0       -4.166911    1.789224    0.226934
      7          1           0       -5.525662    1.945528   -1.442102
      8          1           0       -4.930657   -0.285839   -2.365359
      9          1           0       -3.222976   -1.703462   -1.201633
     10          1           0       -2.718671    1.335861    1.786586
     11          1           0       -4.424707    2.763398    0.632607
     12          7           0       -1.893310   -1.081854    1.024042
     13          8           0       -1.379611   -0.630577    2.045365
     14          8           0       -1.635994   -2.175732    0.526191
     15          6           0        3.753624    2.510616    0.088842
     16          6           0        4.709525    1.493148    0.175636
     17          6           0        4.340706    0.155790    0.002446
     18          6           0        3.001155   -0.129501   -0.257367
     19          6           0        2.025465    0.861853   -0.349768
     20          6           0        2.417001    2.192283   -0.173121
     21          1           0        4.048956    3.546817    0.224722
     22          1           0        5.748289    1.737423    0.378970
     23          1           0        5.060171   -0.651642    0.064410
     24          1           0        0.997615    0.587285   -0.553619
     25          1           0        1.672481    2.980393   -0.241075
     26          7           0        2.598677   -1.541634   -0.442546
     27          8           0        1.412081   -1.766752   -0.670463
     28          8           0        3.477433   -2.396608   -0.356264
 ---------------------------------------------------------------------

 SCF Done:  E(RHF) =  -868.335814720     A.U. after   16 cycles
 E2 =    -0.2600968906D+01 EUMP2 =    -0.87093678362562D+03

 The electronic state is 1-A.
 Alpha  occ. eigenvalues --  -20.60349 -20.60192 -20.59915 -20.59824 -15.85322
 Alpha  occ. eigenvalues --  -15.84921 -11.31023 -11.30556 -11.27662 -11.27564
 Alpha  occ. eigenvalues --  -11.27413 -11.27190 -11.27166 -11.26986 -11.26727
 Alpha  occ. eigenvalues --  -11.26658 -11.26272 -11.26246  -1.59335  -1.58936
 Alpha  occ. eigenvalues --   -1.38880  -1.38484  -1.19221  -1.18762  -1.08553
 Alpha  occ. eigenvalues --   -1.08112  -1.04661  -1.04216  -0.95330  -0.94900
 Alpha  occ. eigenvalues --   -0.86041  -0.85605  -0.82154  -0.81735  -0.77151
 Alpha  occ. eigenvalues --   -0.76743  -0.71556  -0.71183  -0.70624  -0.70308
 Alpha  occ. eigenvalues --   -0.70235  -0.69893  -0.64855  -0.64656  -0.64417
 Alpha  occ. eigenvalues --   -0.64241  -0.61994  -0.61573  -0.55143  -0.54728
 Alpha  occ. eigenvalues --   -0.52989  -0.52746  -0.52515  -0.52329  -0.48328
 Alpha  occ. eigenvalues --   -0.48273  -0.47919  -0.47893  -0.44237  -0.43759
 Alpha  occ. eigenvalues --   -0.37224  -0.36756  -0.36287  -0.35820
 Alpha virt. eigenvalues --    0.05360   0.05845   0.11361   0.11830   0.16807
 Alpha virt. eigenvalues --    0.17265   0.21499   0.21812   0.27394   0.27603
 Alpha virt. eigenvalues --    0.28414   0.28645   0.30910   0.31335   0.32710

 Mulliken charges:
               1
     1  C   -0.172024
     2  C   -0.218871
     3  C   -0.170402
     4  C    0.156053
     5  C   -0.175317
     6  C   -0.219214
     7  H    0.224507
     8  H    0.223909
     9  H    0.280514
    10  H    0.273532
    11  H    0.221277
    12  N    0.487003
    13  O   -0.467601
    14  O   -0.442358
    15  C   -0.171520
    16  C   -0.218523
    17  C   -0.170864
    18  C    0.160758
    19  C   -0.164928
    20  C   -0.218205
    21  H    0.222622
    22  H    0.221404
    23  H    0.275088
    24  H    0.271112
    25  H    0.218918
    26  N    0.488786
    27  O   -0.451651
    28  O   -0.464005
 Sum of Mulliken charges =  -0.00000

 Dipole moment (field-independent basis, Debye):
    X=             -2.2064    Y=              7.5519    Z=             -1.8125  Tot=              8.0737
 Quadrupole moment (field-independent basis, Debye-Ang):
   XX=            -72.7830   YY=           -105.4868   ZZ=           -105.7522
   XY=              6.2081   XZ=              9.1327   YZ=              2.8788

 Normal termination of Gaussian 16 at Thu May  6 00:07:52 2021.
