 Gaussian 16, Revision A.03,
 Gaussian 16:  EM64L-G16RevA.03 25-Dec-2016

 -------------
 #p 6-31g* mp2
 -------------

 ------------------------------------------------------
 Input file generated by CHIRIPA (05-May-2021 14:53:14)
 ------------------------------------------------------
 Symbolic Z-matrix:
 Charge =  0 Multiplicity = 1

                         Standard orientation:
 ---------------------------------------------------------------------
 Center     Atomic      Atomic             Coordinates (Angstroms)
 Number     Number       Type             X           Y           Z
 ---------------------------------------------------------------------
      1          6           0       -2.931211   -0.186578    0.191163
      2          6           0       -2.429079   -1.627424    0.092112
      3          6           0       -3.323685   -2.617820    0.838161
      4          1           0       -2.995574    0.100614    1.249616
      5          1           0       -3.952853   -0.133308   -0.209842
      6          1           0       -1.408173   -1.677692    0.491913
      7          1           0       -2.365722   -1.911155   -0.966235
      8          1           0       -4.341307   -2.597120    0.434903
      9          1           0       -3.378318   -2.362330    1.901336
     10          1           0       -2.946271   -3.641723    0.754254
     11          6           0       -2.047354    0.815271   -0.549661
     12          6           0       -2.549486    2.256117   -0.450610
     13          6           0       -1.654880    3.246513   -1.196659
     14          1           0       -1.025712    0.762002   -0.148656
     15          1           0       -1.982991    0.528079   -1.608114
     16          1           0       -2.612843    2.539848    0.607737
     17          1           0       -3.570392    2.306385   -0.850411
     18          1           0       -1.600247    2.991023   -2.259834
     19          1           0       -0.637258    3.225813   -0.793401
     20          1           0       -2.032294    4.270416   -1.112752
     21          6           0        2.002358   -1.649111   -1.955842
     22          6           0        1.400893   -2.147893   -0.795680
     23          6           0        1.363173   -1.379021    0.371351
     24          6           0        1.939183   -0.109895    0.342660
     25          6           0        2.545741    0.414933   -0.797485
     26          6           0        2.571858   -0.371542   -1.953047
     27          1           0        2.027154   -2.253227   -2.857965
     28          1           0        0.957817   -3.139724   -0.794939
     29          1           0        0.903985   -1.740563    1.283410
     30          1           0        2.979039    1.407291   -0.767550
     31          1           0        3.039639    0.018398   -2.852588
     32          7           0        1.905392    0.713393    1.572072
     33          8           0        2.419936    1.828410    1.520898
     34          8           0        1.365003    0.228080    2.563581
 ---------------------------------------------------------------------

 SCF Done:  E(RHF) =  -669.534309088     A.U. after   15 cycles
 E2 =    -0.2094750522D+01 EUMP2 =    -0.67162905961074D+03

 The electronic state is 1-A.
 Alpha  occ. eigenvalues --  -20.60869 -20.60864 -15.85918 -11.31243 -11.27813
 Alpha  occ. eigenvalues --  -11.27807 -11.27542 -11.26817 -11.26804 -11.21775
 Alpha  occ. eigenvalues --  -11.21409 -11.21362 -11.21273 -11.21262 -11.20882
 Alpha  occ. eigenvalues --   -1.59946  -1.39499  -1.19430  -1.08824  -1.08407
 Alpha  occ. eigenvalues --   -1.04830  -1.03529  -0.95969  -0.95667  -0.86989
 Alpha  occ. eigenvalues --   -0.86225  -0.82501  -0.79623  -0.78235  -0.77534
 Alpha  occ. eigenvalues --   -0.72135  -0.71279  -0.70543  -0.65114  -0.65043
 Alpha  occ. eigenvalues --   -0.64793  -0.62207  -0.60901  -0.59362  -0.57589
 Alpha  occ. eigenvalues --   -0.55323  -0.55245  -0.53238  -0.52920  -0.52645
 Alpha  occ. eigenvalues --   -0.52399  -0.49909  -0.48895  -0.48890  -0.47937
 Alpha  occ. eigenvalues --   -0.46648  -0.45731  -0.45665  -0.44893  -0.43769
 Alpha  occ. eigenvalues --   -0.37368  -0.36316
 Alpha virt. eigenvalues --    0.04945   0.11143   0.16410   0.20857   0.22931
 Alpha virt. eigenvalues --    0.24117   0.26131   0.26925   0.27701   0.27985
 Alpha virt. eigenvalues --    0.28581   0.30635   0.31119   0.31815   0.32249

 Mulliken charges:
               1
     1  C   -0.298660
     2  C   -0.302198
     3  C   -0.475792
     4  H    0.155486
     5  H    0.148847
     6  H    0.149893
     7  H    0.147680
     8  H    0.156421
     9  H    0.159334
    10  H    0.154807
    11  C   -0.299355
    12  C   -0.300228
    13  C   -0.476434
    14  H    0.150640
    15  H    0.146111
    16  H    0.157147
    17  H    0.150236
    18  H    0.151008
    19  H    0.158651
    20  H    0.161190
    21  C   -0.171209
    22  C   -0.212818
    23  C   -0.172714
    24  C    0.158757
    25  C   -0.172322
    26  C   -0.217390
    27  H    0.225871
    28  H    0.224548
    29  H    0.275631
    30  H    0.275840
    31  H    0.223792
    32  N    0.488470
    33  O   -0.460401
    34  O   -0.460839
 Sum of Mulliken charges =  -0.00000

 Dipole moment (field-independent basis, Debye):
    X=              0.1734    Y=             -2.8426    Z=             -4.2900  Tot=              5.1492
 Quadrupole moment (field-independent basis, Debye-Ang):
   XX=            -93.7260   YY=            -92.5404   ZZ=            -96.6321
   XY=             -4.2317   XZ=             -9.3910   YZ=             -1.7942

 Normal termination of Gaussian 16 at Thu May  6 20:22:32 2021.
