 Gaussian 16, Revision A.03,
 Gaussian 16:  EM64L-G16RevA.03 25-Dec-2016

 -------------
 #p 6-31g* mp2
 -------------

 ------------------------------------------------------
 Input file generated by CHIRIPA (05-May-2021 14:57:23)
 ------------------------------------------------------
 Symbolic Z-matrix:
 Charge =  0 Multiplicity = 1

                         Standard orientation:
 ---------------------------------------------------------------------
 Center     Atomic      Atomic             Coordinates (Angstroms)
 Number     Number       Type             X           Y           Z
 ---------------------------------------------------------------------
      1          6           0       -3.669954    2.474918   -0.216746
      2          6           0       -4.412795    1.493258   -0.880863
      3          6           0       -4.110093    0.138765   -0.712730
      4          6           0       -3.053199   -0.199990    0.130782
      5          6           0       -2.294541    0.754724    0.806244
      6          6           0       -2.615057    2.103173    0.623208
      7          1           0       -3.912019    3.524773   -0.353144
      8          1           0       -5.232584    1.779034   -1.533796
      9          1           0       -4.668810   -0.641797   -1.214703
     10          1           0       -1.483059    0.439028    1.450644
     11          1           0       -2.036442    2.863385    1.140245
     12          7           0       -2.723312   -1.630731    0.316665
     13          8           0       -1.787355   -1.903154    1.065268
     14          8           0       -3.406951   -2.452632   -0.289762
     15          6           0        4.010881    2.314973    0.053956
     16          6           0        4.890103    1.233626   -0.065110
     17          6           0        4.400786   -0.073163   -0.151252
     18          6           0        3.020239   -0.263079   -0.115043
     19          6           0        2.118724    0.793638    0.002886
     20          6           0        2.630431    2.091921    0.087515
     21          1           0        4.399691    3.326816    0.120285
     22          1           0        5.962657    1.403863   -0.091429
     23          1           0        5.058928   -0.928533   -0.244046
     24          1           0        1.054587    0.592443    0.026419
     25          1           0        1.945254    2.929799    0.179919
     26          7           0        2.490370   -1.642017   -0.205437
     27          8           0        1.269852   -1.782744   -0.171256
     28          8           0        3.305609   -2.555989   -0.308758
 ---------------------------------------------------------------------

 SCF Done:  E(RHF) =  -868.335034890     A.U. after   16 cycles
 E2 =    -0.2601734021D+01 EUMP2 =    -0.87093676891122D+03

 The electronic state is 1-A.
 Alpha  occ. eigenvalues --  -20.60300 -20.60224 -20.60217 -20.60099 -15.85318
 Alpha  occ. eigenvalues --  -15.85216 -11.31077 -11.31057 -11.27738 -11.27712
 Alpha  occ. eigenvalues --  -11.27651 -11.27643 -11.27514 -11.27481 -11.26889
 Alpha  occ. eigenvalues --  -11.26821 -11.26774 -11.26732  -1.59340  -1.59213
 Alpha  occ. eigenvalues --   -1.38884  -1.38752  -1.19289  -1.19266  -1.08595
 Alpha  occ. eigenvalues --   -1.08582  -1.04778  -1.04728  -0.95384  -0.95319
 Alpha  occ. eigenvalues --   -0.86150  -0.86099  -0.82249  -0.82126  -0.77259
 Alpha  occ. eigenvalues --   -0.77070  -0.71621  -0.71350  -0.70683  -0.70513
 Alpha  occ. eigenvalues --   -0.70436  -0.70314  -0.64947  -0.64889  -0.64820
 Alpha  occ. eigenvalues --   -0.64711  -0.62207  -0.61992  -0.55258  -0.55200
 Alpha  occ. eigenvalues --   -0.53078  -0.53031  -0.52915  -0.52768  -0.48343
 Alpha  occ. eigenvalues --   -0.48318  -0.48207  -0.48119  -0.44250  -0.43974
 Alpha  occ. eigenvalues --   -0.37274  -0.37256  -0.36404  -0.36351
 Alpha virt. eigenvalues --    0.05277   0.05460   0.11161   0.11292   0.16713
 Alpha virt. eigenvalues --    0.16877   0.20384   0.21954   0.25821   0.27435
 Alpha virt. eigenvalues --    0.27978   0.29386   0.29687   0.31486   0.31878

 Mulliken charges:
               1
     1  C   -0.171881
     2  C   -0.217661
     3  C   -0.170592
     4  C    0.162422
     5  C   -0.176996
     6  C   -0.220486
     7  H    0.223854
     8  H    0.223558
     9  H    0.277370
    10  H    0.275764
    11  H    0.217573
    12  N    0.488327
    13  O   -0.446659
    14  O   -0.462002
    15  C   -0.171385
    16  C   -0.218369
    17  C   -0.170416
    18  C    0.159679
    19  C   -0.173841
    20  C   -0.218727
    21  H    0.223981
    22  H    0.223260
    23  H    0.276703
    24  H    0.274099
    25  H    0.216965
    26  N    0.487138
    27  O   -0.449664
    28  O   -0.462013
 Sum of Mulliken charges =  -0.00000

 Dipole moment (field-independent basis, Debye):
    X=              0.6382    Y=              9.5015    Z=             -0.3434  Tot=              9.5291
 Quadrupole moment (field-independent basis, Debye-Ang):
   XX=            -79.7922   YY=           -109.8608   ZZ=           -104.5637
   XY=             -1.6576   XZ=              5.0648   YZ=              0.9784

 Normal termination of Gaussian 16 at Fri May  7 01:49:15 2021.
