 Gaussian 16, Revision A.03,
 Gaussian 16:  EM64L-G16RevA.03 25-Dec-2016

 -------------
 #p 6-31g* mp2
 -------------

 ------------------------------------------------------
 Input file generated by CHIRIPA (05-May-2021 14:57:26)
 ------------------------------------------------------
 Symbolic Z-matrix:
 Charge =  0 Multiplicity = 1

                         Standard orientation:
 ---------------------------------------------------------------------
 Center     Atomic      Atomic             Coordinates (Angstroms)
 Number     Number       Type             X           Y           Z
 ---------------------------------------------------------------------
      1          6           0        2.640842    2.404394   -0.327285
      2          6           0        2.030307    2.081849    0.889158
      3          6           0        1.784900    0.748057    1.228750
      4          6           0        2.164729   -0.242327    0.324229
      5          6           0        2.774786    0.047127   -0.895335
      6          6           0        3.010481    1.387796   -1.214086
      7          1           0        2.827708    3.443187   -0.582993
      8          1           0        1.742172    2.869274    1.579799
      9          1           0        1.313802    0.470201    2.163780
     10          1           0        3.050758   -0.759723   -1.563355
     11          1           0        3.484794    1.635338   -2.159493
     12          7           0        1.910068   -1.657993    0.672708
     13          8           0        2.254201   -2.512029   -0.141437
     14          8           0        1.371154   -1.886751    1.753392
     15          6           0       -1.718953   -2.410854   -0.788611
     16          6           0       -0.944864   -1.400052   -1.367909
     17          6           0       -1.206106   -0.055879   -1.085954
     18          6           0       -2.253854    0.242952   -0.216348
     19          6           0       -3.042948   -0.741482    0.376535
     20          6           0       -2.763683   -2.078928    0.080230
     21          1           0       -1.509014   -3.452427   -1.013215
     22          1           0       -0.132879   -1.654882   -2.043029
     23          1           0       -0.622581    0.746639   -1.520560
     24          1           0       -3.845691   -0.456390    1.045672
     25          1           0       -3.366503   -2.861835    0.531574
     26          7           0       -2.539959    1.662408    0.089741
     27          8           0       -3.468670    1.899450    0.859120
     28          8           0       -1.830081    2.511055   -0.445521
 ---------------------------------------------------------------------

 SCF Done:  E(RHF) =  -868.339765719     A.U. after   16 cycles
 E2 =    -0.2603555074D+01 EUMP2 =    -0.87094332079346D+03

 The electronic state is 1-A.
 Alpha  occ. eigenvalues --  -20.61238 -20.61169 -20.60736 -20.60718 -15.86222
 Alpha  occ. eigenvalues --  -15.85772 -11.31408 -11.30845 -11.28003 -11.27855
 Alpha  occ. eigenvalues --  -11.27576 -11.27421 -11.27411 -11.27011 -11.26985
 Alpha  occ. eigenvalues --  -11.26815 -11.26287 -11.26262  -1.60265  -1.59813
 Alpha  occ. eigenvalues --   -1.39831  -1.39373  -1.19566  -1.19001  -1.08964
 Alpha  occ. eigenvalues --   -1.08418  -1.04929  -1.04378  -0.95839  -0.95306
 Alpha  occ. eigenvalues --   -0.86319  -0.85761  -0.82681  -0.82164  -0.77769
 Alpha  occ. eigenvalues --   -0.77268  -0.72467  -0.72001  -0.71602  -0.71133
 Alpha  occ. eigenvalues --   -0.70622  -0.70050  -0.65198  -0.64899  -0.64644
 Alpha  occ. eigenvalues --   -0.64338  -0.62277  -0.61731  -0.55377  -0.54805
 Alpha  occ. eigenvalues --   -0.53403  -0.52992  -0.52591  -0.52399  -0.49236
 Alpha  occ. eigenvalues --   -0.49203  -0.48767  -0.48728  -0.45276  -0.44844
 Alpha  occ. eigenvalues --   -0.37667  -0.36938  -0.36488  -0.35779
 Alpha virt. eigenvalues --    0.04652   0.05324   0.10905   0.11840   0.16271
 Alpha virt. eigenvalues --    0.16877   0.21215   0.22025   0.26882   0.27632
 Alpha virt. eigenvalues --    0.28400   0.28828   0.30609   0.31562   0.32435

 Mulliken charges:
               1
     1  C   -0.168423
     2  C   -0.211110
     3  C   -0.173203
     4  C    0.160579
     5  C   -0.182366
     6  C   -0.220745
     7  H    0.230233
     8  H    0.230981
     9  H    0.276949
    10  H    0.271150
    11  H    0.223961
    12  N    0.491471
    13  O   -0.469464
    14  O   -0.456703
    15  C   -0.161243
    16  C   -0.229700
    17  C   -0.173419
    18  C    0.155664
    19  C   -0.170140
    20  C   -0.216566
    21  H    0.232621
    22  H    0.227844
    23  H    0.273419
    24  H    0.273927
    25  H    0.224257
    26  N    0.487662
    27  O   -0.461525
    28  O   -0.466112
 Sum of Mulliken charges =  -0.00000

 Dipole moment (field-independent basis, Debye):
    X=              1.9271    Y=             -0.0106    Z=             -2.1231  Tot=              2.8673
 Quadrupole moment (field-independent basis, Debye-Ang):
   XX=           -103.1495   YY=           -109.1493   ZZ=           -100.2561
   XY=             24.0158   XZ=             -4.5774   YZ=              3.3876

 Normal termination of Gaussian 16 at Thu May  6 00:27:04 2021.
