 Gaussian 16, Revision A.03,
 Gaussian 16:  EM64L-G16RevA.03 25-Dec-2016

 -------------
 #p 6-31g* mp2
 -------------

 ------------------------------------------------------
 Input file generated by CHIRIPA (05-May-2021 14:51:12)
 ------------------------------------------------------
 Symbolic Z-matrix:
 Charge =  0 Multiplicity = 1

                         Standard orientation:
 ---------------------------------------------------------------------
 Center     Atomic      Atomic             Coordinates (Angstroms)
 Number     Number       Type             X           Y           Z
 ---------------------------------------------------------------------
      1          6           0       -3.648939   -0.156970    0.272760
      2          6           0       -4.511059   -0.178756   -0.989880
      3          6           0       -5.818512    0.596901   -0.826426
      4          1           0       -4.224146   -0.577205    1.109112
      5          1           0       -3.426933    0.885780    0.538805
      6          1           0       -4.730218   -1.221202   -1.254251
      7          1           0       -3.933666    0.241402   -1.823367
      8          1           0       -5.616731    1.645660   -0.585616
      9          1           0       -6.417810    0.174746   -0.013267
     10          1           0       -6.419287    0.568291   -1.740817
     11          6           0       -2.338529   -0.928145    0.124964
     12          6           0       -1.476410   -0.906359    1.387604
     13          6           0       -0.168957   -1.682016    1.224150
     14          1           0       -2.560536   -1.970895   -0.141082
     15          1           0       -1.763323   -0.507911   -0.711389
     16          1           0       -2.053803   -1.326518    2.221090
     17          1           0       -1.257250    0.136086    1.651975
     18          1           0        0.430341   -1.259861    0.410991
     19          1           0       -0.370738   -2.730776    0.983340
     20          1           0        0.431819   -1.653407    2.138541
     21          6           0        3.569228    0.114602   -0.461717
     22          6           0        3.325045   -1.387462   -0.312840
     23          6           0        4.485211   -2.230401   -0.843182
     24          1           0        3.739929    0.348618   -1.521454
     25          1           0        4.492259    0.383471    0.070371
     26          1           0        2.402009   -1.653183   -0.843890
     27          1           0        3.154715   -1.617901    0.746641
     28          1           0        5.409847   -1.994091   -0.306705
     29          1           0        4.652864   -2.029572   -1.906272
     30          1           0        4.289638   -3.300955   -0.726881
     31          6           0        2.418240    0.970514    0.063993
     32          6           0        2.662424    2.472578   -0.084883
     33          6           0        1.502258    3.315516    0.445458
     34          1           0        1.495209    0.701643   -0.468095
     35          1           0        2.247539    0.736497    1.123730
     36          1           0        2.832754    2.703016   -1.144365
     37          1           0        3.585460    2.738297    0.446166
     38          1           0        1.334604    3.114688    1.508549
     39          1           0        0.577622    3.079206   -0.091019
     40          1           0        1.697831    4.386069    0.329158
 ---------------------------------------------------------------------

 SCF Done:  E(RHF) =  -470.731725544     A.U. after   11 cycles
 E2 =    -0.1584421716D+01 EUMP2 =    -0.47231614725977D+03

 The electronic state is 1-A.
 Alpha  occ. eigenvalues --  -11.21638 -11.21586 -11.21551 -11.21498 -11.21430
 Alpha  occ. eigenvalues --  -11.21373 -11.21368 -11.21314 -11.21127 -11.21057
 Alpha  occ. eigenvalues --  -11.21041 -11.20833  -1.08479  -1.08368  -1.03549
 Alpha  occ. eigenvalues --   -1.03459  -0.96014  -0.95903  -0.87022  -0.86936
 Alpha  occ. eigenvalues --   -0.79692  -0.79500  -0.78345  -0.78115  -0.65136
 Alpha  occ. eigenvalues --   -0.64983  -0.60948  -0.60872  -0.59381  -0.59284
 Alpha  occ. eigenvalues --   -0.57626  -0.57525  -0.55303  -0.55212  -0.52759
 Alpha  occ. eigenvalues --   -0.52584  -0.52440  -0.52306  -0.49944  -0.49909
 Alpha  occ. eigenvalues --   -0.48037  -0.47811  -0.46713  -0.46636  -0.45932
 Alpha  occ. eigenvalues --   -0.45747  -0.45679  -0.45183  -0.43800  -0.43706
 Alpha virt. eigenvalues --    0.21070   0.23151   0.24003   0.24192   0.25127
 Alpha virt. eigenvalues --    0.26361   0.26993   0.27914   0.28133   0.30039
 Alpha virt. eigenvalues --    0.30760   0.31194   0.31680   0.31833   0.32232

 Mulliken charges:
               1
     1  C   -0.298250
     2  C   -0.299563
     3  C   -0.475687
     4  H    0.149745
     5  H    0.149633
     6  H    0.151862
     7  H    0.151561
     8  H    0.155219
     9  H    0.155201
    10  H    0.160136
    11  C   -0.298333
    12  C   -0.300465
    13  C   -0.481237
    14  H    0.149455
    15  H    0.148122
    16  H    0.151134
    17  H    0.152192
    18  H    0.167320
    19  H    0.153007
    20  H    0.157688
    21  C   -0.297971
    22  C   -0.302905
    23  C   -0.475217
    24  H    0.149257
    25  H    0.149500
    26  H    0.153419
    27  H    0.155241
    28  H    0.154831
    29  H    0.154747
    30  H    0.160499
    31  C   -0.301694
    32  C   -0.299162
    33  C   -0.475788
    34  H    0.149445
    35  H    0.152612
    36  H    0.151905
    37  H    0.152177
    38  H    0.155280
    39  H    0.154486
    40  H    0.160600
 Sum of Mulliken charges =  -0.00000

 Dipole moment (field-independent basis, Debye):
    X=              0.0571    Y=              0.0084    Z=              0.0000  Tot=              0.0577
 Quadrupole moment (field-independent basis, Debye-Ang):
   XX=            -85.9670   YY=            -84.9435   ZZ=            -83.9938
   XY=              1.4453   XZ=              0.5469   YZ=             -0.4547

 Normal termination of Gaussian 16 at Thu May  6 00:45:49 2021.
