 Gaussian 16, Revision A.03,
 Gaussian 16:  EM64L-G16RevA.03 25-Dec-2016

 -------------
 #p 6-31g* mp2
 -------------

 ------------------------------------------------------
 Input file generated by CHIRIPA (05-May-2021 14:53:17)
 ------------------------------------------------------
 Symbolic Z-matrix:
 Charge =  0 Multiplicity = 1

                         Standard orientation:
 ---------------------------------------------------------------------
 Center     Atomic      Atomic             Coordinates (Angstroms)
 Number     Number       Type             X           Y           Z
 ---------------------------------------------------------------------
      1          6           0        4.463868    0.266437   -0.238432
      2          6           0        5.470181    1.044282    0.610259
      3          6           0        6.438135    1.874485   -0.233318
      4          1           0        5.007990   -0.392042   -0.929287
      5          1           0        3.896652    0.972278   -0.860887
      6          1           0        6.034376    0.337309    1.231941
      7          1           0        4.923597    1.700845    1.299306
      8          1           0        5.891879    2.601906   -0.842467
      9          1           0        7.008970    1.230622   -0.910215
     10          1           0        7.148662    2.422335    0.393478
     11          6           0        3.489419   -0.568338    0.590620
     12          6           0        2.483106   -1.346183   -0.258071
     13          6           0        1.515152   -2.176386    0.585506
     14          1           0        4.056635   -1.274179    1.213075
     15          1           0        2.945297    0.090141    1.281475
     16          1           0        3.029691   -2.002746   -0.947118
     17          1           0        1.918911   -0.639210   -0.879753
     18          1           0        0.944317   -1.532523    1.262403
     19          1           0        2.061408   -2.903807    1.194655
     20          1           0        0.804625   -2.724236   -0.041290
     21          6           0       -4.556296    2.105667    0.422468
     22          6           0       -4.852563    0.849295    0.961238
     23          6           0       -4.056313   -0.259066    0.657807
     24          6           0       -2.966617   -0.074237   -0.191716
     25          6           0       -2.645619    1.164699   -0.744247
     26          6           0       -3.455710    2.259088   -0.427057
     27          1           0       -5.180219    2.961243    0.663524
     28          1           0       -5.706660    0.727188    1.621279
     29          1           0       -4.262890   -1.243020    1.061016
     30          1           0       -1.787543    1.255262   -1.399168
     31          1           0       -3.223237    3.233619   -0.846929
     32          7           0       -2.116335   -1.240214   -0.520228
     33          8           0       -1.161943   -1.051074   -1.271225
     34          8           0       -2.420379   -2.321169   -0.020498
 ---------------------------------------------------------------------

 SCF Done:  E(RHF) =  -669.536253887     A.U. after   15 cycles
 E2 =    -0.2091929610D+01 EUMP2 =    -0.67162818349702D+03

 The electronic state is 1-A.
 Alpha  occ. eigenvalues --  -20.61000 -20.60994 -15.86001 -11.31324 -11.27884
 Alpha  occ. eigenvalues --  -11.27877 -11.27616 -11.26886 -11.26876 -11.21123
 Alpha  occ. eigenvalues --  -11.20727 -11.20706 -11.20479 -11.20249 -11.19399
 Alpha  occ. eigenvalues --   -1.60038  -1.39597  -1.19488  -1.08894  -1.07611
 Alpha  occ. eigenvalues --   -1.04882  -1.02591  -0.95742  -0.95035  -0.86283
 Alpha  occ. eigenvalues --   -0.86068  -0.82571  -0.78722  -0.77631  -0.77353
 Alpha  occ. eigenvalues --   -0.72228  -0.71351  -0.70596  -0.65144  -0.64886
 Alpha  occ. eigenvalues --   -0.64259  -0.62229  -0.60005  -0.58478  -0.56608
 Alpha  occ. eigenvalues --   -0.55385  -0.54375  -0.53212  -0.52973  -0.51706
 Alpha  occ. eigenvalues --   -0.51487  -0.49120  -0.48988  -0.48854  -0.46987
 Alpha  occ. eigenvalues --   -0.45797  -0.45020  -0.44910  -0.44761  -0.42816
 Alpha  occ. eigenvalues --   -0.37463  -0.36482
 Alpha virt. eigenvalues --    0.04875   0.11173   0.16358   0.21281   0.23580
 Alpha virt. eigenvalues --    0.25291   0.27165   0.27377   0.28027   0.28432
 Alpha virt. eigenvalues --    0.28965   0.30859   0.32057   0.32320   0.32739

 Mulliken charges:
               1
     1  C   -0.296916
     2  C   -0.298694
     3  C   -0.475040
     4  H    0.149239
     5  H    0.146933
     6  H    0.151430
     7  H    0.149643
     8  H    0.153462
     9  H    0.155088
    10  H    0.158253
    11  C   -0.297325
    12  C   -0.300195
    13  C   -0.475167
    14  H    0.146991
    15  H    0.145015
    16  H    0.148291
    17  H    0.158803
    18  H    0.143606
    19  H    0.144657
    20  H    0.185460
    21  C   -0.170547
    22  C   -0.218577
    23  C   -0.170740
    24  C    0.159102
    25  C   -0.170778
    26  C   -0.218555
    27  H    0.226113
    28  H    0.223969
    29  H    0.276064
    30  H    0.275503
    31  H    0.223894
    32  N    0.489689
    33  O   -0.459667
    34  O   -0.459003
 Sum of Mulliken charges =  -0.00000

 Dipole moment (field-independent basis, Debye):
    X=             -3.3624    Y=              4.0258    Z=              1.0283  Tot=              5.3452
 Quadrupole moment (field-independent basis, Debye-Ang):
   XX=            -76.9259   YY=            -93.7739   ZZ=            -94.5744
   XY=            -11.3902   XZ=             -4.8779   YZ=             -2.2514

 Normal termination of Gaussian 16 at Thu May  6 01:11:58 2021.
