 Gaussian 16, Revision A.03,
 Gaussian 16:  EM64L-G16RevA.03 25-Dec-2016

 -------------
 #p 6-31g* mp2
 -------------

 ------------------------------------------------------
 Input file generated by CHIRIPA (05-May-2021 14:57:24)
 ------------------------------------------------------
 Symbolic Z-matrix:
 Charge =  0 Multiplicity = 1

                         Standard orientation:
 ---------------------------------------------------------------------
 Center     Atomic      Atomic             Coordinates (Angstroms)
 Number     Number       Type             X           Y           Z
 ---------------------------------------------------------------------
      1          6           0        3.574759   -2.201847   -0.967558
      2          6           0        4.778916   -1.735317   -0.430086
      3          6           0        4.881243   -0.427456    0.053211
      4          6           0        3.754565    0.390458   -0.016815
      5          6           0        2.540941   -0.045153   -0.546579
      6          6           0        2.461577   -1.356766   -1.023990
      7          1           0        3.504189   -3.219282   -1.340709
      8          1           0        5.645055   -2.389393   -0.384984
      9          1           0        5.801202   -0.040516    0.474363
     10          1           0        1.694671    0.630311   -0.578088
     11          1           0        1.525128   -1.716378   -1.440868
     12          7           0        3.850738    1.777018    0.491714
     13          8           0        2.843663    2.477804    0.418666
     14          8           0        4.931373    2.136763    0.953719
     15          6           0       -2.094863   -1.699613    1.240464
     16          6           0       -3.302416   -1.376647    1.868184
     17          6           0       -4.220696   -0.525670    1.245970
     18          6           0       -3.897636   -0.013279   -0.009569
     19          6           0       -2.702834   -0.316325   -0.660647
     20          6           0       -1.799447   -1.169356   -0.019726
     21          1           0       -1.387307   -2.361469    1.731081
     22          1           0       -3.534497   -1.786979    2.846862
     23          1           0       -5.162877   -0.259111    1.709283
     24          1           0       -2.499483    0.108226   -1.636260
     25          1           0       -0.862415   -1.418444   -0.509594
     26          7           0       -4.861894    0.888699   -0.678180
     27          8           0       -4.553639    1.327020   -1.784296
     28          8           0       -5.907676    1.140270   -0.083462
 ---------------------------------------------------------------------

 SCF Done:  E(RHF) =  -868.336515667     A.U. after   16 cycles
 E2 =    -0.2599767752D+01 EUMP2 =    -0.87093628341856D+03

 The electronic state is 1-A.
 Alpha  occ. eigenvalues --  -20.61235 -20.61229 -20.60970 -20.60964 -15.86297
 Alpha  occ. eigenvalues --  -15.86031 -11.31824 -11.31508 -11.28480 -11.28400
 Alpha  occ. eigenvalues --  -11.28221 -11.28166 -11.28082 -11.27904 -11.27590
 Alpha  occ. eigenvalues --  -11.27419 -11.27279 -11.27097  -1.60309  -1.60042
 Alpha  occ. eigenvalues --   -1.39858  -1.39593  -1.20032  -1.19712  -1.09393
 Alpha  occ. eigenvalues --   -1.09086  -1.05479  -1.05152  -0.96194  -0.95895
 Alpha  occ. eigenvalues --   -0.86864  -0.86546  -0.83044  -0.82738  -0.78070
 Alpha  occ. eigenvalues --   -0.77755  -0.72510  -0.72248  -0.71638  -0.71366
 Alpha  occ. eigenvalues --   -0.71125  -0.70818  -0.65697  -0.65582  -0.65375
 Alpha  occ. eigenvalues --   -0.65137  -0.62886  -0.62434  -0.55957  -0.55641
 Alpha  occ. eigenvalues --   -0.53785  -0.53634  -0.53445  -0.53203  -0.49284
 Alpha  occ. eigenvalues --   -0.49255  -0.49016  -0.48994  -0.45227  -0.44974
 Alpha  occ. eigenvalues --   -0.38012  -0.37689  -0.37087  -0.36748
 Alpha virt. eigenvalues --    0.04496   0.04800   0.10547   0.10887   0.15840
 Alpha virt. eigenvalues --    0.16236   0.18250   0.21954   0.24503   0.27555
 Alpha virt. eigenvalues --    0.27976   0.28711   0.29473   0.31720   0.31855

 Mulliken charges:
               1
     1  C   -0.170478
     2  C   -0.218645
     3  C   -0.169455
     4  C    0.158631
     5  C   -0.170901
     6  C   -0.224240
     7  H    0.227020
     8  H    0.225806
     9  H    0.278045
    10  H    0.276177
    11  H    0.217744
    12  N    0.487941
    13  O   -0.458211
    14  O   -0.458653
    15  C   -0.170516
    16  C   -0.218106
    17  C   -0.169245
    18  C    0.159491
    19  C   -0.170753
    20  C   -0.221514
    21  H    0.226254
    22  H    0.225270
    23  H    0.277527
    24  H    0.275557
    25  H    0.215536
    26  N    0.488236
    27  O   -0.459600
    28  O   -0.458918
 Sum of Mulliken charges =  -0.00000

 Dipole moment (field-independent basis, Debye):
    X=              3.1027    Y=             -7.9746    Z=              0.6923  Tot=              8.5849
 Quadrupole moment (field-independent basis, Debye-Ang):
   XX=           -126.0659   YY=           -109.7480   ZZ=           -102.4330
   XY=             -6.8581   XZ=            -17.6484   YZ=             -1.3633

 Normal termination of Gaussian 16 at Wed May  5 17:55:21 2021.
