 Gaussian 16, Revision A.03,
 Gaussian 16:  EM64L-G16RevA.03 25-Dec-2016

 -------------
 #p 6-31g* mp2
 -------------

 ------------------------------------------------------
 Input file generated by CHIRIPA (05-May-2021 14:53:11)
 ------------------------------------------------------
 Symbolic Z-matrix:
 Charge =  0 Multiplicity = 1

                         Standard orientation:
 ---------------------------------------------------------------------
 Center     Atomic      Atomic             Coordinates (Angstroms)
 Number     Number       Type             X           Y           Z
 ---------------------------------------------------------------------
      1          6           0       -4.368367    0.146969    0.020745
      2          6           0       -3.770907    1.361308    0.732368
      3          6           0       -2.242300    1.372410    0.700238
      4          1           0       -3.983705   -0.769863    0.488078
      5          1           0       -4.022520    0.135019   -1.022155
      6          1           0       -4.118886    1.371728    1.773241
      7          1           0       -4.157185    2.275356    0.263410
      8          1           0       -1.878773    1.386214   -0.332360
      9          1           0       -1.840257    0.477452    1.186049
     10          1           0       -1.836291    2.249027    1.214591
     11          6           0       -5.895630    0.121726    0.044378
     12          6           0       -6.493091   -1.092613   -0.667245
     13          6           0       -8.021697   -1.103715   -0.635115
     14          1           0       -6.241477    0.133676    1.087278
     15          1           0       -6.280292    1.038558   -0.422955
     16          1           0       -6.106813   -2.006662   -0.198287
     17          1           0       -6.145111   -1.103033   -1.708118
     18          1           0       -8.423740   -0.208757   -1.120926
     19          1           0       -8.385224   -1.117519    0.397483
     20          1           0       -8.427707   -1.980332   -1.149468
     21          6           0        1.557063    0.235989    0.460205
     22          6           0        2.154359    0.892167   -0.621085
     23          6           0        3.512325    0.710693   -0.899552
     24          6           0        4.246454   -0.137921   -0.072389
     25          6           0        3.680112   -0.805727    1.012314
     26          6           0        2.320500   -0.609374    1.272023
     27          1           0        0.501523    0.382742    0.669239
     28          1           0        1.563916    1.549275   -1.253248
     29          1           0        4.000107    1.206295   -1.730134
     30          1           0        4.294524   -1.454569    1.624622
     31          1           0        1.859292   -1.120268    2.112451
     32          7           0        5.684944   -0.337916   -0.357261
     33          8           0        6.309907   -1.090775    0.386554
     34          8           0        6.160229    0.261975   -1.318963
 ---------------------------------------------------------------------

 SCF Done:  E(RHF) =  -669.535494811     A.U. after   15 cycles
 E2 =    -0.2091001419D+01 EUMP2 =    -0.67162649622934D+03

 The electronic state is 1-A.
 Alpha  occ. eigenvalues --  -20.60676 -20.60671 -15.85730 -11.31064 -11.27644
 Alpha  occ. eigenvalues --  -11.27640 -11.27279 -11.26632 -11.26620 -11.22648
 Alpha  occ. eigenvalues --  -11.22535 -11.22231 -11.22155 -11.22033 -11.21526
 Alpha  occ. eigenvalues --   -1.59753  -1.39307  -1.19234  -1.09233  -1.08624
 Alpha  occ. eigenvalues --   -1.04640  -1.04383  -0.96872  -0.95464  -0.87905
 Alpha  occ. eigenvalues --   -0.86033  -0.82310  -0.80474  -0.78994  -0.77365
 Alpha  occ. eigenvalues --   -0.71948  -0.71077  -0.70328  -0.65858  -0.64882
 Alpha  occ. eigenvalues --   -0.64648  -0.61996  -0.61779  -0.60247  -0.58459
 Alpha  occ. eigenvalues --   -0.56191  -0.55199  -0.53522  -0.53213  -0.52965
 Alpha  occ. eigenvalues --   -0.52729  -0.50813  -0.48778  -0.48705  -0.48681
 Alpha  occ. eigenvalues --   -0.47471  -0.46547  -0.46436  -0.44720  -0.44606
 Alpha  occ. eigenvalues --   -0.37196  -0.36254
 Alpha virt. eigenvalues --    0.05178   0.11402   0.16675   0.20418   0.22191
 Alpha virt. eigenvalues --    0.23702   0.25509   0.25826   0.26902   0.27134
 Alpha virt. eigenvalues --    0.29218   0.29845   0.30716   0.31221   0.31990

 Mulliken charges:
               1
     1  C   -0.299199
     2  C   -0.299202
     3  C   -0.484030
     4  H    0.149504
     5  H    0.150227
     6  H    0.155524
     7  H    0.155959
     8  H    0.153571
     9  H    0.149123
    10  H    0.164982
    11  C   -0.299029
    12  C   -0.300176
    13  C   -0.476144
    14  H    0.150726
    15  H    0.151056
    16  H    0.152376
    17  H    0.152642
    18  H    0.155962
    19  H    0.155849
    20  H    0.161906
    21  C   -0.179826
    22  C   -0.223263
    23  C   -0.170710
    24  C    0.157812
    25  C   -0.170558
    26  C   -0.222299
    27  H    0.245028
    28  H    0.222951
    29  H    0.275043
    30  H    0.275029
    31  H    0.222851
    32  N    0.488030
    33  O   -0.460856
    34  O   -0.460860
 Sum of Mulliken charges =  -0.00000

 Dipole moment (field-independent basis, Debye):
    X=             -5.4092    Y=              0.7428    Z=              1.0107  Tot=              5.5527
 Quadrupole moment (field-independent basis, Debye-Ang):
   XX=           -138.7887   YY=            -93.2188   ZZ=            -91.4066
   XY=              3.1840   XZ=              4.8914   YZ=             -3.4669

 Normal termination of Gaussian 16 at Thu May  6 04:03:48 2021.
