 Gaussian 16, Revision A.03,
 Gaussian 16:  EM64L-G16RevA.03 25-Dec-2016

 -------------
 #p 6-31g* mp2
 -------------

 ------------------------------------------------------
 Input file generated by CHIRIPA (05-May-2021 14:57:24)
 ------------------------------------------------------
 Symbolic Z-matrix:
 Charge =  0 Multiplicity = 1

                         Standard orientation:
 ---------------------------------------------------------------------
 Center     Atomic      Atomic             Coordinates (Angstroms)
 Number     Number       Type             X           Y           Z
 ---------------------------------------------------------------------
      1          6           0        5.822855   -0.247377    0.302685
      2          6           0        5.035528   -1.326278    0.718148
      3          6           0        3.658310   -1.334302    0.477824
      4          6           0        3.098915   -0.242072   -0.183539
      5          6           0        3.856698    0.847593   -0.609785
      6          6           0        5.231969    0.834208   -0.358790
      7          1           0        6.891954   -0.249459    0.493519
      8          1           0        5.491706   -2.167603    1.232073
      9          1           0        3.025272   -2.156555    0.788600
     10          1           0        3.373383    1.672019   -1.119830
     11          1           0        5.840952    1.673459   -0.682583
     12          7           0        1.641947   -0.239235   -0.443608
     13          8           0        1.173243    0.735050   -1.028178
     14          8           0        0.996267   -1.211350   -0.057956
     15          6           0       -4.952765   -1.569143   -0.551873
     16          6           0       -4.327715   -0.779842   -1.522872
     17          6           0       -3.431818    0.226825   -1.150666
     18          6           0       -3.183033    0.417687    0.207629
     19          6           0       -3.790011   -0.352195    1.198663
     20          6           0       -4.682395   -1.353181    0.803406
     21          1           0       -5.647355   -2.348939   -0.849965
     22          1           0       -4.535785   -0.945312   -2.576139
     23          1           0       -2.934009    0.852450   -1.881554
     24          1           0       -3.562531   -0.163558    2.240818
     25          1           0       -5.166357   -1.964635    1.559679
     26          7           0       -2.236446    1.480393    0.613869
     27          8           0       -2.034207    1.628543    1.817109
     28          8           0       -1.714673    2.145069   -0.278654
 ---------------------------------------------------------------------

 SCF Done:  E(RHF) =  -868.337185324     A.U. after   16 cycles
 E2 =    -0.2600097182D+01 EUMP2 =    -0.87093728250572D+03

 The electronic state is 1-A.
 Alpha  occ. eigenvalues --  -20.60261 -20.60156 -20.59412 -20.59272 -15.85246
 Alpha  occ. eigenvalues --  -15.84388 -11.30718 -11.29915 -11.27328 -11.27276
 Alpha  occ. eigenvalues --  -11.27090 -11.26564 -11.26492 -11.26375 -11.26370
 Alpha  occ. eigenvalues --  -11.26337 -11.25646 -11.25605  -1.59283  -1.58393
 Alpha  occ. eigenvalues --   -1.38829  -1.37946  -1.18907  -1.18119  -1.08289
 Alpha  occ. eigenvalues --   -1.07499  -1.04329  -1.03571  -0.95104  -0.94309
 Alpha  occ. eigenvalues --   -0.85723  -0.84967  -0.81933  -0.81154  -0.76963
 Alpha  occ. eigenvalues --   -0.76156  -0.71482  -0.70661  -0.70580  -0.70025
 Alpha  occ. eigenvalues --   -0.69653  -0.69280  -0.64561  -0.64342  -0.63798
 Alpha  occ. eigenvalues --   -0.63616  -0.61675  -0.60930  -0.54842  -0.54117
 Alpha  occ. eigenvalues --   -0.52651  -0.52428  -0.51862  -0.51695  -0.48274
 Alpha  occ. eigenvalues --   -0.48234  -0.47414  -0.47371  -0.44243  -0.43230
 Alpha  occ. eigenvalues --   -0.36898  -0.36112  -0.35935  -0.35169
 Alpha virt. eigenvalues --    0.05581   0.06433   0.11717   0.12485   0.17042
 Alpha virt. eigenvalues --    0.17862   0.21816   0.22454   0.27714   0.28336
 Alpha virt. eigenvalues --    0.28730   0.29384   0.31351   0.31950   0.32989

 Mulliken charges:
               1
     1  C   -0.171161
     2  C   -0.218644
     3  C   -0.170975
     4  C    0.159516
     5  C   -0.170036
     6  C   -0.218681
     7  H    0.224044
     8  H    0.221525
     9  H    0.273843
    10  H    0.278350
    11  H    0.222792
    12  N    0.487868
    13  O   -0.449819
    14  O   -0.468528
    15  C   -0.171384
    16  C   -0.218828
    17  C   -0.164914
    18  C    0.165132
    19  C   -0.169761
    20  C   -0.218717
    21  H    0.220757
    22  H    0.219507
    23  H    0.277437
    24  H    0.272275
    25  H    0.218553
    26  N    0.490081
    27  O   -0.469884
    28  O   -0.450351
 Sum of Mulliken charges =  -0.00000

 Dipole moment (field-independent basis, Debye):
    X=              1.9863    Y=             -3.5225    Z=             -0.6821  Tot=              4.1010
 Quadrupole moment (field-independent basis, Debye-Ang):
   XX=            -54.8681   YY=           -104.7655   ZZ=           -101.1432
   XY=             10.0481   XZ=              5.0460   YZ=             -5.5202

 Normal termination of Gaussian 16 at Wed May  5 19:26:46 2021.
