 Gaussian 16, Revision A.03,
 Gaussian 16:  EM64L-G16RevA.03 25-Dec-2016

 -------------
 #p 6-31g* mp2
 -------------

 ------------------------------------------------------
 Input file generated by CHIRIPA (05-May-2021 14:55:23)
 ------------------------------------------------------
 Symbolic Z-matrix:
 Charge =  0 Multiplicity = 1

                         Standard orientation:
 ---------------------------------------------------------------------
 Center     Atomic      Atomic             Coordinates (Angstroms)
 Number     Number       Type             X           Y           Z
 ---------------------------------------------------------------------
      1          6           0        2.190908    1.838916   -0.439275
      2          6           0        3.548556    2.017106   -0.724862
      3          6           0        4.457351    0.971987   -0.534161
      4          6           0        3.971855   -0.243469   -0.054317
      5          6           0        2.625171   -0.451975    0.239378
      6          6           0        1.734353    0.607116    0.041087
      7          1           0        1.491917    2.656216   -0.590364
      8          1           0        3.905955    2.972645   -1.098032
      9          1           0        5.513669    1.082609   -0.747173
     10          1           0        2.298739   -1.416020    0.610157
     11          1           0        0.680538    0.465867    0.263725
     12          7           0        4.924439   -1.357285    0.151587
     13          8           0        4.471523   -2.418380    0.575356
     14          8           0        6.105954   -1.148108   -0.114694
     15          6           0       -4.130428    0.191436    0.050755
     16          6           0       -3.622588    1.357194    0.899925
     17          6           0       -2.115133    1.574275    0.764841
     18          1           0       -3.599017   -0.724900    0.342093
     19          1           0       -3.878736    0.377247   -1.002583
     20          1           0       -3.876383    1.169897    1.951174
     21          1           0       -4.155405    2.270825    0.606665
     22          1           0       -1.848139    1.786169   -0.275553
     23          1           0       -1.567532    0.678986    1.076596
     24          1           0       -1.773482    2.412395    1.380218
     25          6           0       -5.635607   -0.038097    0.175172
     26          6           0       -6.143447   -1.203855   -0.673998
     27          6           0       -7.650901   -1.420936   -0.538913
     28          1           0       -5.887299   -0.223907    1.228510
     29          1           0       -6.167017    0.878240   -0.116165
     30          1           0       -5.610629   -2.117485   -0.380737
     31          1           0       -5.889651   -1.016557   -1.725247
     32          1           0       -8.198502   -0.525646   -0.850668
     33          1           0       -7.917895   -1.632829    0.501479
     34          1           0       -7.992552   -2.259055   -1.154291
 ---------------------------------------------------------------------

 SCF Done:  E(RHF) =  -669.535566812     A.U. after   15 cycles
 E2 =    -0.2090976409D+01 EUMP2 =    -0.67162654322103D+03

 The electronic state is 1-A.
 Alpha  occ. eigenvalues --  -20.60689 -20.60683 -15.85740 -11.31081 -11.27649
 Alpha  occ. eigenvalues --  -11.27628 -11.27366 -11.26665 -11.26575 -11.22522
 Alpha  occ. eigenvalues --  -11.22386 -11.22118 -11.22049 -11.21927 -11.21430
 Alpha  occ. eigenvalues --   -1.59764  -1.39319  -1.19245  -1.09119  -1.08643
 Alpha  occ. eigenvalues --   -1.04645  -1.04262  -0.96746  -0.95484  -0.87783
 Alpha  occ. eigenvalues --   -0.86036  -0.82318  -0.80351  -0.78885  -0.77369
 Alpha  occ. eigenvalues --   -0.71959  -0.71087  -0.70353  -0.65747  -0.64894
 Alpha  occ. eigenvalues --   -0.64660  -0.62029  -0.61641  -0.60126  -0.58319
 Alpha  occ. eigenvalues --   -0.56054  -0.55135  -0.53480  -0.53267  -0.52977
 Alpha  occ. eigenvalues --   -0.52603  -0.50684  -0.48756  -0.48716  -0.48593
 Alpha  occ. eigenvalues --   -0.47351  -0.46437  -0.46327  -0.44730  -0.44492
 Alpha  occ. eigenvalues --   -0.37225  -0.36247
 Alpha virt. eigenvalues --    0.05159   0.11397   0.16660   0.20279   0.22322
 Alpha virt. eigenvalues --    0.23772   0.25393   0.25865   0.27004   0.27701
 Alpha virt. eigenvalues --    0.29096   0.29722   0.30924   0.31466   0.32053

 Mulliken charges:
               1
     1  C   -0.174192
     2  C   -0.218495
     3  C   -0.171592
     4  C    0.158983
     5  C   -0.173329
     6  C   -0.225628
     7  H    0.225990
     8  H    0.222816
     9  H    0.275107
    10  H    0.275243
    11  H    0.236406
    12  N    0.488034
    13  O   -0.460757
    14  O   -0.460819
    15  C   -0.299258
    16  C   -0.299100
    17  C   -0.483237
    18  H    0.149796
    19  H    0.149884
    20  H    0.155890
    21  H    0.154989
    22  H    0.152932
    23  H    0.151774
    24  H    0.163576
    25  C   -0.298936
    26  C   -0.300236
    27  C   -0.476121
    28  H    0.150972
    29  H    0.150585
    30  H    0.152912
    31  H    0.152382
    32  H    0.155579
    33  H    0.155981
    34  H    0.161868
 Sum of Mulliken charges =  -0.00000

 Dipole moment (field-independent basis, Debye):
    X=             -3.6525    Y=              3.9459    Z=             -0.7025  Tot=              5.4226
 Quadrupole moment (field-independent basis, Debye-Ang):
   XX=           -119.2123   YY=            -95.0328   ZZ=            -94.3417
   XY=             18.6132   XZ=             -4.0646   YZ=             -1.5932

 Normal termination of Gaussian 16 at Wed May  5 23:55:58 2021.
