 Gaussian 16, Revision A.03,
 Gaussian 16:  EM64L-G16RevA.03 25-Dec-2016

 -------------
 #p 6-31g* mp2
 -------------

 ------------------------------------------------------
 Input file generated by CHIRIPA (05-May-2021 14:51:10)
 ------------------------------------------------------
 Symbolic Z-matrix:
 Charge =  0 Multiplicity = 1

                         Standard orientation:
 ---------------------------------------------------------------------
 Center     Atomic      Atomic             Coordinates (Angstroms)
 Number     Number       Type             X           Y           Z
 ---------------------------------------------------------------------
      1          6           0        2.271850   -1.556477   -0.312674
      2          6           0        0.775850   -1.800199   -0.514087
      3          6           0        0.470477   -3.205613   -1.033079
      4          1           0        2.794820   -1.718858   -1.265081
      5          1           0        2.666185   -2.302121    0.391535
      6          1           0        0.384171   -1.053458   -1.216641
      7          1           0        0.256356   -1.637033    0.438866
      8          1           0        0.834155   -3.962965   -0.331112
      9          1           0        0.962696   -3.376074   -1.996025
     10          1           0       -0.604624   -3.358254   -1.169890
     11          6           0        2.593055   -0.155873    0.205845
     12          6           0        4.089055    0.087849    0.407259
     13          6           0        4.394428    1.493263    0.926251
     14          1           0        2.198720    0.589771   -0.498364
     15          1           0        2.070085    0.006508    1.158253
     16          1           0        4.608549   -0.075317   -0.545694
     17          1           0        4.480734   -0.658892    1.109813
     18          1           0        3.902209    1.663724    1.889197
     19          1           0        4.030751    2.250615    0.224283
     20          1           0        5.469529    1.645904    1.063062
     21          6           0       -2.667425    0.143702   -0.090122
     22          6           0       -3.406214   -0.499275    1.084082
     23          6           0       -3.870046   -1.924469    0.781629
     24          1           0       -3.325252    0.149623   -0.969993
     25          1           0       -1.799789   -0.477306   -0.352706
     26          1           0       -4.271409    0.123489    1.345267
     27          1           0       -2.746620   -0.503492    1.961313
     28          1           0       -3.015195   -2.565141    0.542106
     29          1           0       -4.548648   -1.934597   -0.077439
     30          1           0       -4.395780   -2.365060    1.634473
     31          6           0       -2.197481    1.568648    0.196951
     32          6           0       -1.458691    2.211625   -0.977253
     33          6           0       -0.994860    3.636818   -0.674800
     34          1           0       -3.065117    2.189657    0.459535
     35          1           0       -1.539654    1.562727    1.076822
     36          1           0       -2.118285    2.215842   -1.854484
     37          1           0       -0.593496    1.588861   -1.238439
     38          1           0       -0.316257    3.646947    0.184267
     39          1           0       -1.849709    4.277491   -0.435279
     40          1           0       -0.469125    4.077410   -1.527645
 ---------------------------------------------------------------------

 SCF Done:  E(RHF) =  -470.732678334     A.U. after   11 cycles
 E2 =    -0.1584612270D+01 EUMP2 =    -0.47231729060343D+03

 The electronic state is 1-A.
 Alpha  occ. eigenvalues --  -11.21719 -11.21667 -11.21562 -11.21543 -11.21499
 Alpha  occ. eigenvalues --  -11.21439 -11.21308 -11.21181 -11.21174 -11.21117
 Alpha  occ. eigenvalues --  -11.21047 -11.21039  -1.08541  -1.08344  -1.03629
 Alpha  occ. eigenvalues --   -1.03478  -0.96067  -0.95923  -0.87084  -0.86939
 Alpha  occ. eigenvalues --   -0.79741  -0.79536  -0.78466  -0.78047  -0.65163
 Alpha  occ. eigenvalues --   -0.65000  -0.61050  -0.60867  -0.59449  -0.59280
 Alpha  occ. eigenvalues --   -0.57698  -0.57524  -0.55356  -0.55209  -0.52765
 Alpha  occ. eigenvalues --   -0.52629  -0.52500  -0.52342  -0.50005  -0.49887
 Alpha  occ. eigenvalues --   -0.48081  -0.47859  -0.46763  -0.46576  -0.46271
 Alpha  occ. eigenvalues --   -0.45790  -0.45684  -0.45080  -0.43863  -0.43714
 Alpha virt. eigenvalues --    0.20166   0.21794   0.23579   0.23964   0.25808
 Alpha virt. eigenvalues --    0.26206   0.26634   0.27653   0.28422   0.29784
 Alpha virt. eigenvalues --    0.30667   0.31070   0.31761   0.31932   0.32438

 Mulliken charges:
               1
     1  C   -0.296906
     2  C   -0.307113
     3  C   -0.478492
     4  H    0.150043
     5  H    0.149918
     6  H    0.156417
     7  H    0.153099
     8  H    0.155883
     9  H    0.156015
    10  H    0.162430
    11  C   -0.300411
    12  C   -0.299690
    13  C   -0.475870
    14  H    0.151116
    15  H    0.149270
    16  H    0.152222
    17  H    0.152223
    18  H    0.155106
    19  H    0.155579
    20  H    0.160559
    21  C   -0.310276
    22  C   -0.298987
    23  C   -0.477662
    24  H    0.148194
    25  H    0.164817
    26  H    0.151670
    27  H    0.150829
    28  H    0.156197
    29  H    0.155169
    30  H    0.160114
    31  C   -0.297210
    32  C   -0.303717
    33  C   -0.475755
    34  H    0.149100
    35  H    0.149209
    36  H    0.151592
    37  H    0.154804
    38  H    0.155696
    39  H    0.155230
    40  H    0.159587
 Sum of Mulliken charges =  -0.00000

 Dipole moment (field-independent basis, Debye):
    X=              0.0719    Y=             -0.0382    Z=             -0.0178  Tot=              0.0834
 Quadrupole moment (field-independent basis, Debye-Ang):
   XX=            -84.4083   YY=            -86.5826   ZZ=            -83.8723
   XY=             -1.0796   XZ=              0.0911   YZ=             -0.8359

 Normal termination of Gaussian 16 at Wed May  5 23:01:47 2021.
