 Gaussian 16, Revision A.03,
 Gaussian 16:  EM64L-G16RevA.03 25-Dec-2016

 -------------
 #p 6-31g* mp2
 -------------

 ------------------------------------------------------
 Input file generated by CHIRIPA (05-May-2021 14:57:27)
 ------------------------------------------------------
 Symbolic Z-matrix:
 Charge =  0 Multiplicity = 1

                         Standard orientation:
 ---------------------------------------------------------------------
 Center     Atomic      Atomic             Coordinates (Angstroms)
 Number     Number       Type             X           Y           Z
 ---------------------------------------------------------------------
      1          6           0        4.449651   -2.364804    0.245442
      2          6           0        5.424341   -1.426171    0.599657
      3          6           0        5.173380   -0.057283    0.466568
      4          6           0        3.931247    0.339585   -0.026272
      5          6           0        2.939791   -0.571272   -0.387722
      6          6           0        3.212668   -1.935116   -0.246250
      7          1           0        4.653116   -3.426230    0.352085
      8          1           0        6.385895   -1.756982    0.981785
      9          1           0        5.909998    0.690841    0.733256
     10          1           0        1.990715   -0.211056   -0.765767
     11          1           0        2.453829   -2.661821   -0.522128
     12          7           0        3.653965    1.786095   -0.171605
     13          8           0        2.551666    2.110031   -0.608227
     14          8           0        4.544181    2.568545    0.153858
     15          6           0       -1.537562   -0.642890   -0.346792
     16          6           0       -2.494924   -1.661455   -0.396802
     17          6           0       -3.849332   -1.372886   -0.204820
     18          6           0       -4.212776   -0.048812    0.036070
     19          6           0       -3.282605    0.987992    0.091824
     20          6           0       -1.933759    0.676258   -0.103068
     21          1           0       -0.487586   -0.876054   -0.497059
     22          1           0       -2.190127   -2.686825   -0.585902
     23          1           0       -4.611379   -2.142028   -0.238305
     24          1           0       -3.616942    2.000605    0.282218
     25          1           0       -1.192446    1.469322   -0.063682
     26          7           0       -5.643684    0.268945    0.240854
     27          8           0       -5.938129    1.443498    0.451483
     28          8           0       -6.443688   -0.662566    0.186856
 ---------------------------------------------------------------------

 SCF Done:  E(RHF) =  -868.337378358     A.U. after   16 cycles
 E2 =    -0.2599653994D+01 EUMP2 =    -0.87093703235143D+03

 The electronic state is 1-A.
 Alpha  occ. eigenvalues --  -20.61697 -20.61654 -20.60739 -20.60728 -15.86731
 Alpha  occ. eigenvalues --  -15.85787 -11.32113 -11.31195 -11.28798 -11.28606
 Alpha  occ. eigenvalues --  -11.28366 -11.27782 -11.27751 -11.27684 -11.27626
 Alpha  occ. eigenvalues --  -11.27609 -11.26892 -11.26686  -1.60744  -1.59809
 Alpha  occ. eigenvalues --   -1.40302  -1.39361  -1.20272  -1.19368  -1.09649
 Alpha  occ. eigenvalues --   -1.08783  -1.05695  -1.04758  -0.96493  -0.95614
 Alpha  occ. eigenvalues --   -0.87083  -0.86166  -0.83340  -0.82427  -0.78401
 Alpha  occ. eigenvalues --   -0.77440  -0.72952  -0.72061  -0.72007  -0.71408
 Alpha  occ. eigenvalues --   -0.71131  -0.70549  -0.65930  -0.65698  -0.65028
 Alpha  occ. eigenvalues --   -0.64751  -0.63065  -0.62084  -0.56170  -0.55368
 Alpha  occ. eigenvalues --   -0.53989  -0.53777  -0.53105  -0.52841  -0.49716
 Alpha  occ. eigenvalues --   -0.49689  -0.48769  -0.48758  -0.45705  -0.44757
 Alpha  occ. eigenvalues --   -0.38214  -0.37398  -0.37284  -0.36345
 Alpha virt. eigenvalues --    0.04149   0.05065   0.10363   0.11298   0.15641
 Alpha virt. eigenvalues --    0.16541   0.17908   0.22044   0.24770   0.26547
 Alpha virt. eigenvalues --    0.27574   0.29481   0.30426   0.30933   0.32582

 Mulliken charges:
               1
     1  C   -0.169986
     2  C   -0.217866
     3  C   -0.169379
     4  C    0.161357
     5  C   -0.176989
     6  C   -0.217906
     7  H    0.228558
     8  H    0.227073
     9  H    0.278433
    10  H    0.270629
    11  H    0.219635
    12  N    0.488704
    13  O   -0.466019
    14  O   -0.455157
    15  C   -0.171693
    16  C   -0.218712
    17  C   -0.171235
    18  C    0.159104
    19  C   -0.170973
    20  C   -0.221746
    21  H    0.216023
    22  H    0.219536
    23  H    0.275090
    24  H    0.278156
    25  H    0.237344
    26  N    0.487884
    27  O   -0.458850
    28  O   -0.461014
 Sum of Mulliken charges =  -0.00000

 Dipole moment (field-independent basis, Debye):
    X=              6.2824    Y=             -6.0818    Z=             -0.1089  Tot=              8.7446
 Quadrupole moment (field-independent basis, Debye-Ang):
   XX=           -133.9448   YY=           -103.6421   ZZ=           -105.9111
   XY=            -13.4744   XZ=              7.5103   YZ=              1.3551

 Normal termination of Gaussian 16 at Wed May  5 21:14:26 2021.
