 Gaussian 16, Revision A.03,
 Gaussian 16:  EM64L-G16RevA.03 25-Dec-2016

 -------------
 #p 6-31g* mp2
 -------------

 ------------------------------------------------------
 Input file generated by CHIRIPA (05-May-2021 14:57:25)
 ------------------------------------------------------
 Symbolic Z-matrix:
 Charge =  0 Multiplicity = 1

                         Standard orientation:
 ---------------------------------------------------------------------
 Center     Atomic      Atomic             Coordinates (Angstroms)
 Number     Number       Type             X           Y           Z
 ---------------------------------------------------------------------
      1          6           0        4.452991   -2.316659   -0.456985
      2          6           0        5.349536   -1.410391    0.118693
      3          6           0        4.979560   -0.077575    0.321834
      4          6           0        3.699389    0.316616   -0.064258
      5          6           0        2.783628   -0.562529   -0.640256
      6          6           0        3.175151   -1.890587   -0.833958
      7          1           0        4.748767   -3.350174   -0.611124
      8          1           0        6.342574   -1.738480    0.412426
      9          1           0        5.653772    0.645021    0.765356
     10          1           0        1.800567   -0.205930   -0.922826
     11          1           0        2.476800   -2.592206   -1.281262
     12          7           0        3.296306    1.725090    0.145802
     13          8           0        2.162693    2.047430   -0.202990
     14          8           0        4.121615    2.480043    0.655261
     15          6           0       -1.278770   -0.163132    0.516380
     16          6           0       -2.105443   -1.172633    1.020401
     17          6           0       -3.484836   -1.139275    0.795212
     18          6           0       -4.006261   -0.076879    0.058516
     19          6           0       -3.208791    0.943809   -0.456777
     20          6           0       -1.832106    0.890010   -0.219304
     21          1           0       -0.208276   -0.196984    0.696084
     22          1           0       -1.678479   -1.991731    1.592087
     23          1           0       -4.147907   -1.907654    1.173829
     24          1           0       -3.663529    1.747536   -1.023040
     25          1           0       -1.192521    1.675381   -0.611947
     26          7           0       -5.465129   -0.030745   -0.186384
     27          8           0       -5.899922    0.916025   -0.838472
     28          8           0       -6.146173   -0.942228    0.278389
 ---------------------------------------------------------------------

 SCF Done:  E(RHF) =  -868.338966051     A.U. after   16 cycles
 E2 =    -0.2599843736D+01 EUMP2 =    -0.87093880978685D+03

 The electronic state is 1-A.
 Alpha  occ. eigenvalues --  -20.61916 -20.61851 -20.60592 -20.60582 -15.86925
 Alpha  occ. eigenvalues --  -15.85638 -11.32196 -11.30975 -11.28789 -11.28672
 Alpha  occ. eigenvalues --  -11.28390 -11.27732 -11.27667 -11.27552 -11.27454
 Alpha  occ. eigenvalues --  -11.27226 -11.26600 -11.26381  -1.60942  -1.59665
 Alpha  occ. eigenvalues --   -1.40506  -1.39219  -1.20336  -1.19124  -1.09735
 Alpha  occ. eigenvalues --   -1.08527  -1.05723  -1.04505  -0.96596  -0.95373
 Alpha  occ. eigenvalues --   -0.87123  -0.85896  -0.83432  -0.82197  -0.78514
 Alpha  occ. eigenvalues --   -0.77244  -0.73149  -0.72257  -0.71856  -0.71448
 Alpha  occ. eigenvalues --   -0.70988  -0.70229  -0.65984  -0.65706  -0.64766
 Alpha  occ. eigenvalues --   -0.64470  -0.63074  -0.61831  -0.56200  -0.55038
 Alpha  occ. eigenvalues --   -0.54039  -0.53770  -0.52857  -0.52567  -0.49915
 Alpha  occ. eigenvalues --   -0.49869  -0.48616  -0.48610  -0.45924  -0.44631
 Alpha  occ. eigenvalues --   -0.38283  -0.37329  -0.37117  -0.36111
 Alpha virt. eigenvalues --    0.03978   0.05238   0.10224   0.11514   0.15558
 Alpha virt. eigenvalues --    0.16679   0.19921   0.21922   0.25848   0.26886
 Alpha virt. eigenvalues --    0.27864   0.28886   0.30537   0.31024   0.31761

 Mulliken charges:
               1
     1  C   -0.170299
     2  C   -0.217512
     3  C   -0.170235
     4  C    0.159658
     5  C   -0.178808
     6  C   -0.219320
     7  H    0.229148
     8  H    0.227144
     9  H    0.278172
    10  H    0.271804
    11  H    0.226421
    12  N    0.490378
    13  O   -0.470939
    14  O   -0.453297
    15  C   -0.178722
    16  C   -0.219485
    17  C   -0.172102
    18  C    0.158855
    19  C   -0.171795
    20  C   -0.223295
    21  H    0.226975
    22  H    0.220254
    23  H    0.274041
    24  H    0.276417
    25  H    0.240158
    26  N    0.487991
    27  O   -0.459893
    28  O   -0.461715
 Sum of Mulliken charges =  -0.00000

 Dipole moment (field-independent basis, Debye):
    X=              6.9654    Y=             -5.0544    Z=              0.1029  Tot=              8.6066
 Quadrupole moment (field-independent basis, Debye-Ang):
   XX=           -130.7317   YY=           -104.5150   ZZ=           -103.9095
   XY=            -16.8147   XZ=             -4.1274   YZ=             -1.9263

 Normal termination of Gaussian 16 at Thu May  6 21:19:07 2021.
