 Gaussian 16, Revision A.03,
 Gaussian 16:  EM64L-G16RevA.03 25-Dec-2016

 -------------
 #p 6-31g* mp2
 -------------

 ------------------------------------------------------
 Input file generated by CHIRIPA (05-May-2021 14:57:21)
 ------------------------------------------------------
 Symbolic Z-matrix:
 Charge =  0 Multiplicity = 1

                         Standard orientation:
 ---------------------------------------------------------------------
 Center     Atomic      Atomic             Coordinates (Angstroms)
 Number     Number       Type             X           Y           Z
 ---------------------------------------------------------------------
      1          6           0        1.969415   -0.471854    0.830674
      2          6           0        3.010201   -0.453658    1.764994
      3          6           0        4.333273   -0.273915    1.350603
      4          6           0        4.580657   -0.114681   -0.012018
      5          6           0        3.565359   -0.128160   -0.967150
      6          6           0        2.249821   -0.309334   -0.530017
      7          1           0        0.944547   -0.612038    1.161416
      8          1           0        2.795392   -0.579625    2.822366
      9          1           0        5.158129   -0.255725    2.052529
     10          1           0        3.810669    0.000030   -2.014436
     11          1           0        1.443537   -0.323035   -1.257865
     12          7           0        5.977347    0.076362   -0.462752
     13          8           0        6.168970    0.214435   -1.668926
     14          8           0        6.854002    0.084411    0.398669
     15          6           0       -6.567542   -1.052326   -0.181058
     16          6           0       -5.375197   -1.770916   -0.316938
     17          6           0       -4.141028   -1.117263   -0.252792
     18          6           0       -4.136128    0.262033   -0.050785
     19          6           0       -5.306952    1.005764    0.088228
     20          6           0       -6.529682    0.331280    0.020736
     21          1           0       -7.521831   -1.568189   -0.232187
     22          1           0       -5.401565   -2.845514   -0.473743
     23          1           0       -3.202833   -1.649058   -0.354782
     24          1           0       -5.248681    2.076221    0.243608
     25          1           0       -7.454088    0.891916    0.126599
     26          7           0       -2.835624    0.965051    0.018895
     27          8           0       -2.858310    2.180851    0.197649
     28          8           0       -1.818227    0.286965   -0.106564
 ---------------------------------------------------------------------

 SCF Done:  E(RHF) =  -868.340231080     A.U. after   16 cycles
 E2 =    -0.2598198775D+01 EUMP2 =    -0.87093842985510D+03

 The electronic state is 1-A.
 Alpha  occ. eigenvalues --  -20.61908 -20.61825 -20.60003 -20.59996 -15.86906
 Alpha  occ. eigenvalues --  -15.85049 -11.31999 -11.30204 -11.28559 -11.28508
 Alpha  occ. eigenvalues --  -11.28209 -11.27489 -11.27462 -11.26791 -11.26727
 Alpha  occ. eigenvalues --  -11.26278 -11.25718 -11.25565  -1.60925  -1.59083
 Alpha  occ. eigenvalues --   -1.40491  -1.38642  -1.20142  -1.18339  -1.09582
 Alpha  occ. eigenvalues --   -1.07734  -1.05504  -1.03718  -0.96465  -0.94612
 Alpha  occ. eigenvalues --   -0.86914  -0.85098  -0.83314  -0.81466  -0.78391
 Alpha  occ. eigenvalues --   -0.76573  -0.73149  -0.72228  -0.71271  -0.71243
 Alpha  occ. eigenvalues --   -0.70405  -0.69346  -0.65799  -0.65499  -0.63970
 Alpha  occ. eigenvalues --   -0.63685  -0.62857  -0.61076  -0.56004  -0.54090
 Alpha  occ. eigenvalues --   -0.53844  -0.53590  -0.52054  -0.51787  -0.49901
 Alpha  occ. eigenvalues --   -0.49845  -0.48039  -0.48007  -0.45953  -0.44096
 Alpha  occ. eigenvalues --   -0.38099  -0.37095  -0.36250  -0.35340
 Alpha virt. eigenvalues --    0.04111   0.05961   0.10563   0.12335   0.15652
 Alpha virt. eigenvalues --    0.17532   0.20704   0.22564   0.26659   0.27481
 Alpha virt. eigenvalues --    0.28382   0.29419   0.30422   0.31769   0.32386

 Mulliken charges:
               1
     1  C   -0.171563
     2  C   -0.219991
     3  C   -0.172212
     4  C    0.157302
     5  C   -0.172800
     6  C   -0.219412
     7  H    0.238982
     8  H    0.219754
     9  H    0.271918
    10  H    0.272427
    11  H    0.231170
    12  N    0.488303
    13  O   -0.462858
    14  O   -0.463441
    15  C   -0.169777
    16  C   -0.218308
    17  C   -0.170851
    18  C    0.157741
    19  C   -0.170236
    20  C   -0.218403
    21  H    0.228367
    22  H    0.225406
    23  H    0.272408
    24  H    0.277179
    25  H    0.226141
    26  N    0.491598
    27  O   -0.453740
    28  O   -0.475102
 Sum of Mulliken charges =  -0.00000

 Dipole moment (field-independent basis, Debye):
    X=            -10.1957    Y=             -3.0907    Z=              1.3282  Tot=             10.7363
 Quadrupole moment (field-independent basis, Debye-Ang):
   XX=           -111.5258   YY=           -102.9437   ZZ=           -101.3525
   XY=              4.1928   XZ=              9.8672   YZ=              0.3314

 Normal termination of Gaussian 16 at Wed May  5 17:43:38 2021.
