 Gaussian 16, Revision A.03,
 Gaussian 16:  EM64L-G16RevA.03 25-Dec-2016

 -------------
 #p 6-31g* mp2
 -------------

 ------------------------------------------------------
 Input file generated by CHIRIPA (05-May-2021 14:53:14)
 ------------------------------------------------------
 Symbolic Z-matrix:
 Charge =  0 Multiplicity = 1

                         Standard orientation:
 ---------------------------------------------------------------------
 Center     Atomic      Atomic             Coordinates (Angstroms)
 Number     Number       Type             X           Y           Z
 ---------------------------------------------------------------------
      1          6           0       -3.975651    0.463295    0.138948
      2          6           0       -4.043639    1.840995   -0.520828
      3          6           0       -4.919816    2.825230    0.254665
      4          1           0       -4.992346    0.057375    0.231171
      5          1           0       -3.588888    0.572882    1.161592
      6          1           0       -4.428855    1.728677   -1.542400
      7          1           0       -3.026646    2.243600   -0.611666
      8          1           0       -4.534704    2.966772    1.269680
      9          1           0       -5.944879    2.448923    0.333657
     10          1           0       -4.954358    3.803643   -0.234596
     11          6           0       -3.103454   -0.531688   -0.624602
     12          6           0       -3.035465   -1.909389    0.035173
     13          6           0       -2.159288   -2.893624   -0.740319
     14          1           0       -3.490216   -0.641275   -1.647246
     15          1           0       -2.086759   -0.125768   -0.716826
     16          1           0       -4.052458   -2.311994    0.126011
     17          1           0       -2.650250   -1.797071    1.056746
     18          1           0       -1.134225   -2.517316   -0.819312
     19          1           0       -2.544401   -3.035165   -1.755334
     20          1           0       -2.124746   -3.872036   -0.251058
     21          6           0        4.362562    1.685500   -0.841327
     22          6           0        4.100315    0.472370   -1.486356
     23          6           0        3.217074   -0.454198   -0.924302
     24          6           0        2.610855   -0.133649    0.289386
     25          6           0        2.851686    1.066560    0.956310
     26          6           0        3.738511    1.978207    0.375803
     27          1           0        5.050077    2.399485   -1.285111
     28          1           0        4.583524    0.242376   -2.431691
     29          1           0        2.996002   -1.400827   -1.402253
     30          1           0        2.354854    1.267648    1.897661
     31          1           0        3.940284    2.919556    0.878986
     32          7           0        1.673910   -1.106667    0.894175
     33          8           0        1.152616   -0.800470    1.964284
     34          8           0        1.478568   -2.157090    0.286649
 ---------------------------------------------------------------------

 SCF Done:  E(RHF) =  -669.536253965     A.U. after   15 cycles
 E2 =    -0.2091132316D+01 EUMP2 =    -0.67162738628089D+03

 The electronic state is 1-A.
 Alpha  occ. eigenvalues --  -20.61007 -20.61001 -15.86029 -11.31329 -11.27890
 Alpha  occ. eigenvalues --  -11.27885 -11.27623 -11.26891 -11.26881 -11.21144
 Alpha  occ. eigenvalues --  -11.20715 -11.20708 -11.20557 -11.20420 -11.19620
 Alpha  occ. eigenvalues --   -1.60063  -1.39620  -1.19496  -1.08904  -1.07657
 Alpha  occ. eigenvalues --   -1.04888  -1.02687  -0.95750  -0.95133  -0.86290
 Alpha  occ. eigenvalues --   -0.86156  -0.82582  -0.78795  -0.77640  -0.77434
 Alpha  occ. eigenvalues --   -0.72248  -0.71379  -0.70603  -0.65151  -0.64890
 Alpha  occ. eigenvalues --   -0.64285  -0.62235  -0.60068  -0.58570  -0.56739
 Alpha  occ. eigenvalues --   -0.55394  -0.54411  -0.53220  -0.52979  -0.51828
 Alpha  occ. eigenvalues --   -0.51571  -0.49204  -0.49011  -0.48888  -0.47100
 Alpha  occ. eigenvalues --   -0.45865  -0.45122  -0.44937  -0.44731  -0.42959
 Alpha  occ. eigenvalues --   -0.37473  -0.36488
 Alpha virt. eigenvalues --    0.04849   0.11167   0.16330   0.21300   0.23576
 Alpha virt. eigenvalues --    0.25190   0.27223   0.27347   0.28140   0.28248
 Alpha virt. eigenvalues --    0.28961   0.30846   0.32170   0.32424   0.32543

 Mulliken charges:
               1
     1  C   -0.298391
     2  C   -0.298601
     3  C   -0.475265
     4  H    0.148264
     5  H    0.152144
     6  H    0.150279
     7  H    0.149368
     8  H    0.155024
     9  H    0.154966
    10  H    0.157485
    11  C   -0.296165
    12  C   -0.300734
    13  C   -0.480326
    14  H    0.145601
    15  H    0.146844
    16  H    0.146192
    17  H    0.161079
    18  H    0.172622
    19  H    0.144771
    20  H    0.160060
    21  C   -0.170479
    22  C   -0.218508
    23  C   -0.170758
    24  C    0.157907
    25  C   -0.170838
    26  C   -0.218552
    27  H    0.226192
    28  H    0.224082
    29  H    0.276101
    30  H    0.275772
    31  H    0.223966
    32  N    0.487995
    33  O   -0.459221
    34  O   -0.458875
 Sum of Mulliken charges =  -0.00000

 Dipole moment (field-independent basis, Debye):
    X=              3.5889    Y=              3.3846    Z=             -2.0209  Tot=              5.3310
 Quadrupole moment (field-independent basis, Debye-Ang):
   XX=            -78.5052   YY=            -94.9825   ZZ=            -93.3530
   XY=              8.9781   XZ=             -5.1292   YZ=              3.6670

 Normal termination of Gaussian 16 at Thu May  6 20:22:03 2021.
