 Gaussian 16, Revision A.03,
 Gaussian 16:  EM64L-G16RevA.03 25-Dec-2016

 -------------
 #p 6-31g* mp2
 -------------

 ------------------------------------------------------
 Input file generated by CHIRIPA (05-May-2021 14:55:25)
 ------------------------------------------------------
 Symbolic Z-matrix:
 Charge =  0 Multiplicity = 1

                         Standard orientation:
 ---------------------------------------------------------------------
 Center     Atomic      Atomic             Coordinates (Angstroms)
 Number     Number       Type             X           Y           Z
 ---------------------------------------------------------------------
      1          6           0       -1.713911    1.674905    1.504418
      2          6           0       -3.111472    1.700041    1.452320
      3          6           0       -3.811259    0.749481    0.703133
      4          6           0       -3.078329   -0.216374    0.015217
      5          6           0       -1.685626   -0.267690    0.047414
      6          6           0       -1.006696    0.692851    0.803035
      7          1           0       -1.178401    2.417199    2.088903
      8          1           0       -3.663323    2.461553    1.996015
      9          1           0       -4.892958    0.745759    0.645409
     10          1           0       -1.163107   -1.039072   -0.505181
     11          1           0        0.078693    0.670900    0.841672
     12          7           0       -3.808122   -1.227973   -0.781319
     13          8           0       -3.139114   -2.068534   -1.378413
     14          8           0       -5.035324   -1.161148   -0.793467
     15          6           0        3.413616    0.727601   -0.127715
     16          6           0        3.501577    1.587997   -1.388654
     17          6           0        2.751082    2.913253   -1.253571
     18          1           0        2.357310    0.530752    0.101223
     19          1           0        3.817574    1.293751    0.722983
     20          1           0        3.098846    1.019876   -2.236984
     21          1           0        4.557804    1.782661   -1.614727
     22          1           0        3.157059    3.503209   -0.425481
     23          1           0        1.689813    2.736092   -1.051274
     24          1           0        2.827054    3.512488   -2.166263
     25          6           0        4.158992   -0.600495   -0.247315
     26          6           0        4.071031   -1.460891    1.013624
     27          6           0        4.821527   -2.786147    0.878541
     28          1           0        3.755036   -1.166645   -1.098014
     29          1           0        5.215298   -0.403645   -0.476254
     30          1           0        3.014806   -1.655554    1.239695
     31          1           0        4.473762   -0.892770    1.861953
     32          1           0        5.882795   -2.608985    0.676243
     33          1           0        4.415549   -3.376104    0.050450
     34          1           0        4.745554   -3.385382    1.791231
 ---------------------------------------------------------------------

 SCF Done:  E(RHF) =  -669.535607724     A.U. after   15 cycles
 E2 =    -0.2091338742D+01 EUMP2 =    -0.67162694646629D+03

 The electronic state is 1-A.
 Alpha  occ. eigenvalues --  -20.60762 -20.60756 -15.85815 -11.31180 -11.27753
 Alpha  occ. eigenvalues --  -11.27750 -11.27488 -11.26761 -11.26738 -11.22336
 Alpha  occ. eigenvalues --  -11.22274 -11.22208 -11.22029 -11.21781 -11.21495
 Alpha  occ. eigenvalues --   -1.59837  -1.39391  -1.19353  -1.09155  -1.08745
 Alpha  occ. eigenvalues --   -1.04758  -1.04167  -0.96624  -0.95581  -0.87635
 Alpha  occ. eigenvalues --   -0.86156  -0.82417  -0.80238  -0.78994  -0.77462
 Alpha  occ. eigenvalues --   -0.72034  -0.71160  -0.70458  -0.65830  -0.65004
 Alpha  occ. eigenvalues --   -0.64741  -0.62122  -0.61544  -0.59988  -0.58236
 Alpha  occ. eigenvalues --   -0.55923  -0.55252  -0.53279  -0.53097  -0.53069
 Alpha  occ. eigenvalues --   -0.52834  -0.50562  -0.48800  -0.48789  -0.48544
 Alpha  occ. eigenvalues --   -0.47272  -0.46510  -0.46425  -0.44797  -0.44451
 Alpha  occ. eigenvalues --   -0.37330  -0.36360
 Alpha virt. eigenvalues --    0.05073   0.11240   0.16543   0.19204   0.22747
 Alpha virt. eigenvalues --    0.23722   0.24607   0.26493   0.27245   0.28376
 Alpha virt. eigenvalues --    0.29217   0.30567   0.31261   0.31319   0.31639

 Mulliken charges:
               1
     1  C   -0.172906
     2  C   -0.218498
     3  C   -0.170986
     4  C    0.158699
     5  C   -0.173824
     6  C   -0.227781
     7  H    0.226856
     8  H    0.223441
     9  H    0.275617
    10  H    0.275035
    11  H    0.236594
    12  N    0.488161
    13  O   -0.460572
    14  O   -0.460491
    15  C   -0.304264
    16  C   -0.299884
    17  C   -0.477222
    18  H    0.142257
    19  H    0.150768
    20  H    0.155082
    21  H    0.155528
    22  H    0.154611
    23  H    0.151896
    24  H    0.164649
    25  C   -0.298547
    26  C   -0.299664
    27  C   -0.476246
    28  H    0.152128
    29  H    0.153043
    30  H    0.148146
    31  H    0.152209
    32  H    0.156524
    33  H    0.157513
    34  H    0.162128
 Sum of Mulliken charges =  -0.00000

 Dipole moment (field-independent basis, Debye):
    X=              2.7582    Y=              3.5569    Z=              2.7540  Tot=              5.2767
 Quadrupole moment (field-independent basis, Debye-Ang):
   XX=           -105.5534   YY=            -96.5941   ZZ=            -94.7950
   XY=            -12.9672   XZ=             -9.9890   YZ=              0.2954

 Normal termination of Gaussian 16 at Thu May  6 03:13:16 2021.
