 Gaussian 16, Revision A.03,
 Gaussian 16:  EM64L-G16RevA.03 25-Dec-2016

 -------------
 #p 6-31g* mp2
 -------------

 ------------------------------------------------------
 Input file generated by CHIRIPA (05-May-2021 14:57:21)
 ------------------------------------------------------
 Symbolic Z-matrix:
 Charge =  0 Multiplicity = 1

                         Standard orientation:
 ---------------------------------------------------------------------
 Center     Atomic      Atomic             Coordinates (Angstroms)
 Number     Number       Type             X           Y           Z
 ---------------------------------------------------------------------
      1          6           0        5.801062    0.989698    0.241772
      2          6           0        5.712820   -0.402579    0.343254
      3          6           0        4.491953   -1.053221    0.141515
      4          6           0        3.374344   -0.277067   -0.161513
      5          6           0        3.430190    1.111639   -0.269530
      6          6           0        4.661474    1.741039   -0.063758
      7          1           0        6.753506    1.486881    0.400054
      8          1           0        6.596193   -0.988631    0.580405
      9          1           0        4.395340   -2.129711    0.213984
     10          1           0        2.532262    1.668971   -0.507278
     11          1           0        4.727038    2.822442   -0.143209
     12          7           0        2.076353   -0.954628   -0.377220
     13          8           0        1.106376   -0.248148   -0.643054
     14          8           0        2.053542   -2.179351   -0.276374
     15          6           0       -3.926539   -2.334735    0.154929
     16          6           0       -2.727299   -1.785180    0.620044
     17          6           0       -2.528915   -0.401322    0.608683
     18          6           0       -3.555566    0.407100    0.123162
     19          6           0       -4.761604   -0.110309   -0.346998
     20          6           0       -4.938082   -1.497023   -0.326260
     21          1           0       -4.072140   -3.410858    0.167396
     22          1           0       -1.939981   -2.433334    0.994306
     23          1           0       -1.610390    0.050707    0.962800
     24          1           0       -5.528093    0.561349   -0.714134
     25          1           0       -5.870463   -1.921027   -0.688098
     26          7           0       -3.357142    1.873640    0.106170
     27          8           0       -4.277114    2.564294   -0.326595
     28          8           0       -2.285401    2.304691    0.525938
 ---------------------------------------------------------------------

 SCF Done:  E(RHF) =  -868.339920965     A.U. after   16 cycles
 E2 =    -0.2598405134D+01 EUMP2 =    -0.87093832609894D+03

 The electronic state is 1-A.
 Alpha  occ. eigenvalues --  -20.61203 -20.61187 -20.59887 -20.59874 -15.86219
 Alpha  occ. eigenvalues --  -15.84929 -11.31342 -11.30063 -11.27921 -11.27833
 Alpha  occ. eigenvalues --  -11.27605 -11.26880 -11.26817 -11.26709 -11.26498
 Alpha  occ. eigenvalues --  -11.26391 -11.25703 -11.25498  -1.60271  -1.58961
 Alpha  occ. eigenvalues --   -1.39824  -1.38519  -1.19501  -1.18236  -1.08947
 Alpha  occ. eigenvalues --   -1.07691  -1.04862  -1.03591  -0.95817  -0.94555
 Alpha  occ. eigenvalues --   -0.86273  -0.85016  -0.82650  -0.81386  -0.77720
 Alpha  occ. eigenvalues --   -0.76443  -0.72448  -0.71579  -0.71164  -0.70605
 Alpha  occ. eigenvalues --   -0.70273  -0.69368  -0.65155  -0.64863  -0.63896
 Alpha  occ. eigenvalues --   -0.63603  -0.62203  -0.60931  -0.55384  -0.54161
 Alpha  occ. eigenvalues --   -0.53213  -0.52947  -0.51955  -0.51685  -0.49216
 Alpha  occ. eigenvalues --   -0.49192  -0.47918  -0.47899  -0.45278  -0.43975
 Alpha  occ. eigenvalues --   -0.37480  -0.36455  -0.36247  -0.35165
 Alpha virt. eigenvalues --    0.04762   0.06068   0.11201   0.12470   0.16290
 Alpha virt. eigenvalues --    0.17587   0.21368   0.22571   0.27313   0.28176
 Alpha virt. eigenvalues --    0.28584   0.29421   0.30962   0.32047   0.32520

 Mulliken charges:
               1
     1  C   -0.170029
     2  C   -0.218864
     3  C   -0.171097
     4  C    0.156625
     5  C   -0.170892
     6  C   -0.218917
     7  H    0.226618
     8  H    0.223494
     9  H    0.274163
    10  H    0.281934
    11  H    0.226432
    12  N    0.488097
    13  O   -0.460946
    14  O   -0.464528
    15  C   -0.171335
    16  C   -0.217593
    17  C   -0.162372
    18  C    0.155219
    19  C   -0.172367
    20  C   -0.219647
    21  H    0.222650
    22  H    0.229378
    23  H    0.282096
    24  H    0.271461
    25  H    0.218927
    26  N    0.488512
    27  O   -0.465302
    28  O   -0.461717
 Sum of Mulliken charges =  -0.00000

 Dipole moment (field-independent basis, Debye):
    X=              4.2943    Y=             -2.7495    Z=              0.8346  Tot=              5.1670
 Quadrupole moment (field-independent basis, Debye-Ang):
   XX=            -65.6184   YY=           -107.2965   ZZ=           -105.7933
   XY=             22.9026   XZ=              3.9957   YZ=             -2.4205

 Normal termination of Gaussian 16 at Thu May  6 03:20:28 2021.
