 Gaussian 16, Revision A.03,
 Gaussian 16:  EM64L-G16RevA.03 25-Dec-2016

 -------------
 #p 6-31g* mp2
 -------------

 ------------------------------------------------------
 Input file generated by CHIRIPA (05-May-2021 14:51:14)
 ------------------------------------------------------
 Symbolic Z-matrix:
 Charge =  0 Multiplicity = 1

                         Standard orientation:
 ---------------------------------------------------------------------
 Center     Atomic      Atomic             Coordinates (Angstroms)
 Number     Number       Type             X           Y           Z
 ---------------------------------------------------------------------
      1          6           0       -2.766443   -0.782417   -0.142547
      2          6           0       -3.800069    0.131414   -0.801726
      3          6           0       -4.489803   -0.523247   -1.999006
      4          1           0       -2.013372   -1.071523   -0.888366
      5          1           0       -3.259706   -1.710018    0.179387
      6          1           0       -3.305280    1.057596   -1.121079
      7          1           0       -4.550661    0.418533   -0.054203
      8          1           0       -5.008797   -1.437124   -1.692288
      9          1           0       -3.756341   -0.794430   -2.765227
     10          1           0       -5.224669    0.147445   -2.455079
     11          6           0       -2.068380   -0.142011    1.055917
     12          6           0       -1.034754   -1.055842    1.715096
     13          6           0       -0.345020   -0.401181    2.912376
     14          1           0       -1.575117    0.785591    0.733983
     15          1           0       -2.821451    0.147095    1.801737
     16          1           0       -0.284163   -1.342961    0.967573
     17          1           0       -1.529543   -1.982024    2.034449
     18          1           0       -1.078483   -0.129998    3.678597
     19          1           0        0.173974    0.512696    2.605658
     20          1           0        0.389846   -1.071873    3.368450
     21          6           0        3.067730    0.067364   -0.524593
     22          6           0        2.848940   -1.435615   -0.701145
     23          6           0        4.159277   -2.211970   -0.835628
     24          1           0        3.637010    0.451786   -1.381963
     25          1           0        3.689274    0.238316    0.365269
     26          1           0        2.226842   -1.603606   -1.589621
     27          1           0        2.279949   -1.816469    0.156652
     28          1           0        4.781931   -2.073892    0.054223
     29          1           0        4.728523   -1.859820   -1.701971
     30          1           0        3.979545   -3.284290   -0.960874
     31          6           0        1.767093    0.857064   -0.388777
     32          6           0        1.985883    2.360043   -0.212225
     33          6           0        0.675546    3.136398   -0.077742
     34          1           0        1.145549    0.686112   -1.278639
     35          1           0        1.197813    0.472642    0.468593
     36          1           0        2.554875    2.740896   -1.070022
     37          1           0        2.607981    2.528034    0.676251
     38          1           0        0.106300    2.784248    0.788601
     39          1           0        0.052892    2.998320   -0.967594
     40          1           0        0.855279    4.208718    0.047503
 ---------------------------------------------------------------------

 SCF Done:  E(RHF) =  -470.732028258     A.U. after   11 cycles
 E2 =    -0.1585750048D+01 EUMP2 =    -0.47231777830611D+03

 The electronic state is 1-A.
 Alpha  occ. eigenvalues --  -11.21657 -11.21652 -11.21568 -11.21568 -11.21427
 Alpha  occ. eigenvalues --  -11.21355 -11.21353 -11.21289 -11.21155 -11.21139
 Alpha  occ. eigenvalues --  -11.21105 -11.21051  -1.08529  -1.08364  -1.03604
 Alpha  occ. eigenvalues --   -1.03522  -0.96053  -0.95967  -0.87057  -0.86995
 Alpha  occ. eigenvalues --   -0.79686  -0.79564  -0.78328  -0.78211  -0.65430
 Alpha  occ. eigenvalues --   -0.64798  -0.61136  -0.60811  -0.59451  -0.59292
 Alpha  occ. eigenvalues --   -0.57665  -0.57578  -0.55486  -0.55131  -0.52729
 Alpha  occ. eigenvalues --   -0.52678  -0.52501  -0.52370  -0.50040  -0.49875
 Alpha  occ. eigenvalues --   -0.48068  -0.47926  -0.46831  -0.46504  -0.46118
 Alpha  occ. eigenvalues --   -0.45762  -0.45600  -0.45256  -0.43830  -0.43762
 Alpha virt. eigenvalues --    0.20074   0.22694   0.23177   0.23975   0.25567
 Alpha virt. eigenvalues --    0.26302   0.26626   0.28370   0.29181   0.29424
 Alpha virt. eigenvalues --    0.30117   0.31081   0.31383   0.32017   0.32337

 Mulliken charges:
               1
     1  C   -0.298201
     2  C   -0.299820
     3  C   -0.475656
     4  H    0.150111
     5  H    0.149239
     6  H    0.152146
     7  H    0.151874
     8  H    0.155141
     9  H    0.154909
    10  H    0.160154
    11  C   -0.304118
    12  C   -0.307981
    13  C   -0.480146
    14  H    0.156757
    15  H    0.149191
    16  H    0.157754
    17  H    0.153309
    18  H    0.156485
    19  H    0.156312
    20  H    0.160215
    21  C   -0.297384
    22  C   -0.303317
    23  C   -0.475655
    24  H    0.149699
    25  H    0.149578
    26  H    0.151556
    27  H    0.155164
    28  H    0.155386
    29  H    0.155385
    30  H    0.160471
    31  C   -0.310462
    32  C   -0.299131
    33  C   -0.480575
    34  H    0.148335
    35  H    0.164158
    36  H    0.152247
    37  H    0.151923
    38  H    0.158829
    39  H    0.155001
    40  H    0.161116
 Sum of Mulliken charges =  -0.00000

 Dipole moment (field-independent basis, Debye):
    X=              0.0228    Y=              0.0067    Z=              0.0070  Tot=              0.0247
 Quadrupole moment (field-independent basis, Debye-Ang):
   XX=            -85.3632   YY=            -85.2211   ZZ=            -84.2140
   XY=              0.6331   XZ=             -0.8247   YZ=             -0.7121

 Normal termination of Gaussian 16 at Thu May  6 02:26:44 2021.
