 Gaussian 16, Revision A.03,
 Gaussian 16:  EM64L-G16RevA.03 25-Dec-2016

 -------------
 #p 6-31g* mp2
 -------------

 ------------------------------------------------------
 Input file generated by CHIRIPA (05-May-2021 14:55:19)
 ------------------------------------------------------
 Symbolic Z-matrix:
 Charge =  0 Multiplicity = 1

                         Standard orientation:
 ---------------------------------------------------------------------
 Center     Atomic      Atomic             Coordinates (Angstroms)
 Number     Number       Type             X           Y           Z
 ---------------------------------------------------------------------
      1          6           0       -6.279717    0.508497    0.376263
      2          6           0       -5.469278    1.553981   -0.078350
      3          6           0       -4.101624    1.352896   -0.287238
      4          6           0       -3.575255    0.087907   -0.030281
      5          6           0       -4.356645   -0.973704    0.423263
      6          6           0       -5.721797   -0.749790    0.625179
      7          1           0       -7.341172    0.673572    0.535825
      8          1           0       -5.899837    2.532232   -0.272490
      9          1           0       -3.451206    2.144655   -0.638653
     10          1           0       -3.898693   -1.937834    0.608064
     11          1           0       -6.348783   -1.563574    0.978294
     12          7           0       -2.128705   -0.137057   -0.247732
     13          8           0       -1.689246   -1.260834   -0.013984
     14          8           0       -1.461749    0.814654   -0.647800
     15          6           0        5.321184    0.463110    0.036032
     16          6           0        6.780578    0.153390    0.371035
     17          6           0        7.647624    1.410039    0.453859
     18          1           0        5.277717    1.003922   -0.919257
     19          1           0        4.913333    1.141537    0.798128
     20          1           0        7.185146   -0.525352   -0.390707
     21          1           0        6.820562   -0.386917    1.325543
     22          1           0        7.270851    2.087785    1.226713
     23          1           0        7.637507    1.948562   -0.499289
     24          1           0        8.686969    1.165542    0.694369
     25          6           0        4.441796   -0.783068   -0.050258
     26          6           0        2.982401   -0.473347   -0.385261
     27          6           0        2.115355   -1.729996   -0.468085
     28          1           0        4.849645   -1.461495   -0.812353
     29          1           0        4.485262   -1.323880    0.905031
     30          1           0        2.942418    0.066959   -1.339769
     31          1           0        2.577833    0.205394    0.376481
     32          1           0        2.125473   -2.268521    0.485062
     33          1           0        2.492128   -2.407742   -1.240939
     34          1           0        1.076011   -1.485501   -0.708595
 ---------------------------------------------------------------------

 SCF Done:  E(RHF) =  -669.536682091     A.U. after   15 cycles
 E2 =    -0.2091129292D+01 EUMP2 =    -0.67162781138226D+03

 The electronic state is 1-A.
 Alpha  occ. eigenvalues --  -20.61068 -20.61050 -15.86060 -11.31353 -11.27907
 Alpha  occ. eigenvalues --  -11.27903 -11.27639 -11.26905 -11.26895 -11.20860
 Alpha  occ. eigenvalues --  -11.20461 -11.20446 -11.20201 -11.20018 -11.19051
 Alpha  occ. eigenvalues --   -1.60101  -1.39658  -1.19514  -1.08926  -1.07341
 Alpha  occ. eigenvalues --   -1.04903  -1.02327  -0.95773  -0.94765  -0.86306
 Alpha  occ. eigenvalues --   -0.85790  -0.82605  -0.78452  -0.77665  -0.77087
 Alpha  occ. eigenvalues --   -0.72269  -0.71406  -0.70622  -0.65168  -0.64906
 Alpha  occ. eigenvalues --   -0.63992  -0.62250  -0.59748  -0.58210  -0.56337
 Alpha  occ. eigenvalues --   -0.55405  -0.54094  -0.53238  -0.52994  -0.51449
 Alpha  occ. eigenvalues --   -0.51215  -0.49034  -0.48969  -0.48759  -0.46710
 Alpha  occ. eigenvalues --   -0.45532  -0.45077  -0.44631  -0.44542  -0.42526
 Alpha  occ. eigenvalues --   -0.37492  -0.36502
 Alpha virt. eigenvalues --    0.04867   0.11154   0.16376   0.21295   0.23850
 Alpha virt. eigenvalues --    0.25590   0.27216   0.27666   0.28177   0.28527
 Alpha virt. eigenvalues --    0.29293   0.30860   0.32405   0.32508   0.32726

 Mulliken charges:
               1
     1  C   -0.170446
     2  C   -0.218617
     3  C   -0.170694
     4  C    0.158255
     5  C   -0.170694
     6  C   -0.218580
     7  H    0.226204
     8  H    0.224028
     9  H    0.276022
    10  H    0.276147
    11  H    0.224062
    12  N    0.488529
    13  O   -0.458209
    14  O   -0.458919
    15  C   -0.297128
    16  C   -0.298681
    17  C   -0.475038
    18  H    0.148406
    19  H    0.148408
    20  H    0.150576
    21  H    0.150542
    22  H    0.154204
    23  H    0.154292
    24  H    0.157789
    25  C   -0.297202
    26  C   -0.296961
    27  C   -0.486455
    28  H    0.146185
    29  H    0.146633
    30  H    0.149932
    31  H    0.153311
    32  H    0.148091
    33  H    0.144203
    34  H    0.191805
 Sum of Mulliken charges =  -0.00000

 Dipole moment (field-independent basis, Debye):
    X=             -5.6062    Y=              0.8470    Z=              0.7548  Tot=              5.7199
 Quadrupole moment (field-independent basis, Debye-Ang):
   XX=            -60.9456   YY=            -91.0636   ZZ=            -94.3184
   XY=             -3.2135   XZ=             -3.1781   YZ=             -1.6469

 Normal termination of Gaussian 16 at Thu May  6 06:04:04 2021.
