 Gaussian 16, Revision A.03,
 Gaussian 16:  EM64L-G16RevA.03 25-Dec-2016

 -------------
 #p 6-31g* mp2
 -------------

 ------------------------------------------------------
 Input file generated by CHIRIPA (05-May-2021 14:55:24)
 ------------------------------------------------------
 Symbolic Z-matrix:
 Charge =  0 Multiplicity = 1

                         Standard orientation:
 ---------------------------------------------------------------------
 Center     Atomic      Atomic             Coordinates (Angstroms)
 Number     Number       Type             X           Y           Z
 ---------------------------------------------------------------------
      1          6           0        1.397428   -0.083892   -0.268643
      2          6           0        2.168699    0.920592   -0.862506
      3          6           0        3.563937    0.886324   -0.780748
      4          6           0        4.157529   -0.171854   -0.094311
      5          6           0        3.416458   -1.187498    0.507827
      6          6           0        2.022667   -1.132882    0.413426
      7          1           0        0.314136   -0.049369   -0.337065
      8          1           0        1.685844    1.736458   -1.392845
      9          1           0        4.185174    1.650858   -1.231269
     10          1           0        3.926393   -1.988082    1.029795
     11          1           0        1.426219   -1.914352    0.875595
     12          7           0        5.633840   -0.218903   -0.001065
     13          8           0        6.132648   -1.161892    0.609344
     14          8           0        6.264209    0.688101   -0.540154
     15          6           0       -4.253402    0.207009    0.243766
     16          6           0       -3.696747    1.559842    0.688696
     17          6           0       -2.181412    1.537822    0.891350
     18          1           0       -3.993192   -0.553598    0.992572
     19          1           0       -3.761783   -0.094218   -0.691632
     20          1           0       -4.190268    1.859078    1.622243
     21          1           0       -3.958478    2.317354   -0.061163
     22          1           0       -1.672346    1.263903   -0.038393
     23          1           0       -1.905453    0.803023    1.654578
     24          1           0       -1.804645    2.514987    1.209243
     25          6           0       -5.766990    0.213087    0.037012
     26          6           0       -6.323645   -1.139746   -0.407918
     27          6           0       -7.838981   -1.117727   -0.610571
     28          1           0       -6.258609    0.514314    0.972409
     29          1           0       -6.027200    0.973694   -0.711794
     30          1           0       -6.061914   -1.897258    0.341940
     31          1           0       -5.830124   -1.438982   -1.341466
     32          1           0       -8.114939   -0.382927   -1.373800
     33          1           0       -8.348046   -0.843808    0.319172
     34          1           0       -8.215748   -2.094892   -0.928464
 ---------------------------------------------------------------------

 SCF Done:  E(RHF) =  -669.535485688     A.U. after   15 cycles
 E2 =    -0.2090800250D+01 EUMP2 =    -0.67162628593785D+03

 The electronic state is 1-A.
 Alpha  occ. eigenvalues --  -20.60700 -20.60695 -15.85754 -11.31100 -11.27675
 Alpha  occ. eigenvalues --  -11.27671 -11.27357 -11.26674 -11.26664 -11.22533
 Alpha  occ. eigenvalues --  -11.22310 -11.22246 -11.22188 -11.22045 -11.21553
 Alpha  occ. eigenvalues --   -1.59777  -1.39331  -1.19271  -1.09214  -1.08663
 Alpha  occ. eigenvalues --   -1.04675  -1.04329  -0.96802  -0.95502  -0.87822
 Alpha  occ. eigenvalues --   -0.86070  -0.82342  -0.80404  -0.79002  -0.77393
 Alpha  occ. eigenvalues --   -0.71972  -0.71100  -0.70384  -0.65840  -0.64921
 Alpha  occ. eigenvalues --   -0.64682  -0.62028  -0.61725  -0.60170  -0.58411
 Alpha  occ. eigenvalues --   -0.56144  -0.55178  -0.53474  -0.53189  -0.52985
 Alpha  occ. eigenvalues --   -0.52766  -0.50743  -0.48757  -0.48728  -0.48677
 Alpha  occ. eigenvalues --   -0.47424  -0.46548  -0.46451  -0.44741  -0.44564
 Alpha  occ. eigenvalues --   -0.37235  -0.36285
 Alpha virt. eigenvalues --    0.05141   0.11368   0.16618   0.20128   0.22311
 Alpha virt. eigenvalues --    0.23733   0.25426   0.26178   0.26952   0.27344
 Alpha virt. eigenvalues --    0.29069   0.30425   0.30981   0.31172   0.32309

 Mulliken charges:
               1
     1  C   -0.173867
     2  C   -0.220596
     3  C   -0.170978
     4  C    0.158131
     5  C   -0.170807
     6  C   -0.220442
     7  H    0.233742
     8  H    0.222721
     9  H    0.275242
    10  H    0.275180
    11  H    0.223363
    12  N    0.488073
    13  O   -0.460720
    14  O   -0.460736
    15  C   -0.298838
    16  C   -0.299637
    17  C   -0.479246
    18  H    0.149364
    19  H    0.146676
    20  H    0.156207
    21  H    0.154373
    22  H    0.145116
    23  H    0.156269
    24  H    0.166100
    25  C   -0.298738
    26  C   -0.300138
    27  C   -0.476119
    28  H    0.151413
    29  H    0.150995
    30  H    0.152175
    31  H    0.151817
    32  H    0.155991
    33  H    0.156181
    34  H    0.161735
 Sum of Mulliken charges =  -0.00000

 Dipole moment (field-independent basis, Debye):
    X=             -5.4693    Y=              0.2159    Z=             -0.2729  Tot=              5.4804
 Quadrupole moment (field-independent basis, Debye-Ang):
   XX=           -139.0273   YY=            -91.2570   ZZ=            -92.9661
   XY=              1.6389   XZ=             -1.5279   YZ=             -2.7856

 Normal termination of Gaussian 16 at Thu May  6 06:20:55 2021.
