 Gaussian 16, Revision A.03,
 Gaussian 16:  EM64L-G16RevA.03 25-Dec-2016

 -------------
 #p 6-31g* mp2
 -------------

 ------------------------------------------------------
 Input file generated by CHIRIPA (05-May-2021 14:51:11)
 ------------------------------------------------------
 Symbolic Z-matrix:
 Charge =  0 Multiplicity = 1

                         Standard orientation:
 ---------------------------------------------------------------------
 Center     Atomic      Atomic             Coordinates (Angstroms)
 Number     Number       Type             X           Y           Z
 ---------------------------------------------------------------------
      1          6           0       -4.005896   -0.615281    0.308135
      2          6           0       -4.787030   -1.662212   -0.486692
      3          6           0       -4.789173   -3.035043    0.186454
      4          1           0       -2.971827   -0.961597    0.441223
      5          1           0       -4.439123   -0.530608    1.314386
      6          1           0       -4.353325   -1.743889   -1.491602
      7          1           0       -5.819309   -1.313277   -0.618068
      8          1           0       -5.240958   -2.975289    1.181904
      9          1           0       -3.766644   -3.408349    0.303407
     10          1           0       -5.353148   -3.768174   -0.398620
     11          6           0       -3.994628    0.762311   -0.352046
     12          6           0       -3.213494    1.809242    0.442781
     13          6           0       -3.211351    3.182073   -0.230365
     14          1           0       -3.561401    0.677638   -1.358296
     15          1           0       -5.028697    1.108627   -0.485134
     16          1           0       -2.181215    1.460307    0.574157
     17          1           0       -3.647200    1.890919    1.447691
     18          1           0       -4.233880    3.555379   -0.347317
     19          1           0       -2.759566    3.122320   -1.225815
     20          1           0       -2.647376    3.915204    0.354709
     21          6           0        3.315755   -0.022365   -0.313105
     22          6           0        2.182135    0.281693    0.666914
     23          6           0        0.818948    0.380979   -0.018404
     24          1           0        3.346777    0.761205   -1.082522
     25          1           0        3.097184   -0.964345   -0.834924
     26          1           0        2.403453    1.222111    1.187727
     27          1           0        2.153930   -0.502589    1.434197
     28          1           0        0.572262   -0.558601   -0.523319
     29          1           0        0.823204    1.175899   -0.771188
     30          1           0        0.023064    0.598871    0.700588
     31          6           0        4.684769   -0.124665    0.357016
     32          6           0        5.818390   -0.428723   -0.623003
     33          6           0        7.181575   -0.528008    0.062314
     34          1           0        4.903340    0.817315    0.878835
     35          1           0        4.653748   -0.908234    1.126433
     36          1           0        5.846594    0.355558   -1.390286
     37          1           0        5.597071   -1.369141   -1.143818
     38          1           0        7.177321   -1.322929    0.815099
     39          1           0        7.428262    0.411571    0.567229
     40          1           0        7.977461   -0.745902   -0.656677
 ---------------------------------------------------------------------

 SCF Done:  E(RHF) =  -470.733300798     A.U. after   11 cycles
 E2 =    -0.1582532870D+01 EUMP2 =    -0.47231583366761D+03

 The electronic state is 1-A.
 Alpha  occ. eigenvalues --  -11.21658 -11.21626 -11.21564 -11.21507 -11.21442
 Alpha  occ. eigenvalues --  -11.21382 -11.21346 -11.21286 -11.21152 -11.21089
 Alpha  occ. eigenvalues --  -11.21046 -11.21016  -1.08470  -1.08373  -1.03578
 Alpha  occ. eigenvalues --   -1.03475  -0.96030  -0.95928  -0.87055  -0.86941
 Alpha  occ. eigenvalues --   -0.79663  -0.79522  -0.78282  -0.78186  -0.65098
 Alpha  occ. eigenvalues --   -0.65012  -0.60981  -0.60894  -0.59441  -0.59252
 Alpha  occ. eigenvalues --   -0.57648  -0.57530  -0.55326  -0.55201  -0.52784
 Alpha  occ. eigenvalues --   -0.52609  -0.52458  -0.52344  -0.49970  -0.49862
 Alpha  occ. eigenvalues --   -0.47995  -0.47828  -0.46675  -0.46558  -0.45824
 Alpha  occ. eigenvalues --   -0.45746  -0.45735  -0.45657  -0.43779  -0.43709
 Alpha virt. eigenvalues --    0.21561   0.22996   0.23873   0.24617   0.25892
 Alpha virt. eigenvalues --    0.26617   0.27107   0.27504   0.28006   0.28931
 Alpha virt. eigenvalues --    0.30412   0.31359   0.31650   0.31824   0.32108

 Mulliken charges:
               1
     1  C   -0.299220
     2  C   -0.299605
     3  C   -0.475654
     4  H    0.150475
     5  H    0.149161
     6  H    0.151942
     7  H    0.151858
     8  H    0.155086
     9  H    0.155031
    10  H    0.160098
    11  C   -0.297384
    12  C   -0.308293
    13  C   -0.475049
    14  H    0.149749
    15  H    0.149258
    16  H    0.160682
    17  H    0.151151
    18  H    0.154872
    19  H    0.155143
    20  H    0.159738
    21  C   -0.298767
    22  C   -0.299130
    23  C   -0.481848
    24  H    0.149764
    25  H    0.149513
    26  H    0.152354
    27  H    0.152178
    28  H    0.155038
    29  H    0.155682
    30  H    0.165725
    31  C   -0.298288
    32  C   -0.299655
    33  C   -0.475727
    34  H    0.149648
    35  H    0.149738
    36  H    0.151993
    37  H    0.151946
    38  H    0.155225
    39  H    0.155240
    40  H    0.160333
 Sum of Mulliken charges =  -0.00000

 Dipole moment (field-independent basis, Debye):
    X=              0.0456    Y=             -0.0026    Z=             -0.0004  Tot=              0.0457
 Quadrupole moment (field-independent basis, Debye-Ang):
   XX=            -85.2643   YY=            -84.8811   ZZ=            -84.7756
   XY=             -0.0184   XZ=             -0.7650   YZ=              0.3903

 Normal termination of Gaussian 16 at Thu May  6 05:28:01 2021.
