 Gaussian 16, Revision A.03,
 Gaussian 16:  EM64L-G16RevA.03 25-Dec-2016

 -------------
 #p 6-31g* mp2
 -------------

 ------------------------------------------------------
 Input file generated by CHIRIPA (05-May-2021 14:55:21)
 ------------------------------------------------------
 Symbolic Z-matrix:
 Charge =  0 Multiplicity = 1

                         Standard orientation:
 ---------------------------------------------------------------------
 Center     Atomic      Atomic             Coordinates (Angstroms)
 Number     Number       Type             X           Y           Z
 ---------------------------------------------------------------------
      1          6           0        4.510754   -2.046640   -0.479840
      2          6           0        5.226482   -0.857999   -0.657004
      3          6           0        4.603261    0.380033   -0.474194
      4          6           0        3.256982    0.392533   -0.112716
      5          6           0        2.516972   -0.774445    0.071237
      6          6           0        3.160664   -2.001150   -0.116925
      7          1           0        5.002839   -3.003973   -0.623930
      8          1           0        6.275087   -0.890291   -0.938840
      9          1           0        5.133607    1.315500   -0.604784
     10          1           0        1.472793   -0.710265    0.352285
     11          1           0        2.602331   -2.922665    0.021351
     12          7           0        2.586370    1.697186    0.083650
     13          8           0        1.399350    1.681190    0.402027
     14          8           0        3.260463    2.711065   -0.084535
     15          6           0       -3.583283   -0.460579    0.169559
     16          6           0       -2.861033   -0.287323    1.506092
     17          6           0       -1.407306   -0.758652    1.457912
     18          1           0       -3.548924   -1.518664   -0.124078
     19          1           0       -3.041603    0.097056   -0.606985
     20          1           0       -3.404692   -0.843989    2.280156
     21          1           0       -2.897283    0.770441    1.796675
     22          1           0       -0.844575   -0.195862    0.706114
     23          1           0       -1.354867   -1.819464    1.192341
     24          1           0       -0.909951   -0.625726    2.423743
     25          6           0       -5.037534    0.006154    0.201845
     26          6           0       -5.759784   -0.167103   -1.134689
     27          6           0       -7.213511    0.304226   -1.086509
     28          1           0       -5.579215   -0.551481    0.978388
     29          1           0       -5.071894    1.064239    0.495482
     30          1           0       -5.723535   -1.224866   -1.425272
     31          1           0       -5.216126    0.389563   -1.908752
     32          1           0       -7.265951    1.365039   -0.820937
     33          1           0       -7.776243   -0.258564   -0.334710
     34          1           0       -7.710867    0.171301   -2.052339
 ---------------------------------------------------------------------

 SCF Done:  E(RHF) =  -669.535811628     A.U. after   15 cycles
 E2 =    -0.2091496398D+01 EUMP2 =    -0.67162730802526D+03

 The electronic state is 1-A.
 Alpha  occ. eigenvalues --  -20.60810 -20.60800 -15.85851 -11.31155 -11.27737
 Alpha  occ. eigenvalues --  -11.27673 -11.27476 -11.26744 -11.26719 -11.21389
 Alpha  occ. eigenvalues --  -11.21329 -11.21152 -11.21091 -11.20885 -11.20876
 Alpha  occ. eigenvalues --   -1.59879  -1.39435  -1.19332  -1.08742  -1.08183
 Alpha  occ. eigenvalues --   -1.04726  -1.03303  -0.95787  -0.95573  -0.86814
 Alpha  occ. eigenvalues --   -0.86125  -0.82417  -0.79395  -0.78007  -0.77457
 Alpha  occ. eigenvalues --   -0.72079  -0.71195  -0.70447  -0.64993  -0.64821
 Alpha  occ. eigenvalues --   -0.64717  -0.62096  -0.60672  -0.59130  -0.57381
 Alpha  occ. eigenvalues --   -0.55262  -0.55032  -0.53063  -0.52895  -0.52443
 Alpha  occ. eigenvalues --   -0.52159  -0.49729  -0.48825  -0.48801  -0.47688
 Alpha  occ. eigenvalues --   -0.46371  -0.45547  -0.45445  -0.44850  -0.43558
 Alpha  occ. eigenvalues --   -0.37321  -0.36327
 Alpha virt. eigenvalues --    0.05054   0.11317   0.16557   0.21125   0.23159
 Alpha virt. eigenvalues --    0.24470   0.25976   0.26903   0.27794   0.27861
 Alpha virt. eigenvalues --    0.29377   0.30450   0.31611   0.31888   0.32143

 Mulliken charges:
               1
     1  C   -0.170182
     2  C   -0.219342
     3  C   -0.169802
     4  C    0.154472
     5  C   -0.176312
     6  C   -0.223407
     7  H    0.225474
     8  H    0.223247
     9  H    0.275368
    10  H    0.292558
    11  H    0.224219
    12  N    0.489475
    13  O   -0.465283
    14  O   -0.459964
    15  C   -0.299465
    16  C   -0.298150
    17  C   -0.489822
    18  H    0.145829
    19  H    0.153439
    20  H    0.149689
    21  H    0.158936
    22  H    0.172317
    23  H    0.144597
    24  H    0.162285
    25  C   -0.298490
    26  C   -0.299615
    27  C   -0.475661
    28  H    0.148319
    29  H    0.151924
    30  H    0.150246
    31  H    0.152997
    32  H    0.156092
    33  H    0.154460
    34  H    0.159551
 Sum of Mulliken charges =  -0.00000

 Dipole moment (field-independent basis, Debye):
    X=              2.3734    Y=             -4.4660    Z=             -0.6897  Tot=              5.1043
 Quadrupole moment (field-independent basis, Debye-Ang):
   XX=            -77.1135   YY=            -97.1315   ZZ=            -95.2058
   XY=            -11.7148   XZ=             -3.9399   YZ=             -0.4216

 Normal termination of Gaussian 16 at Wed May  5 22:14:14 2021.
