 Gaussian 16, Revision A.03,
 Gaussian 16:  EM64L-G16RevA.03 25-Dec-2016

 -------------
 #p 6-31g* mp2
 -------------

 ------------------------------------------------------
 Input file generated by CHIRIPA (05-May-2021 14:55:20)
 ------------------------------------------------------
 Symbolic Z-matrix:
 Charge =  0 Multiplicity = 1

                         Standard orientation:
 ---------------------------------------------------------------------
 Center     Atomic      Atomic             Coordinates (Angstroms)
 Number     Number       Type             X           Y           Z
 ---------------------------------------------------------------------
      1          6           0       -0.153544   -2.439633   -1.176501
      2          6           0       -1.320276   -1.904862   -1.732628
      3          6           0       -2.109141   -1.010315   -1.003226
      4          6           0       -1.699698   -0.670809    0.285332
      5          6           0       -0.542602   -1.186628    0.867012
      6          6           0        0.230891   -2.079445    0.119259
      7          1           0        0.453295   -3.133867   -1.750246
      8          1           0       -1.621277   -2.182799   -2.738706
      9          1           0       -3.017105   -0.581324   -1.409410
     10          1           0       -0.268298   -0.890701    1.872299
     11          1           0        1.136496   -2.493184    0.553707
     12          7           0       -2.526697    0.275292    1.067231
     13          8           0       -2.144238    0.558470    2.200444
     14          8           0       -3.541698    0.715753    0.532064
     15          6           0        1.551108    1.303671   -0.766536
     16          6           0        0.586021    2.409576   -0.338088
     17          6           0       -0.307646    2.890156   -1.481851
     18          1           0        2.175729    1.670548   -1.592487
     19          1           0        0.974353    0.456664   -1.163181
     20          1           0        1.164359    3.253691    0.058913
     21          1           0       -0.036245    2.040088    0.487067
     22          1           0       -0.909512    2.063861   -1.873763
     23          1           0        0.297914    3.284359   -2.304349
     24          1           0       -0.989639    3.680684   -1.153504
     25          6           0        2.451191    0.812776    0.365984
     26          6           0        3.416278   -0.293129   -0.062465
     27          6           0        4.309945   -0.773708    1.081299
     28          1           0        3.027946    1.659784    0.762628
     29          1           0        1.826570    0.445900    1.191934
     30          1           0        4.038544    0.076360   -0.887620
     31          1           0        2.837939   -1.137244   -0.459466
     32          1           0        3.704385   -1.167912    1.903796
     33          1           0        4.911811    0.052587    1.473210
     34          1           0        4.991937   -1.564236    0.752951
 ---------------------------------------------------------------------

 SCF Done:  E(RHF) =  -669.532619643     A.U. after   15 cycles
 E2 =    -0.2099717725D+01 EUMP2 =    -0.67163233736845D+03

 The electronic state is 1-A.
 Alpha  occ. eigenvalues --  -20.60968 -20.60962 -15.85992 -11.31374 -11.27943
 Alpha  occ. eigenvalues --  -11.27892 -11.27659 -11.26969 -11.26896 -11.22071
 Alpha  occ. eigenvalues --  -11.21675 -11.21614 -11.21380 -11.21263 -11.20829
 Alpha  occ. eigenvalues --   -1.60025  -1.39579  -1.19572  -1.08956  -1.08589
 Alpha  occ. eigenvalues --   -1.04963  -1.03692  -0.96142  -0.95771  -0.87165
 Alpha  occ. eigenvalues --   -0.86355  -0.82607  -0.79794  -0.78353  -0.77655
 Alpha  occ. eigenvalues --   -0.72215  -0.71375  -0.70655  -0.65474  -0.65194
 Alpha  occ. eigenvalues --   -0.64913  -0.62341  -0.61036  -0.59531  -0.57715
 Alpha  occ. eigenvalues --   -0.55573  -0.55426  -0.53217  -0.53058  -0.52811
 Alpha  occ. eigenvalues --   -0.52512  -0.50116  -0.48984  -0.48975  -0.48087
 Alpha  occ. eigenvalues --   -0.46870  -0.45935  -0.45712  -0.44859  -0.43895
 Alpha  occ. eigenvalues --   -0.37478  -0.36457
 Alpha virt. eigenvalues --    0.04843   0.10892   0.16275   0.19782   0.23334
 Alpha virt. eigenvalues --    0.23586   0.25459   0.26766   0.27703   0.28214
 Alpha virt. eigenvalues --    0.29241   0.30507   0.31257   0.31788   0.31993

 Mulliken charges:
               1
     1  C   -0.172132
     2  C   -0.217842
     3  C   -0.172677
     4  C    0.160259
     5  C   -0.172832
     6  C   -0.215953
     7  H    0.227086
     8  H    0.224866
     9  H    0.276771
    10  H    0.276210
    11  H    0.227798
    12  N    0.489400
    13  O   -0.459432
    14  O   -0.457999
    15  C   -0.304429
    16  C   -0.305059
    17  C   -0.476880
    18  H    0.147654
    19  H    0.156752
    20  H    0.152934
    21  H    0.156502
    22  H    0.151376
    23  H    0.152495
    24  H    0.166879
    25  C   -0.296876
    26  C   -0.302933
    27  C   -0.476162
    28  H    0.152905
    29  H    0.144103
    30  H    0.154766
    31  H    0.143302
    32  H    0.149071
    33  H    0.160556
    34  H    0.159521
 Sum of Mulliken charges =  -0.00000

 Dipole moment (field-independent basis, Debye):
    X=              2.7571    Y=             -3.3304    Z=             -2.7464  Tot=              5.1220
 Quadrupole moment (field-independent basis, Debye-Ang):
   XX=           -103.0916   YY=            -90.4848   ZZ=            -94.2970
   XY=              4.3964   XZ=              7.7102   YZ=              1.0232

 Normal termination of Gaussian 16 at Wed May  5 20:35:33 2021.
