 Gaussian 16, Revision A.03,
 Gaussian 16:  EM64L-G16RevA.03 25-Dec-2016

 -------------
 #p 6-31g* mp2
 -------------

 ------------------------------------------------------
 Input file generated by CHIRIPA (05-May-2021 14:55:19)
 ------------------------------------------------------
 Symbolic Z-matrix:
 Charge =  0 Multiplicity = 1

                         Standard orientation:
 ---------------------------------------------------------------------
 Center     Atomic      Atomic             Coordinates (Angstroms)
 Number     Number       Type             X           Y           Z
 ---------------------------------------------------------------------
      1          6           0       -4.856528    0.702419   -0.742105
      2          6           0       -4.722249   -0.682716   -0.601061
      3          6           0       -3.534238   -1.234826   -0.112845
      4          6           0       -2.496074   -0.368496    0.226237
      5          6           0       -2.599322    1.015681    0.097072
      6          6           0       -3.796505    1.545709   -0.393203
      7          1           0       -5.782966    1.122734   -1.122162
      8          1           0       -5.543815   -1.340044   -0.871232
      9          1           0       -3.403337   -2.303503    0.006371
     10          1           0       -1.762837    1.645465    0.374712
     11          1           0       -3.897964    2.621805   -0.501689
     12          7           0       -1.233525   -0.941302    0.744180
     13          8           0       -0.333680   -0.156558    1.035888
     14          8           0       -1.167690   -2.164164    0.848627
     15          6           0        2.919913    0.876448   -0.061825
     16          6           0        3.461745    2.305562   -0.016672
     17          6           0        2.366624    3.345742    0.221085
     18          1           0        2.163684    0.802709   -0.855313
     19          1           0        2.403793    0.657395    0.883179
     20          1           0        3.977888    2.521382   -0.960937
     21          1           0        4.216911    2.375859    0.776675
     22          1           0        1.857212    3.158368    1.171870
     23          1           0        1.616831    3.304717   -0.575614
     24          1           0        2.776032    4.360348    0.249738
     25          6           0        4.002729   -0.174776   -0.298813
     26          6           0        3.460897   -1.603890   -0.343966
     27          6           0        4.556018   -2.644071   -0.581723
     28          1           0        4.518849    0.044277   -1.243816
     29          1           0        4.758959   -0.101037    0.494676
     30          1           0        2.705731   -1.674187   -1.137312
     31          1           0        2.944755   -1.819710    0.600299
     32          1           0        5.305811   -2.603045    0.214976
     33          1           0        5.065430   -2.456696   -1.532508
     34          1           0        4.146610   -3.658675   -0.610377
 ---------------------------------------------------------------------

 SCF Done:  E(RHF) =  -669.535937407     A.U. after   15 cycles
 E2 =    -0.2091519136D+01 EUMP2 =    -0.67162745654323D+03

 The electronic state is 1-A.
 Alpha  occ. eigenvalues --  -20.60912 -20.60892 -15.85935 -11.31267 -11.27832
 Alpha  occ. eigenvalues --  -11.27823 -11.27572 -11.26842 -11.26830 -11.20728
 Alpha  occ. eigenvalues --  -11.20471 -11.20299 -11.20225 -11.20049 -11.19987
 Alpha  occ. eigenvalues --   -1.59966  -1.39522  -1.19437  -1.08840  -1.07287
 Alpha  occ. eigenvalues --   -1.04833  -1.02527  -0.95682  -0.94994  -0.86234
 Alpha  occ. eigenvalues --   -0.86027  -0.82518  -0.78568  -0.77578  -0.77014
 Alpha  occ. eigenvalues --   -0.72156  -0.71278  -0.70544  -0.65092  -0.64836
 Alpha  occ. eigenvalues --   -0.63927  -0.62179  -0.59941  -0.58366  -0.56581
 Alpha  occ. eigenvalues --   -0.55338  -0.54299  -0.53167  -0.52925  -0.51745
 Alpha  occ. eigenvalues --   -0.51425  -0.49006  -0.48916  -0.48897  -0.46894
 Alpha  occ. eigenvalues --   -0.45582  -0.45068  -0.44526  -0.44359  -0.42728
 Alpha  occ. eigenvalues --   -0.37417  -0.36436
 Alpha virt. eigenvalues --    0.04957   0.11218   0.16448   0.21234   0.23818
 Alpha virt. eigenvalues --    0.24964   0.27126   0.27755   0.27792   0.29034
 Alpha virt. eigenvalues --    0.29051   0.31083   0.32143   0.32388   0.32738

 Mulliken charges:
               1
     1  C   -0.170655
     2  C   -0.218630
     3  C   -0.170677
     4  C    0.157652
     5  C   -0.171468
     6  C   -0.218655
     7  H    0.225892
     8  H    0.223681
     9  H    0.275730
    10  H    0.276655
    11  H    0.223965
    12  N    0.491945
    13  O   -0.462832
    14  O   -0.459807
    15  C   -0.299962
    16  C   -0.299053
    17  C   -0.474211
    18  H    0.145749
    19  H    0.172224
    20  H    0.147205
    21  H    0.149693
    22  H    0.157451
    23  H    0.148799
    24  H    0.155709
    25  C   -0.298753
    26  C   -0.298694
    27  C   -0.475522
    28  H    0.143012
    29  H    0.145865
    30  H    0.150043
    31  H    0.165397
    32  H    0.152442
    33  H    0.150389
    34  H    0.159424
 Sum of Mulliken charges =  -0.00000

 Dipole moment (field-independent basis, Debye):
    X=             -4.7244    Y=              1.8903    Z=             -1.6598  Tot=              5.3524
 Quadrupole moment (field-independent basis, Debye-Ang):
   XX=            -74.0058   YY=            -93.5629   ZZ=            -95.5070
   XY=             -1.1174   XZ=              4.7209   YZ=              1.3218

 Normal termination of Gaussian 16 at Wed May  5 20:29:26 2021.
