 Gaussian 16, Revision A.03,
 Gaussian 16:  EM64L-G16RevA.03 25-Dec-2016

 -------------
 #p 6-31g* mp2
 -------------

 ------------------------------------------------------
 Input file generated by CHIRIPA (05-May-2021 14:57:25)
 ------------------------------------------------------
 Symbolic Z-matrix:
 Charge =  0 Multiplicity = 1

                         Standard orientation:
 ---------------------------------------------------------------------
 Center     Atomic      Atomic             Coordinates (Angstroms)
 Number     Number       Type             X           Y           Z
 ---------------------------------------------------------------------
      1          6           0        3.017661   -2.013624   -0.130449
      2          6           0        3.483229   -1.142940    0.860348
      3          6           0        3.158318    0.216261    0.820951
      4          6           0        2.362196    0.672837   -0.228343
      5          6           0        1.883029   -0.169642   -1.230300
      6          6           0        2.220453   -1.525057   -1.170777
      7          1           0        3.274920   -3.068013   -0.092028
      8          1           0        4.102522   -1.519575    1.669463
      9          1           0        3.505234    0.912378    1.574933
     10          1           0        1.267483    0.235234   -2.024402
     11          1           0        1.857471   -2.198928   -1.941612
     12          7           0        2.011604    2.109759   -0.280704
     13          8           0        1.308703    2.487158   -1.215657
     14          8           0        2.446348    2.831410    0.614200
     15          6           0       -0.767150   -2.326234    0.467010
     16          6           0       -0.818270   -1.310879    1.427721
     17          6           0       -1.730041   -0.258673    1.300896
     18          6           0       -2.579767   -0.253276    0.195805
     19          6           0       -2.552991   -1.250271   -0.778142
     20          6           0       -1.633146   -2.292748   -0.630919
     21          1           0       -0.055728   -3.139834    0.573455
     22          1           0       -0.146937   -1.334298    2.281422
     23          1           0       -1.790933    0.540287    2.029850
     24          1           0       -3.234964   -1.199670   -1.618244
     25          1           0       -1.595679   -3.079932   -1.378569
     26          7           0       -3.549291    0.855498    0.050745
     27          8           0       -4.287133    0.837242   -0.932054
     28          8           0       -3.553005    1.721816    0.922591
 ---------------------------------------------------------------------

 SCF Done:  E(RHF) =  -868.335678140     A.U. after   16 cycles
 E2 =    -0.2603889688D+01 EUMP2 =    -0.87093956782854D+03

 The electronic state is 1-A.
 Alpha  occ. eigenvalues --  -20.61111 -20.61093 -20.60622 -20.60599 -15.86164
 Alpha  occ. eigenvalues --  -15.85679 -11.31751 -11.31224 -11.28357 -11.28291
 Alpha  occ. eigenvalues --  -11.28177 -11.27891 -11.27819 -11.27687 -11.27461
 Alpha  occ. eigenvalues --  -11.27424 -11.26952 -11.26850  -1.60176  -1.59682
 Alpha  occ. eigenvalues --   -1.39723  -1.39233  -1.19963  -1.19445  -1.09338
 Alpha  occ. eigenvalues --   -1.08811  -1.05386  -1.04887  -0.96119  -0.95613
 Alpha  occ. eigenvalues --   -0.86788  -0.86278  -0.82939  -0.82445  -0.77936
 Alpha  occ. eigenvalues --   -0.77445  -0.72376  -0.71897  -0.71507  -0.71088
 Alpha  occ. eigenvalues --   -0.71002  -0.70594  -0.65611  -0.65414  -0.65100
 Alpha  occ. eigenvalues --   -0.64904  -0.62721  -0.62228  -0.55926  -0.55453
 Alpha  occ. eigenvalues --   -0.54165  -0.53486  -0.52994  -0.52753  -0.49153
 Alpha  occ. eigenvalues --   -0.49118  -0.48671  -0.48636  -0.45077  -0.44600
 Alpha  occ. eigenvalues --   -0.38259  -0.37681  -0.36526  -0.36379
 Alpha virt. eigenvalues --    0.04553   0.05105   0.10589   0.11138   0.15924
 Alpha virt. eigenvalues --    0.16627   0.20148   0.21599   0.26192   0.27005
 Alpha virt. eigenvalues --    0.27433   0.28731   0.29917   0.31139   0.31921

 Mulliken charges:
               1
     1  C   -0.178855
     2  C   -0.221079
     3  C   -0.174004
     4  C    0.160214
     5  C   -0.164111
     6  C   -0.216081
     7  H    0.223369
     8  H    0.223984
     9  H    0.277137
    10  H    0.278596
    11  H    0.220658
    12  N    0.487451
    13  O   -0.455594
    14  O   -0.459391
    15  C   -0.163111
    16  C   -0.217877
    17  C   -0.171100
    18  C    0.160175
    19  C   -0.171071
    20  C   -0.225181
    21  H    0.218422
    22  H    0.222398
    23  H    0.279097
    24  H    0.276036
    25  H    0.218491
    26  N    0.488992
    27  O   -0.460845
    28  O   -0.456721
 Sum of Mulliken charges =  -0.00000

 Dipole moment (field-independent basis, Debye):
    X=              4.6097    Y=             -8.6468    Z=              0.6812  Tot=              9.8225
 Quadrupole moment (field-independent basis, Debye-Ang):
   XX=           -116.0171   YY=           -110.3561   ZZ=            -97.9690
   XY=             -0.7070   XZ=              3.5018   YZ=              3.0895

 Normal termination of Gaussian 16 at Fri May  7 09:36:46 2021.
