 Gaussian 16, Revision A.03,
 Gaussian 16:  EM64L-G16RevA.03 25-Dec-2016

 -------------
 #p 6-31g* mp2
 -------------

 ------------------------------------------------------
 Input file generated by CHIRIPA (05-May-2021 14:53:18)
 ------------------------------------------------------
 Symbolic Z-matrix:
 Charge =  0 Multiplicity = 1

                         Standard orientation:
 ---------------------------------------------------------------------
 Center     Atomic      Atomic             Coordinates (Angstroms)
 Number     Number       Type             X           Y           Z
 ---------------------------------------------------------------------
      1          6           0       -3.053575   -0.113659    0.001512
      2          6           0       -2.035669   -0.974905   -0.746891
      3          6           0       -0.590036   -0.585466   -0.436609
      4          1           0       -2.892830    0.941661   -0.258117
      5          1           0       -2.873231   -0.200717    1.081925
      6          1           0       -2.218757   -0.887335   -1.825514
      7          1           0       -2.198980   -2.028315   -0.485598
      8          1           0       -0.384022   -0.690334    0.633513
      9          1           0       -0.403912    0.457129   -0.714015
     10          1           0        0.120929   -1.213787   -0.982138
     11          6           0       -4.503234   -0.490903   -0.298326
     12          6           0       -5.521139    0.370344    0.450077
     13          6           0       -6.966773   -0.019095    0.139795
     14          1           0       -4.683578   -0.403845   -1.378739
     15          1           0       -4.663979   -1.546222   -0.038698
     16          1           0       -5.357829    1.423753    0.188784
     17          1           0       -5.338051    0.282773    1.528699
     18          1           0       -7.152897   -1.061691    0.417201
     19          1           0       -7.172786    0.085772   -0.930328
     20          1           0       -7.677738    0.609226    0.685324
     21          6           0        2.036661    2.585257    0.015808
     22          6           0        2.665694    2.030765   -1.103735
     23          6           0        3.176520    0.730127   -1.059621
     24          6           0        3.040358    0.009054    0.125624
     25          6           0        2.418853    0.533722    1.257766
     26          6           0        1.915462    1.836287    1.190913
     27          1           0        1.642728    3.596373   -0.027294
     28          1           0        2.761244    2.610099   -2.017675
     29          1           0        3.668098    0.276338   -1.911586
     30          1           0        2.338619   -0.068295    2.154737
     31          1           0        1.427429    2.264343    2.061911
     32          7           0        3.577211   -1.368893    0.184362
     33          8           0        3.444575   -1.983469    1.240460
     34          8           0        4.120465   -1.808261   -0.826809
 ---------------------------------------------------------------------

 SCF Done:  E(RHF) =  -669.534751741     A.U. after   15 cycles
 E2 =    -0.2093166807D+01 EUMP2 =    -0.67162791854831D+03

 The electronic state is 1-A.
 Alpha  occ. eigenvalues --  -20.60751 -20.60746 -15.85802 -11.31143 -11.27729
 Alpha  occ. eigenvalues --  -11.27712 -11.27485 -11.26758 -11.26732 -11.21764
 Alpha  occ. eigenvalues --  -11.21608 -11.21539 -11.21479 -11.21203 -11.21009
 Alpha  occ. eigenvalues --   -1.59826  -1.39380  -1.19336  -1.08736  -1.08542
 Alpha  occ. eigenvalues --   -1.04742  -1.03610  -0.96066  -0.95570  -0.87086
 Alpha  occ. eigenvalues --   -0.86143  -0.82405  -0.79686  -0.78366  -0.77450
 Alpha  occ. eigenvalues --   -0.72024  -0.71147  -0.70459  -0.65175  -0.64994
 Alpha  occ. eigenvalues --   -0.64752  -0.62094  -0.61009  -0.59439  -0.57691
 Alpha  occ. eigenvalues --   -0.55366  -0.55251  -0.53531  -0.52841  -0.52660
 Alpha  occ. eigenvalues --   -0.52122  -0.50010  -0.48781  -0.48779  -0.47966
 Alpha  occ. eigenvalues --   -0.46720  -0.45889  -0.45836  -0.44786  -0.43879
 Alpha  occ. eigenvalues --   -0.37279  -0.36283
 Alpha virt. eigenvalues --    0.05068   0.11276   0.16551   0.21376   0.22744
 Alpha virt. eigenvalues --    0.24167   0.26468   0.27100   0.27463   0.27753
 Alpha virt. eigenvalues --    0.28367   0.30890   0.31242   0.31601   0.31760

 Mulliken charges:
               1
     1  C   -0.297493
     2  C   -0.301095
     3  C   -0.475275
     4  H    0.145893
     5  H    0.148091
     6  H    0.151008
     7  H    0.154453
     8  H    0.152477
     9  H    0.154632
    10  H    0.161482
    11  C   -0.298223
    12  C   -0.299437
    13  C   -0.475724
    14  H    0.149631
    15  H    0.151269
    16  H    0.150204
    17  H    0.151514
    18  H    0.156148
    19  H    0.155312
    20  H    0.160017
    21  C   -0.172122
    22  C   -0.217998
    23  C   -0.171294
    24  C    0.163442
    25  C   -0.169455
    26  C   -0.215602
    27  H    0.225359
    28  H    0.223211
    29  H    0.275379
    30  H    0.274960
    31  H    0.223252
    32  N    0.487585
    33  O   -0.460663
    34  O   -0.460937
 Sum of Mulliken charges =  -0.00000

 Dipole moment (field-independent basis, Debye):
    X=             -1.8430    Y=              4.8437    Z=             -0.2003  Tot=              5.1864
 Quadrupole moment (field-independent basis, Debye-Ang):
   XX=           -107.8950   YY=            -94.8720   ZZ=            -89.8287
   XY=             14.9454   XZ=             -2.6917   YZ=             -0.3748

 Normal termination of Gaussian 16 at Thu May  6 14:00:33 2021.
