 Gaussian 16, Revision A.03,
 Gaussian 16:  EM64L-G16RevA.03 25-Dec-2016

 -------------
 #p 6-31g* mp2
 -------------

 ------------------------------------------------------
 Input file generated by CHIRIPA (05-May-2021 14:57:22)
 ------------------------------------------------------
 Symbolic Z-matrix:
 Charge =  0 Multiplicity = 1

                         Standard orientation:
 ---------------------------------------------------------------------
 Center     Atomic      Atomic             Coordinates (Angstroms)
 Number     Number       Type             X           Y           Z
 ---------------------------------------------------------------------
      1          6           0       -1.506335    1.645993   -0.695394
      2          6           0       -1.249232    0.286104   -0.898182
      3          6           0       -2.232238   -0.670422   -0.627434
      4          6           0       -3.466723   -0.229855   -0.152844
      5          6           0       -3.753251    1.117790    0.059393
      6          6           0       -2.755322    2.056771   -0.218095
      7          1           0       -0.736916    2.382231   -0.908335
      8          1           0       -0.280169   -0.035806   -1.268771
      9          1           0       -2.059995   -1.729595   -0.775432
     10          1           0       -4.728920    1.408184    0.429744
     11          1           0       -2.957800    3.112208   -0.059663
     12          7           0       -4.515287   -1.233200    0.137352
     13          8           0       -5.594716   -0.819308    0.554681
     14          8           0       -4.237867   -2.414516   -0.058016
     15          6           0        1.615249    1.822231    0.877711
     16          6           0        2.178852    1.848682   -0.402200
     17          6           0        3.109942    0.879839   -0.788159
     18          6           0        3.456194   -0.105439    0.135219
     19          6           0        2.912245   -0.158582    1.417632
     20          6           0        1.983095    0.820450    1.781948
     21          1           0        0.892709    2.578808    1.169127
     22          1           0        1.895050    2.625492   -1.106520
     23          1           0        3.561781    0.876680   -1.772663
     24          1           0        3.214882   -0.945439    2.097841
     25          1           0        1.547019    0.797430    2.776611
     26          7           0        4.440870   -1.136503   -0.261923
     27          8           0        4.729263   -1.993986    0.570056
     28          8           0        4.905622   -1.067644   -1.397660
 ---------------------------------------------------------------------

 SCF Done:  E(RHF) =  -868.335551031     A.U. after   16 cycles
 E2 =    -0.2602998967D+01 EUMP2 =    -0.87093854999724D+03

 The electronic state is 1-A.
 Alpha  occ. eigenvalues --  -20.61490 -20.61480 -20.61136 -20.61125 -15.86553
 Alpha  occ. eigenvalues --  -15.86187 -11.32114 -11.31664 -11.28794 -11.28674
 Alpha  occ. eigenvalues --  -11.28525 -11.28245 -11.28165 -11.28060 -11.27862
 Alpha  occ. eigenvalues --  -11.27663 -11.27353 -11.27194  -1.60563  -1.60206
 Alpha  occ. eigenvalues --   -1.40109  -1.39756  -1.20345  -1.19846  -1.09724
 Alpha  occ. eigenvalues --   -1.09229  -1.05766  -1.05243  -0.96517  -0.96043
 Alpha  occ. eigenvalues --   -0.87168  -0.86642  -0.83314  -0.82873  -0.78317
 Alpha  occ. eigenvalues --   -0.77881  -0.72766  -0.72403  -0.71897  -0.71634
 Alpha  occ. eigenvalues --   -0.71532  -0.70878  -0.65984  -0.65773  -0.65495
 Alpha  occ. eigenvalues --   -0.65239  -0.63087  -0.62580  -0.56343  -0.55791
 Alpha  occ. eigenvalues --   -0.54230  -0.53834  -0.53501  -0.53248  -0.49538
 Alpha  occ. eigenvalues --   -0.49505  -0.49171  -0.49152  -0.45471  -0.45136
 Alpha  occ. eigenvalues --   -0.38715  -0.37521  -0.37385  -0.36762
 Alpha virt. eigenvalues --    0.04039   0.04768   0.10127   0.10773   0.15428
 Alpha virt. eigenvalues --    0.16270   0.18971   0.21914   0.25159   0.26557
 Alpha virt. eigenvalues --    0.27292   0.29286   0.29557   0.30703   0.32126

 Mulliken charges:
               1
     1  C   -0.173971
     2  C   -0.215989
     3  C   -0.172406
     4  C    0.159112
     5  C   -0.171247
     6  C   -0.220962
     7  H    0.215088
     8  H    0.229153
     9  H    0.278460
    10  H    0.276504
    11  H    0.221943
    12  N    0.487784
    13  O   -0.459811
    14  O   -0.458144
    15  C   -0.166114
    16  C   -0.230519
    17  C   -0.173466
    18  C    0.157395
    19  C   -0.169583
    20  C   -0.217880
    21  H    0.225117
    22  H    0.220105
    23  H    0.278331
    24  H    0.279998
    25  H    0.228822
    26  N    0.488001
    27  O   -0.456792
    28  O   -0.458929
 Sum of Mulliken charges =  -0.00000

 Dipole moment (field-independent basis, Debye):
    X=              0.3779    Y=              6.9117    Z=              0.5395  Tot=              6.9430
 Quadrupole moment (field-independent basis, Debye-Ang):
   XX=           -152.8859   YY=           -104.8483   ZZ=           -100.2943
   XY=             -2.6109   XZ=              6.2392   YZ=             -0.8050

 Normal termination of Gaussian 16 at Thu May  6 22:39:18 2021.
