 Gaussian 16, Revision A.03,
 Gaussian 16:  EM64L-G16RevA.03 25-Dec-2016

 -------------
 #p 6-31g* mp2
 -------------

 ------------------------------------------------------
 Input file generated by CHIRIPA (05-May-2021 14:51:12)
 ------------------------------------------------------
 Symbolic Z-matrix:
 Charge =  0 Multiplicity = 1

                         Standard orientation:
 ---------------------------------------------------------------------
 Center     Atomic      Atomic             Coordinates (Angstroms)
 Number     Number       Type             X           Y           Z
 ---------------------------------------------------------------------
      1          6           0       -3.457856   -0.050039    0.174542
      2          6           0       -4.948874   -0.145444   -0.150646
      3          6           0       -5.726180    1.103065    0.267461
      4          1           0       -3.334287    0.116373    1.253423
      5          1           0       -3.035740    0.831235   -0.328021
      6          1           0       -5.367757   -1.027058    0.351261
      7          1           0       -5.068902   -0.311839   -1.228849
      8          1           0       -5.335547    1.989111   -0.243352
      9          1           0       -5.636100    1.269828    1.345736
     10          1           0       -6.789848    1.013449    0.025720
     11          6           0       -2.667349   -1.290628   -0.237483
     12          6           0       -1.176331   -1.195223    0.087705
     13          6           0       -0.399025   -2.443732   -0.330402
     14          1           0       -3.089465   -2.171902    0.265080
     15          1           0       -2.790918   -1.457039   -1.316364
     16          1           0       -1.056303   -1.028828    1.165909
     17          1           0       -0.757448   -0.313609   -0.414201
     18          1           0       -0.489105   -2.610495   -1.408677
     19          1           0       -0.789658   -3.329778    0.180411
     20          1           0        0.664643   -2.354115   -0.088661
     21          6           0        2.620495    1.215115    0.333439
     22          6           0        2.461369    2.437561   -0.571156
     23          6           0        1.574180    3.518721    0.046728
     24          1           0        1.628373    0.796796    0.551724
     25          1           0        3.044498    1.532729    1.296112
     26          1           0        2.039080    2.117531   -1.532337
     27          1           0        3.453999    2.852906   -0.787468
     28          1           0        1.994743    3.866155    0.995949
     29          1           0        0.571785    3.126601    0.246847
     30          1           0        1.474016    4.383423   -0.616685
     31          6           0        3.504709    0.125551   -0.270498
     32          6           0        3.663835   -1.096894    0.634096
     33          6           0        4.551025   -2.178055    0.016212
     34          1           0        3.080706   -0.192063   -1.233171
     35          1           0        4.496832    0.543871   -0.488783
     36          1           0        2.671206   -1.512239    0.850409
     37          1           0        4.086124   -0.776864    1.595278
     38          1           0        5.553420   -1.785935   -0.183906
     39          1           0        4.130462   -2.525487   -0.933007
     40          1           0        4.651189   -3.042757    0.679626
 ---------------------------------------------------------------------

 SCF Done:  E(RHF) =  -470.733276553     A.U. after   11 cycles
 E2 =    -0.1583415913D+01 EUMP2 =    -0.47231669246561D+03

 The electronic state is 1-A.
 Alpha  occ. eigenvalues --  -11.21693 -11.21634 -11.21594 -11.21591 -11.21461
 Alpha  occ. eigenvalues --  -11.21399 -11.21381 -11.21315 -11.21135 -11.21092
 Alpha  occ. eigenvalues --  -11.21066 -11.21062  -1.08493  -1.08412  -1.03591
 Alpha  occ. eigenvalues --   -1.03521  -0.96034  -0.95967  -0.87060  -0.86975
 Alpha  occ. eigenvalues --   -0.79677  -0.79563  -0.78324  -0.78206  -0.65155
 Alpha  occ. eigenvalues --   -0.65043  -0.61005  -0.60945  -0.59417  -0.59303
 Alpha  occ. eigenvalues --   -0.57641  -0.57578  -0.55326  -0.55245  -0.52758
 Alpha  occ. eigenvalues --   -0.52656  -0.52477  -0.52373  -0.49979  -0.49905
 Alpha  occ. eigenvalues --   -0.48070  -0.47811  -0.46704  -0.46595  -0.45924
 Alpha  occ. eigenvalues --   -0.45782  -0.45736  -0.45573  -0.43819  -0.43768
 Alpha virt. eigenvalues --    0.19828   0.22937   0.23407   0.24741   0.26011
 Alpha virt. eigenvalues --    0.26618   0.27209   0.27552   0.27990   0.29429
 Alpha virt. eigenvalues --    0.30120   0.31413   0.31712   0.31853   0.32288

 Mulliken charges:
               1
     1  C   -0.298403
     2  C   -0.299695
     3  C   -0.475774
     4  H    0.149874
     5  H    0.149342
     6  H    0.152044
     7  H    0.152012
     8  H    0.155315
     9  H    0.155297
    10  H    0.160378
    11  C   -0.298341
    12  C   -0.301473
    13  C   -0.483553
    14  H    0.149927
    15  H    0.149852
    16  H    0.152416
    17  H    0.152880
    18  H    0.155408
    19  H    0.155907
    20  H    0.167027
    21  C   -0.303425
    22  C   -0.299481
    23  C   -0.475907
    24  H    0.155324
    25  H    0.149356
    26  H    0.151376
    27  H    0.151932
    28  H    0.155281
    29  H    0.155349
    30  H    0.160060
    31  C   -0.298114
    32  C   -0.306020
    33  C   -0.475938
    34  H    0.149645
    35  H    0.149731
    36  H    0.156775
    37  H    0.152384
    38  H    0.155374
    39  H    0.155561
    40  H    0.160298
 Sum of Mulliken charges =  -0.00000

 Dipole moment (field-independent basis, Debye):
    X=             -0.0228    Y=             -0.0136    Z=              0.0085  Tot=              0.0279
 Quadrupole moment (field-independent basis, Debye-Ang):
   XX=            -84.9111   YY=            -85.8883   ZZ=            -83.8964
   XY=              1.5428   XZ=              0.5610   YZ=             -0.6707

 Normal termination of Gaussian 16 at Wed May  5 19:55:05 2021.
