 Gaussian 16, Revision A.03,
 Gaussian 16:  EM64L-G16RevA.03 25-Dec-2016

 -------------
 #p 6-31g* mp2
 -------------

 ------------------------------------------------------
 Input file generated by CHIRIPA (05-May-2021 14:51:14)
 ------------------------------------------------------
 Symbolic Z-matrix:
 Charge =  0 Multiplicity = 1

                         Standard orientation:
 ---------------------------------------------------------------------
 Center     Atomic      Atomic             Coordinates (Angstroms)
 Number     Number       Type             X           Y           Z
 ---------------------------------------------------------------------
      1          6           0        3.191086    0.385228   -0.460505
      2          6           0        3.018087   -1.130309   -0.566348
      3          6           0        4.242881   -1.824919   -1.162328
      4          1           0        3.397200    0.794960   -1.458795
      5          1           0        4.074076    0.604328    0.155708
      6          1           0        2.134883   -1.346473   -1.181035
      7          1           0        2.812172   -1.536458    0.432280
      8          1           0        5.128949   -1.638558   -0.546899
      9          1           0        4.447813   -1.447495   -2.169381
     10          1           0        4.097632   -2.907664   -1.228855
     11          6           0        1.974991    1.093776    0.133464
     12          6           0        2.147990    2.609314    0.239307
     13          6           0        0.923196    3.303923    0.835287
     14          1           0        1.092001    0.874676   -0.482749
     15          1           0        1.768877    0.684044    1.131754
     16          1           0        2.353905    3.015462   -0.759321
     17          1           0        3.031194    2.825478    0.853994
     18          1           0        0.718264    2.926499    1.842340
     19          1           0        0.037127    3.117563    0.219858
     20          1           0        1.068445    4.386668    0.901814
     21          6           0       -1.995612   -0.788802    0.649248
     22          6           0       -1.288954   -2.144209    0.610600
     23          6           0       -0.115973   -2.227410    1.587834
     24          1           0       -1.269139    0.002964    0.420583
     25          1           0       -2.353831   -0.598878    1.670524
     26          1           0       -0.933388   -2.332142   -0.410610
     27          1           0       -2.017236   -2.932857    0.839196
     28          1           0       -0.458187   -2.065589    2.615115
     29          1           0        0.631819   -1.461461    1.358207
     30          1           0        0.374785   -3.204686    1.543702
     31          6           0       -3.170465   -0.690202   -0.322207
     32          6           0       -3.877122    0.665205   -0.283558
     33          6           0       -5.050103    0.748405   -1.260793
     34          1           0       -2.812246   -0.880127   -1.343482
     35          1           0       -3.896938   -1.481968   -0.093542
     36          1           0       -3.148841    1.453852   -0.512154
     37          1           0       -4.232689    0.853138    0.737651
     38          1           0       -5.797897   -0.017544   -1.031166
     39          1           0       -4.707890    0.586584   -2.288074
     40          1           0       -5.540862    1.725681   -1.216661
 ---------------------------------------------------------------------

 SCF Done:  E(RHF) =  -470.732172869     A.U. after   11 cycles
 E2 =    -0.1584894514D+01 EUMP2 =    -0.47231706738302D+03

 The electronic state is 1-A.
 Alpha  occ. eigenvalues --  -11.21672 -11.21607 -11.21581 -11.21519 -11.21490
 Alpha  occ. eigenvalues --  -11.21419 -11.21349 -11.21267 -11.21125 -11.21088
 Alpha  occ. eigenvalues --  -11.21056 -11.20883  -1.08523  -1.08359  -1.03585
 Alpha  occ. eigenvalues --   -1.03462  -0.96036  -0.95916  -0.87058  -0.86931
 Alpha  occ. eigenvalues --   -0.79665  -0.79552  -0.78439  -0.78077  -0.65151
 Alpha  occ. eigenvalues --   -0.65004  -0.60994  -0.60869  -0.59421  -0.59275
 Alpha  occ. eigenvalues --   -0.57686  -0.57488  -0.55355  -0.55197  -0.52734
 Alpha  occ. eigenvalues --   -0.52616  -0.52457  -0.52338  -0.49978  -0.49926
 Alpha  occ. eigenvalues --   -0.47944  -0.47909  -0.46867  -0.46606  -0.46137
 Alpha  occ. eigenvalues --   -0.45696  -0.45661  -0.45072  -0.43837  -0.43719
 Alpha virt. eigenvalues --    0.20602   0.22808   0.23511   0.24114   0.25325
 Alpha virt. eigenvalues --    0.25975   0.27013   0.27708   0.28754   0.29765
 Alpha virt. eigenvalues --    0.31172   0.31226   0.31416   0.31819   0.32140

 Mulliken charges:
               1
     1  C   -0.297876
     2  C   -0.304200
     3  C   -0.475307
     4  H    0.149641
     5  H    0.149763
     6  H    0.152025
     7  H    0.157048
     8  H    0.155212
     9  H    0.154931
    10  H    0.160487
    11  C   -0.305509
    12  C   -0.299168
    13  C   -0.476470
    14  H    0.151953
    15  H    0.153051
    16  H    0.152082
    17  H    0.152370
    18  H    0.156082
    19  H    0.155063
    20  H    0.160708
    21  C   -0.304112
    22  C   -0.298870
    23  C   -0.484906
    24  H    0.155441
    25  H    0.149182
    26  H    0.151161
    27  H    0.151408
    28  H    0.153345
    29  H    0.167725
    30  H    0.158791
    31  C   -0.298072
    32  C   -0.299513
    33  C   -0.475662
    34  H    0.148735
    35  H    0.149618
    36  H    0.151264
    37  H    0.152195
    38  H    0.155240
    39  H    0.154928
    40  H    0.160216
 Sum of Mulliken charges =  -0.00000

 Dipole moment (field-independent basis, Debye):
    X=              0.0675    Y=              0.0392    Z=              0.0101  Tot=              0.0787
 Quadrupole moment (field-independent basis, Debye-Ang):
   XX=            -85.6381   YY=            -85.1845   ZZ=            -84.0212
   XY=              0.8505   XZ=             -0.2726   YZ=             -0.4126

 Normal termination of Gaussian 16 at Wed May  5 16:55:17 2021.
