 Gaussian 16, Revision A.03,
 Gaussian 16:  EM64L-G16RevA.03 25-Dec-2016

 -------------
 #p 6-31g* mp2
 -------------

 ------------------------------------------------------
 Input file generated by CHIRIPA (05-May-2021 14:57:25)
 ------------------------------------------------------
 Symbolic Z-matrix:
 Charge =  0 Multiplicity = 1

                         Standard orientation:
 ---------------------------------------------------------------------
 Center     Atomic      Atomic             Coordinates (Angstroms)
 Number     Number       Type             X           Y           Z
 ---------------------------------------------------------------------
      1          6           0        0.786695    0.161373   -1.020491
      2          6           0        1.116027   -0.987545   -0.293822
      3          6           0        2.422973   -1.190889    0.159050
      4          6           0        3.379882   -0.220456   -0.133993
      5          6           0        3.082840    0.934612   -0.855709
      6          6           0        1.769420    1.117100   -1.298625
      7          1           0       -0.231086    0.311235   -1.368426
      8          1           0        0.354884   -1.731461   -0.076347
      9          1           0        2.705354   -2.071191    0.723627
     10          1           0        3.863225    1.658429   -1.056972
     11          1           0        1.516532    2.010325   -1.862754
     12          7           0        4.766914   -0.424687    0.340172
     13          8           0        5.591683    0.445254    0.068891
     14          8           0        5.003036   -1.450838    0.974126
     15          6           0       -1.889673    2.214019    1.027391
     16          6           0       -2.293282    1.229050    1.934837
     17          6           0       -2.992853    0.101610    1.494352
     18          6           0       -3.273250   -0.009188    0.133326
     19          6           0       -2.884610    0.955060   -0.795368
     20          6           0       -2.186102    2.074126   -0.332418
     21          1           0       -1.346642    3.086590    1.378297
     22          1           0       -2.064453    1.335049    2.991457
     23          1           0       -3.317215   -0.676010    2.175173
     24          1           0       -3.127281    0.821542   -1.842604
     25          1           0       -1.873901    2.837485   -1.039426
     26          7           0       -4.013292   -1.198326   -0.344886
     27          8           0       -4.248028   -1.272423   -1.549066
     28          8           0       -4.344588   -2.033760    0.493523
 ---------------------------------------------------------------------

 SCF Done:  E(RHF) =  -868.336281684     A.U. after   16 cycles
 E2 =    -0.2602610380D+01 EUMP2 =    -0.87093889206364D+03

 The electronic state is 1-A.
 Alpha  occ. eigenvalues --  -20.61784 -20.61774 -20.60917 -20.60908 -15.86841
 Alpha  occ. eigenvalues --  -15.85972 -11.32368 -11.31320 -11.28922 -11.28858
 Alpha  occ. eigenvalues --  -11.28572 -11.27958 -11.27955 -11.27893 -11.27843
 Alpha  occ. eigenvalues --  -11.27508 -11.26955 -11.26826  -1.60862  -1.59994
 Alpha  occ. eigenvalues --   -1.40408  -1.39547  -1.20534  -1.19505  -1.09863
 Alpha  occ. eigenvalues --   -1.08887  -1.05950  -1.04918  -0.96679  -0.95724
 Alpha  occ. eigenvalues --   -0.87303  -0.86309  -0.83509  -0.82566  -0.78553
 Alpha  occ. eigenvalues --   -0.77625  -0.73039  -0.72217  -0.72185  -0.71545
 Alpha  occ. eigenvalues --   -0.71321  -0.70628  -0.66143  -0.65895  -0.65149
 Alpha  occ. eigenvalues --   -0.64937  -0.63256  -0.62273  -0.56339  -0.55796
 Alpha  occ. eigenvalues --   -0.53987  -0.53948  -0.53147  -0.53004  -0.49815
 Alpha  occ. eigenvalues --   -0.49796  -0.48947  -0.48943  -0.45776  -0.44957
 Alpha  occ. eigenvalues --   -0.38580  -0.37673  -0.37179  -0.36536
 Alpha virt. eigenvalues --    0.03936   0.04923   0.09969   0.11141   0.15370
 Alpha virt. eigenvalues --    0.16429   0.19995   0.21668   0.25754   0.26911
 Alpha virt. eigenvalues --    0.27497   0.28970   0.29972   0.30875   0.32064

 Mulliken charges:
               1
     1  C   -0.166277
     2  C   -0.223648
     3  C   -0.170912
     4  C    0.157100
     5  C   -0.170863
     6  C   -0.225239
     7  H    0.231192
     8  H    0.226128
     9  H    0.276387
    10  H    0.274572
    11  H    0.217041
    12  N    0.488042
    13  O   -0.461287
    14  O   -0.459903
    15  C   -0.165672
    16  C   -0.216126
    17  C   -0.172461
    18  C    0.160526
    19  C   -0.189336
    20  C   -0.222069
    21  H    0.230898
    22  H    0.229429
    23  H    0.279258
    24  H    0.277550
    25  H    0.224188
    26  N    0.487193
    27  O   -0.458888
    28  O   -0.456823
 Sum of Mulliken charges =  -0.00000

 Dipole moment (field-independent basis, Debye):
    X=             -2.5479    Y=              4.9056    Z=              0.2732  Tot=              5.5346
 Quadrupole moment (field-independent basis, Debye-Ang):
   XX=           -155.9043   YY=           -101.3409   ZZ=            -99.1591
   XY=             -9.0042   XZ=            -11.4311   YZ=             -2.8240

 Normal termination of Gaussian 16 at Wed May  5 17:58:22 2021.
