 Gaussian 16, Revision A.03,
 Gaussian 16:  EM64L-G16RevA.03 25-Dec-2016

 -------------
 #p 6-31g* mp2
 -------------

 ------------------------------------------------------
 Input file generated by CHIRIPA (05-May-2021 14:53:13)
 ------------------------------------------------------
 Symbolic Z-matrix:
 Charge =  0 Multiplicity = 1

                         Standard orientation:
 ---------------------------------------------------------------------
 Center     Atomic      Atomic             Coordinates (Angstroms)
 Number     Number       Type             X           Y           Z
 ---------------------------------------------------------------------
      1          6           0       -2.902400   -0.487010   -0.517561
      2          6           0       -2.199483   -1.825479   -0.288667
      3          6           0       -0.794705   -1.866059   -0.890950
      4          1           0       -2.958777   -0.289546   -1.596808
      5          1           0       -2.293131    0.318058   -0.083912
      6          1           0       -2.810572   -2.627928   -0.721403
      7          1           0       -2.144944   -2.019869    0.790154
      8          1           0       -0.164598   -1.085846   -0.451821
      9          1           0       -0.834008   -1.697360   -1.971966
     10          1           0       -0.310496   -2.831813   -0.715679
     11          6           0       -4.307743   -0.430997    0.078763
     12          6           0       -5.010661    0.907472   -0.150131
     13          6           0       -6.415439    0.948052    0.452152
     14          1           0       -4.917013   -1.236065   -0.354886
     15          1           0       -4.251367   -0.628460    1.158010
     16          1           0       -5.065200    1.101863   -1.228952
     17          1           0       -4.399571    1.709922    0.282605
     18          1           0       -6.376136    0.779353    1.533168
     19          1           0       -7.045546    0.167839    0.013023
     20          1           0       -6.899648    1.913807    0.276881
     21          6           0        3.446453   -2.069551    0.441841
     22          6           0        2.380457   -1.537164    1.174464
     23          6           0        2.022556   -0.193164    1.032622
     24          6           0        2.755558    0.593340    0.145261
     25          6           0        3.822645    0.092188   -0.598688
     26          6           0        4.162882   -1.254613   -0.440841
     27          1           0        3.717618   -3.114690    0.558243
     28          1           0        1.822293   -2.167703    1.860698
     29          1           0        1.201717    0.244825    1.587425
     30          1           0        4.360334    0.745532   -1.275038
     31          1           0        4.991213   -1.665364   -1.011102
     32          7           0        2.386014    2.017656   -0.013372
     33          8           0        3.047590    2.689636   -0.801659
     34          8           0        1.441787    2.435084    0.653582
 ---------------------------------------------------------------------

 SCF Done:  E(RHF) =  -669.534504077     A.U. after   15 cycles
 E2 =    -0.2092646922D+01 EUMP2 =    -0.67162715099846D+03

 The electronic state is 1-A.
 Alpha  occ. eigenvalues --  -20.60809 -20.60802 -15.85862 -11.31229 -11.27779
 Alpha  occ. eigenvalues --  -11.27774 -11.27516 -11.26802 -11.26790 -11.21729
 Alpha  occ. eigenvalues --  -11.21426 -11.21337 -11.21278 -11.21142 -11.20925
 Alpha  occ. eigenvalues --   -1.59883  -1.39437  -1.19401  -1.08788  -1.08390
 Alpha  occ. eigenvalues --   -1.04813  -1.03508  -0.95960  -0.95625  -0.86977
 Alpha  occ. eigenvalues --   -0.86200  -0.82460  -0.79575  -0.78183  -0.77508
 Alpha  occ. eigenvalues --   -0.72080  -0.71207  -0.70508  -0.65070  -0.65012
 Alpha  occ. eigenvalues --   -0.64802  -0.62162  -0.60924  -0.59336  -0.57570
 Alpha  occ. eigenvalues --   -0.55351  -0.55281  -0.53248  -0.52901  -0.52599
 Alpha  occ. eigenvalues --   -0.52299  -0.49862  -0.48838  -0.48834  -0.47885
 Alpha  occ. eigenvalues --   -0.46610  -0.45732  -0.45642  -0.44837  -0.43759
 Alpha  occ. eigenvalues --   -0.37368  -0.36296
 Alpha virt. eigenvalues --    0.05012   0.11151   0.16499   0.20950   0.22966
 Alpha virt. eigenvalues --    0.24260   0.26453   0.27327   0.27458   0.28305
 Alpha virt. eigenvalues --    0.28576   0.30530   0.31461   0.31587   0.32025

 Mulliken charges:
               1
     1  C   -0.300003
     2  C   -0.299466
     3  C   -0.478825
     4  H    0.151277
     5  H    0.154659
     6  H    0.151711
     7  H    0.145894
     8  H    0.160380
     9  H    0.156854
    10  H    0.153124
    11  C   -0.298021
    12  C   -0.300441
    13  C   -0.475739
    14  H    0.148445
    15  H    0.147997
    16  H    0.152574
    17  H    0.155835
    18  H    0.154556
    19  H    0.154101
    20  H    0.161160
    21  C   -0.171445
    22  C   -0.210954
    23  C   -0.177706
    24  C    0.161359
    25  C   -0.171236
    26  C   -0.217721
    27  H    0.225701
    28  H    0.224083
    29  H    0.275422
    30  H    0.275694
    31  H    0.223639
    32  N    0.488320
    33  O   -0.459940
    34  O   -0.461292
 Sum of Mulliken charges =  -0.00000

 Dipole moment (field-independent basis, Debye):
    X=              1.3685    Y=             -4.9438    Z=              0.5327  Tot=              5.1573
 Quadrupole moment (field-independent basis, Debye-Ang):
   XX=            -86.0458   YY=           -101.4315   ZZ=            -92.2096
   XY=            -12.7896   XZ=             -0.3188   YZ=             -0.6648

 Normal termination of Gaussian 16 at Wed May  5 23:24:00 2021.
