 Gaussian 16, Revision A.03,
 Gaussian 16:  EM64L-G16RevA.03 25-Dec-2016

 -------------
 #p 6-31g* mp2
 -------------

 ------------------------------------------------------
 Input file generated by CHIRIPA (05-May-2021 14:53:17)
 ------------------------------------------------------
 Symbolic Z-matrix:
 Charge =  0 Multiplicity = 1

                         Standard orientation:
 ---------------------------------------------------------------------
 Center     Atomic      Atomic             Coordinates (Angstroms)
 Number     Number       Type             X           Y           Z
 ---------------------------------------------------------------------
      1          6           0       -3.805744   -0.017919   -0.185920
      2          6           0       -3.423426   -1.487964   -0.361380
      3          6           0       -4.600899   -2.355973   -0.806251
      4          1           0       -4.617701    0.057839    0.550240
      5          1           0       -4.207050    0.365083   -1.134423
      6          1           0       -3.021673   -1.867697    0.586784
      7          1           0       -2.612154   -1.560214   -1.097066
      8          1           0       -4.998547   -2.004389   -1.763782
      9          1           0       -5.410393   -2.313619   -0.070365
     10          1           0       -4.305299   -3.402991   -0.925553
     11          6           0       -2.639159    0.862552    0.258578
     12          6           0       -3.021478    2.332596    0.434038
     13          6           0       -1.844004    3.200606    0.878909
     14          1           0       -2.237853    0.479550    1.207081
     15          1           0       -1.827202    0.786794   -0.477582
     16          1           0       -3.832750    2.404846    1.169724
     17          1           0       -3.423231    2.712329   -0.514126
     18          1           0       -1.034511    3.158252    0.143023
     19          1           0       -1.446356    2.849022    1.836440
     20          1           0       -2.139605    4.247624    0.998211
     21          6           0        1.664321   -2.581321    0.726069
     22          6           0        3.040589   -2.350139    0.631411
     23          6           0        3.524638   -1.106578    0.214518
     24          6           0        2.600026   -0.112279   -0.101319
     25          6           0        1.222949   -0.311900   -0.017068
     26          6           0        0.761484   -1.563259    0.402098
     27          1           0        1.297072   -3.550378    1.050804
     28          1           0        3.744065   -3.138928    0.882370
     29          1           0        4.584922   -0.900506    0.132362
     30          1           0        0.546144    0.493915   -0.274002
     31          1           0       -0.307887   -1.739958    0.474680
     32          7           0        3.100513    1.208352   -0.543869
     33          8           0        2.265283    2.067856   -0.816410
     34          8           0        4.318547    1.358949   -0.609820
 ---------------------------------------------------------------------

 SCF Done:  E(RHF) =  -669.535677961     A.U. after   15 cycles
 E2 =    -0.2092943412D+01 EUMP2 =    -0.67162862137366D+03

 The electronic state is 1-A.
 Alpha  occ. eigenvalues --  -20.60715 -20.60709 -15.85760 -11.31065 -11.27647
 Alpha  occ. eigenvalues --  -11.27577 -11.27371 -11.26660 -11.26564 -11.22552
 Alpha  occ. eigenvalues --  -11.22164 -11.22072 -11.21912 -11.21790 -11.21046
 Alpha  occ. eigenvalues --   -1.59785  -1.39340  -1.19235  -1.09110  -1.08644
 Alpha  occ. eigenvalues --   -1.04625  -1.04073  -0.96483  -0.95489  -0.87503
 Alpha  occ. eigenvalues --   -0.86030  -0.82327  -0.80181  -0.79000  -0.77335
 Alpha  occ. eigenvalues --   -0.71981  -0.71104  -0.70359  -0.65740  -0.64886
 Alpha  occ. eigenvalues --   -0.64627  -0.61999  -0.61437  -0.59903  -0.58110
 Alpha  occ. eigenvalues --   -0.55745  -0.55147  -0.53173  -0.52986  -0.52946
 Alpha  occ. eigenvalues --   -0.52650  -0.50423  -0.48742  -0.48734  -0.48436
 Alpha  occ. eigenvalues --   -0.47209  -0.46420  -0.46360  -0.44756  -0.44356
 Alpha  occ. eigenvalues --   -0.37226  -0.36225
 Alpha virt. eigenvalues --    0.05137   0.11403   0.16601   0.19848   0.22746
 Alpha virt. eigenvalues --    0.22862   0.24870   0.25244   0.27186   0.28421
 Alpha virt. eigenvalues --    0.29658   0.30547   0.31356   0.31521   0.32342

 Mulliken charges:
               1
     1  C   -0.296586
     2  C   -0.306437
     3  C   -0.475116
     4  H    0.153060
     5  H    0.154185
     6  H    0.146542
     7  H    0.151432
     8  H    0.159125
     9  H    0.157820
    10  H    0.160193
    11  C   -0.307232
    12  C   -0.299655
    13  C   -0.482084
    14  H    0.147611
    15  H    0.147238
    16  H    0.152830
    17  H    0.154910
    18  H    0.168002
    19  H    0.154182
    20  H    0.163460
    21  C   -0.172138
    22  C   -0.218800
    23  C   -0.170716
    24  C    0.159852
    25  C   -0.181028
    26  C   -0.228678
    27  H    0.225312
    28  H    0.222813
    29  H    0.275025
    30  H    0.284557
    31  H    0.234518
    32  N    0.488197
    33  O   -0.461894
    34  O   -0.460501
 Sum of Mulliken charges =  -0.00000

 Dipole moment (field-independent basis, Debye):
    X=             -1.9865    Y=             -4.5050    Z=              1.5203  Tot=              5.1529
 Quadrupole moment (field-independent basis, Debye-Ang):
   XX=            -99.3099   YY=            -93.8217   ZZ=            -95.0388
   XY=            -14.3999   XZ=              4.5152   YZ=             -0.2894

 Normal termination of Gaussian 16 at Wed May  5 18:46:17 2021.
