 Gaussian 16, Revision A.03,
 Gaussian 16:  EM64L-G16RevA.03 25-Dec-2016

 -------------
 #p 6-31g* mp2
 -------------

 ------------------------------------------------------
 Input file generated by CHIRIPA (05-May-2021 14:55:22)
 ------------------------------------------------------
 Symbolic Z-matrix:
 Charge =  0 Multiplicity = 1

                         Standard orientation:
 ---------------------------------------------------------------------
 Center     Atomic      Atomic             Coordinates (Angstroms)
 Number     Number       Type             X           Y           Z
 ---------------------------------------------------------------------
      1          6           0        6.124626   -0.919893   -0.736816
      2          6           0        5.965977    0.468407   -0.799868
      3          6           0        4.759242    1.063138   -0.419560
      4          6           0        3.727405    0.235737    0.020905
      5          6           0        3.854759   -1.150476    0.094971
      6          6           0        5.070369   -1.723487   -0.290385
      7          1           0        7.065494   -1.373457   -1.034209
      8          1           0        6.783012    1.094964   -1.146172
      9          1           0        4.609322    2.135252   -0.458451
     10          1           0        3.022225   -1.748979    0.444398
     11          1           0        5.190737   -2.801937   -0.240378
     12          7           0        2.445190    0.853854    0.426192
     13          8           0        1.551400    0.102895    0.810685
     14          8           0        2.358261    2.077590    0.351688
     15          6           0       -4.456335   -0.617523    0.263322
     16          6           0       -3.236572    0.166699    0.748256
     17          6           0       -2.074025   -0.739768    1.153958
     18          1           0       -4.783444   -1.302438    1.057573
     19          1           0       -4.164461   -1.245170   -0.590062
     20          1           0       -3.530984    0.793722    1.599596
     21          1           0       -2.912446    0.849964   -0.047173
     22          1           0       -1.752323   -1.355645    0.307905
     23          1           0       -2.374375   -1.412207    1.964031
     24          1           0       -1.212612   -0.158478    1.497364
     25          6           0       -5.626812    0.274832   -0.145842
     26          6           0       -6.846574   -0.509390   -0.630776
     27          6           0       -8.009122    0.397078   -1.036478
     28          1           0       -5.918686    0.902480    0.707542
     29          1           0       -5.299703    0.959747   -0.940093
     30          1           0       -7.170701   -1.192654    0.164652
     31          1           0       -6.552162   -1.136412   -1.482116
     32          1           0       -7.708772    1.069515   -1.846551
     33          1           0       -8.330824    1.012954   -0.190425
     34          1           0       -8.870535   -0.184212   -1.379883
 ---------------------------------------------------------------------

 SCF Done:  E(RHF) =  -669.536042226     A.U. after   15 cycles
 E2 =    -0.2090631759D+01 EUMP2 =    -0.67162667398533D+03

 The electronic state is 1-A.
 Alpha  occ. eigenvalues --  -20.60923 -20.60908 -15.85953 -11.31277 -11.27842
 Alpha  occ. eigenvalues --  -11.27836 -11.27581 -11.26850 -11.26840 -11.21033
 Alpha  occ. eigenvalues --  -11.20660 -11.20592 -11.20490 -11.20387 -11.19475
 Alpha  occ. eigenvalues --   -1.59983  -1.39538  -1.19447  -1.08851  -1.07591
 Alpha  occ. eigenvalues --   -1.04843  -1.02602  -0.95695  -0.95033  -0.86244
 Alpha  occ. eigenvalues --   -0.86052  -0.82525  -0.78703  -0.77576  -0.77373
 Alpha  occ. eigenvalues --   -0.72179  -0.71297  -0.70555  -0.65102  -0.64846
 Alpha  occ. eigenvalues --   -0.64235  -0.62190  -0.60015  -0.58439  -0.56614
 Alpha  occ. eigenvalues --   -0.55348  -0.54349  -0.53175  -0.52936  -0.51673
 Alpha  occ. eigenvalues --   -0.51473  -0.49039  -0.48929  -0.48891  -0.46986
 Alpha  occ. eigenvalues --   -0.45772  -0.44953  -0.44911  -0.44832  -0.42814
 Alpha  occ. eigenvalues --   -0.37427  -0.36445
 Alpha virt. eigenvalues --    0.04955   0.11210   0.16454   0.21342   0.23640
 Alpha virt. eigenvalues --    0.25300   0.27261   0.27431   0.28183   0.28288
 Alpha virt. eigenvalues --    0.29035   0.30914   0.32237   0.32439   0.32574

 Mulliken charges:
               1
     1  C   -0.170617
     2  C   -0.218629
     3  C   -0.170529
     4  C    0.157611
     5  C   -0.170974
     6  C   -0.218582
     7  H    0.225920
     8  H    0.223727
     9  H    0.275801
    10  H    0.276250
    11  H    0.223833
    12  N    0.491697
    13  O   -0.462535
    14  O   -0.459605
    15  C   -0.297187
    16  C   -0.299294
    17  C   -0.482363
    18  H    0.146889
    19  H    0.146920
    20  H    0.149364
    21  H    0.153510
    22  H    0.149521
    23  H    0.145405
    24  H    0.188637
    25  C   -0.297540
    26  C   -0.298874
    27  C   -0.475229
    28  H    0.148723
    29  H    0.149228
    30  H    0.150723
    31  H    0.150578
    32  H    0.154682
    33  H    0.154705
    34  H    0.158233
 Sum of Mulliken charges =  -0.00000

 Dipole moment (field-independent basis, Debye):
    X=              4.8744    Y=             -2.1007    Z=             -1.4030  Tot=              5.4901
 Quadrupole moment (field-independent basis, Debye-Ang):
   XX=            -62.9936   YY=            -92.2000   ZZ=            -94.7053
   XY=             -5.0537   XZ=             -6.5285   YZ=             -1.2573

 Normal termination of Gaussian 16 at Thu May  6 09:21:52 2021.
