 Gaussian 16, Revision A.03,
 Gaussian 16:  EM64L-G16RevA.03 25-Dec-2016

 -------------
 #p 6-31g* mp2
 -------------

 ------------------------------------------------------
 Input file generated by CHIRIPA (05-May-2021 14:55:25)
 ------------------------------------------------------
 Symbolic Z-matrix:
 Charge =  0 Multiplicity = 1

                         Standard orientation:
 ---------------------------------------------------------------------
 Center     Atomic      Atomic             Coordinates (Angstroms)
 Number     Number       Type             X           Y           Z
 ---------------------------------------------------------------------
      1          6           0       -0.942735   -1.542471    1.336312
      2          6           0       -0.786089   -0.171760    1.105804
      3          6           0       -1.786586    0.558002    0.456959
      4          6           0       -2.935938   -0.117901    0.050220
      5          6           0       -3.121463   -1.482664    0.265379
      6          6           0       -2.107868   -2.192402    0.916104
      7          1           0       -0.160437   -2.101590    1.841081
      8          1           0        0.117706    0.335609    1.431040
      9          1           0       -1.691307    1.619965    0.265712
     10          1           0       -4.033618   -1.960794   -0.070453
     11          1           0       -2.232246   -3.256830    1.093778
     12          7           0       -4.002053    0.644066   -0.637678
     13          8           0       -5.005171    0.025260   -0.986204
     14          8           0       -3.814369    1.845674   -0.815302
     15          6           0        3.991187   -0.295574   -0.139750
     16          6           0        3.500034   -1.517884   -0.916094
     17          6           0        4.427020   -2.724630   -0.766900
     18          1           0        4.999517   -0.030174   -0.485842
     19          1           0        4.084569   -0.558183    0.923128
     20          1           0        3.406285   -1.252650   -1.976979
     21          1           0        2.492680   -1.780289   -0.568248
     22          1           0        4.512473   -3.017087    0.284655
     23          1           0        5.431269   -2.486450   -1.132080
     24          1           0        4.056996   -3.587149   -1.329929
     25          6           0        3.074998    0.918889   -0.279051
     26          6           0        3.566152    2.141199    0.497292
     27          6           0        2.639166    3.347944    0.348099
     28          1           0        2.981618    1.181498   -1.341930
     29          1           0        2.066669    0.653489    0.067040
     30          1           0        4.573507    2.403604    0.149446
     31          1           0        3.659902    1.875965    1.558178
     32          1           0        1.634918    3.109765    0.713280
     33          1           0        2.553714    3.640402   -0.703456
     34          1           0        3.009190    4.210464    0.911127
 ---------------------------------------------------------------------

 SCF Done:  E(RHF) =  -669.535418320     A.U. after   15 cycles
 E2 =    -0.2091844879D+01 EUMP2 =    -0.67162726319857D+03

 The electronic state is 1-A.
 Alpha  occ. eigenvalues --  -20.60776 -20.60771 -15.85830 -11.31217 -11.27792
 Alpha  occ. eigenvalues --  -11.27788 -11.27549 -11.26809 -11.26799 -11.22307
 Alpha  occ. eigenvalues --  -11.22257 -11.22153 -11.22073 -11.21754 -11.21671
 Alpha  occ. eigenvalues --   -1.59851  -1.39403  -1.19395  -1.09154  -1.08786
 Alpha  occ. eigenvalues --   -1.04802  -1.04210  -0.96657  -0.95616  -0.87669
 Alpha  occ. eigenvalues --   -0.86201  -0.82451  -0.80261  -0.78968  -0.77488
 Alpha  occ. eigenvalues --   -0.72048  -0.71174  -0.70502  -0.65871  -0.65048
 Alpha  occ. eigenvalues --   -0.64769  -0.62170  -0.61595  -0.60015  -0.58259
 Alpha  occ. eigenvalues --   -0.55969  -0.55302  -0.53328  -0.53152  -0.53082
 Alpha  occ. eigenvalues --   -0.52870  -0.50604  -0.48815  -0.48801  -0.48570
 Alpha  occ. eigenvalues --   -0.47307  -0.46486  -0.46424  -0.44804  -0.44468
 Alpha  occ. eigenvalues --   -0.37370  -0.36386
 Alpha virt. eigenvalues --    0.05034   0.11131   0.16442   0.18950   0.22868
 Alpha virt. eigenvalues --    0.23162   0.25402   0.26496   0.26772   0.28095
 Alpha virt. eigenvalues --    0.29502   0.30133   0.31120   0.31405   0.32259

 Mulliken charges:
               1
     1  C   -0.172347
     2  C   -0.219348
     3  C   -0.171785
     4  C    0.158631
     5  C   -0.170538
     6  C   -0.218484
     7  H    0.225906
     8  H    0.226872
     9  H    0.276136
    10  H    0.275840
    11  H    0.223664
    12  N    0.488084
    13  O   -0.460406
    14  O   -0.460079
    15  C   -0.298489
    16  C   -0.299930
    17  C   -0.476073
    18  H    0.153105
    19  H    0.146412
    20  H    0.155715
    21  H    0.147872
    22  H    0.153197
    23  H    0.157647
    24  H    0.161712
    25  C   -0.302948
    26  C   -0.300948
    27  C   -0.474345
    28  H    0.154758
    29  H    0.143705
    30  H    0.155836
    31  H    0.149811
    32  H    0.146797
    33  H    0.159937
    34  H    0.164079
 Sum of Mulliken charges =  -0.00000

 Dipole moment (field-independent basis, Debye):
    X=              3.8624    Y=             -2.6492    Z=              2.3241  Tot=              5.2286
 Quadrupole moment (field-independent basis, Debye-Ang):
   XX=           -115.2609   YY=            -91.3217   ZZ=            -94.5867
   XY=             11.0825   XZ=             -7.4883   YZ=             -0.3897

 Normal termination of Gaussian 16 at Thu May  6 14:24:05 2021.
