 Gaussian 16, Revision A.03,
 Gaussian 16:  EM64L-G16RevA.03 25-Dec-2016

 -------------
 #p 6-31g* mp2
 -------------

 ------------------------------------------------------
 Input file generated by CHIRIPA (05-May-2021 14:55:24)
 ------------------------------------------------------
 Symbolic Z-matrix:
 Charge =  0 Multiplicity = 1

                         Standard orientation:
 ---------------------------------------------------------------------
 Center     Atomic      Atomic             Coordinates (Angstroms)
 Number     Number       Type             X           Y           Z
 ---------------------------------------------------------------------
      1          6           0        2.718887    2.526043    0.882473
      2          6           0        3.939089    2.126750    0.327321
      3          6           0        4.080734    0.854840   -0.235465
      4          6           0        2.976586    0.003924   -0.226038
      5          6           0        1.747826    0.372595    0.319416
      6          6           0        1.629071    1.649237    0.876758
      7          1           0        2.617745    3.515932    1.317544
      8          1           0        4.787151    2.805593    0.330361
      9          1           0        5.013866    0.519995   -0.672000
     10          1           0        0.920307   -0.326201    0.301651
     11          1           0        0.680240    1.956637    1.307188
     12          7           0        3.114423   -1.345095   -0.818953
     13          8           0        2.126579   -2.076102   -0.798206
     14          8           0        4.207693   -1.645906   -1.293199
     15          6           0       -3.985144    0.143156   -0.431109
     16          6           0       -5.426833    0.645944   -0.349119
     17          6           0       -5.820503    1.510309   -1.547323
     18          1           0       -3.306715    1.004307   -0.502492
     19          1           0       -3.857313   -0.433132   -1.357902
     20          1           0       -5.552275    1.219946    0.577921
     21          1           0       -6.101897   -0.216501   -0.277731
     22          1           0       -5.723583    0.944015   -2.479266
     23          1           0       -5.170839    2.388623   -1.618753
     24          1           0       -6.854923    1.858990   -1.468226
     25          6           0       -3.576760   -0.722379    0.759604
     26          6           0       -2.135071   -1.225167    0.677614
     27          6           0       -1.741402   -2.089532    1.875818
     28          1           0       -3.704592   -0.146091    1.686397
     29          1           0       -4.255189   -1.583530    0.830986
     30          1           0       -1.460008   -0.362722    0.606226
     31          1           0       -2.009630   -1.799169   -0.249426
     32          1           0       -2.391066   -2.967846    1.947248
     33          1           0       -1.838321   -1.523238    2.807761
     34          1           0       -0.706982   -2.438213    1.796721
 ---------------------------------------------------------------------

 SCF Done:  E(RHF) =  -669.535569445     A.U. after   15 cycles
 E2 =    -0.2091513324D+01 EUMP2 =    -0.67162708276836D+03

 The electronic state is 1-A.
 Alpha  occ. eigenvalues --  -20.60757 -20.60752 -15.85807 -11.31148 -11.27731
 Alpha  occ. eigenvalues --  -11.27683 -11.27481 -11.26747 -11.26734 -11.21983
 Alpha  occ. eigenvalues --  -11.21823 -11.21688 -11.21619 -11.21259 -11.21233
 Alpha  occ. eigenvalues --   -1.59830  -1.39384  -1.19329  -1.08731  -1.08709
 Alpha  occ. eigenvalues --   -1.04733  -1.03785  -0.96207  -0.95566  -0.87218
 Alpha  occ. eigenvalues --   -0.86132  -0.82402  -0.79862  -0.78535  -0.77440
 Alpha  occ. eigenvalues --   -0.72027  -0.71151  -0.70450  -0.65361  -0.64981
 Alpha  occ. eigenvalues --   -0.64741  -0.62144  -0.61148  -0.59556  -0.57815
 Alpha  occ. eigenvalues --   -0.55500  -0.55229  -0.53063  -0.52907  -0.52804
 Alpha  occ. eigenvalues --   -0.52616  -0.50150  -0.48784  -0.48782  -0.48156
 Alpha  occ. eigenvalues --   -0.46899  -0.46070  -0.45976  -0.44794  -0.44028
 Alpha  occ. eigenvalues --   -0.37317  -0.36333
 Alpha virt. eigenvalues --    0.05080   0.11312   0.16572   0.19821   0.22803
 Alpha virt. eigenvalues --    0.23762   0.25576   0.26428   0.27081   0.28086
 Alpha virt. eigenvalues --    0.29182   0.30097   0.31463   0.31552   0.32184

 Mulliken charges:
               1
     1  C   -0.170488
     2  C   -0.219144
     3  C   -0.170069
     4  C    0.159053
     5  C   -0.180748
     6  C   -0.222043
     7  H    0.225396
     8  H    0.223345
     9  H    0.275457
    10  H    0.289539
    11  H    0.222989
    12  N    0.487574
    13  O   -0.461039
    14  O   -0.460364
    15  C   -0.298132
    16  C   -0.299822
    17  C   -0.475758
    18  H    0.145611
    19  H    0.153025
    20  H    0.150814
    21  H    0.153479
    22  H    0.156802
    23  H    0.153962
    24  H    0.160849
    25  C   -0.297969
    26  C   -0.302204
    27  C   -0.480340
    28  H    0.147445
    29  H    0.153011
    30  H    0.136155
    31  H    0.163223
    32  H    0.159528
    33  H    0.151721
    34  H    0.169144
 Sum of Mulliken charges =  -0.00000

 Dipole moment (field-independent basis, Debye):
    X=             -0.5839    Y=              4.6087    Z=              2.0483  Tot=              5.0771
 Quadrupole moment (field-independent basis, Debye-Ang):
   XX=            -92.8843   YY=            -94.5229   ZZ=            -96.7003
   XY=             16.3013   XZ=              5.0857   YZ=             -0.3906

 Normal termination of Gaussian 16 at Thu May  6 11:02:57 2021.
