 Gaussian 16, Revision A.03,
 Gaussian 16:  EM64L-G16RevA.03 25-Dec-2016

 -------------
 #p 6-31g* mp2
 -------------

 ------------------------------------------------------
 Input file generated by CHIRIPA (05-May-2021 14:51:07)
 ------------------------------------------------------
 Symbolic Z-matrix:
 Charge =  0 Multiplicity = 1

                         Standard orientation:
 ---------------------------------------------------------------------
 Center     Atomic      Atomic             Coordinates (Angstroms)
 Number     Number       Type             X           Y           Z
 ---------------------------------------------------------------------
      1          6           0        2.930241   -0.903905    0.748661
      2          6           0        1.876243   -0.194920    1.599786
      3          6           0        1.121305   -1.151248    2.523526
      4          1           0        2.443537   -1.686202    0.150266
      5          1           0        3.643031   -1.414819    1.410698
      6          1           0        1.166450    0.315654    0.936367
      7          1           0        2.365484    0.585908    2.196081
      8          1           0        1.813260   -1.651570    3.208710
      9          1           0        0.607413   -1.923359    1.941839
     10          1           0        0.372811   -0.623453    3.122734
     11          6           0        3.693392    0.038920   -0.179999
     12          6           0        4.747390   -0.670066   -1.031124
     13          6           0        5.502329    0.286263   -1.954865
     14          1           0        2.980603    0.549834   -0.842036
     15          1           0        4.180097    0.821216    0.418395
     16          1           0        4.258149   -1.450893   -1.627419
     17          1           0        5.457183   -1.180639   -0.367705
     18          1           0        6.016220    1.058374   -1.373177
     19          1           0        4.810373    0.786584   -2.640048
     20          1           0        6.250822   -0.241532   -2.554073
     21          6           0       -3.147717    1.097760    0.053193
     22          6           0       -1.715237    1.568939   -0.199740
     23          6           0       -1.402084    2.901224    0.481983
     24          1           0       -3.847832    1.866387   -0.301767
     25          1           0       -3.309545    1.003624    1.135942
     26          1           0       -1.555732    1.660829   -1.281742
     27          1           0       -1.018454    0.799018    0.155690
     28          1           0       -1.533530    2.819648    1.565804
     29          1           0       -2.073861    3.686357    0.120203
     30          1           0       -0.372976    3.219313    0.288036
     31          6           0       -3.475916   -0.232775   -0.621855
     32          6           0       -4.908397   -0.703953   -0.368922
     33          6           0       -5.221549   -2.036238   -1.050645
     34          1           0       -3.314088   -0.138638   -1.704604
     35          1           0       -2.775801   -1.001401   -0.266894
     36          1           0       -5.605180    0.065969   -0.724352
     37          1           0       -5.067902   -0.795843    0.713080
     38          1           0       -4.549773   -2.821371   -0.688866
     39          1           0       -5.090103   -1.954662   -2.134466
     40          1           0       -6.250658   -2.354327   -0.856697
 ---------------------------------------------------------------------

 SCF Done:  E(RHF) =  -470.733346472     A.U. after   11 cycles
 E2 =    -0.1582829735D+01 EUMP2 =    -0.47231617620704D+03

 The electronic state is 1-A.
 Alpha  occ. eigenvalues --  -11.21611 -11.21610 -11.21602 -11.21596 -11.21419
 Alpha  occ. eigenvalues --  -11.21409 -11.21359 -11.21350 -11.21117 -11.21080
 Alpha  occ. eigenvalues --  -11.21079 -11.21071  -1.08456  -1.08426  -1.03571
 Alpha  occ. eigenvalues --   -1.03516  -0.96001  -0.95982  -0.87009  -0.87004
 Alpha  occ. eigenvalues --   -0.79669  -0.79551  -0.78306  -0.78203  -0.65178
 Alpha  occ. eigenvalues --   -0.64982  -0.61113  -0.60792  -0.59410  -0.59304
 Alpha  occ. eigenvalues --   -0.57643  -0.57559  -0.55309  -0.55247  -0.52695
 Alpha  occ. eigenvalues --   -0.52677  -0.52423  -0.52409  -0.49975  -0.49898
 Alpha  occ. eigenvalues --   -0.48033  -0.47857  -0.46876  -0.46456  -0.45930
 Alpha  occ. eigenvalues --   -0.45770  -0.45754  -0.45442  -0.43799  -0.43790
 Alpha virt. eigenvalues --    0.20899   0.23185   0.23662   0.24789   0.26092
 Alpha virt. eigenvalues --    0.26830   0.27012   0.27570   0.28347   0.28765
 Alpha virt. eigenvalues --    0.30773   0.31411   0.31593   0.31880   0.32237

 Mulliken charges:
               1
     1  C   -0.297655
     2  C   -0.308416
     3  C   -0.475626
     4  H    0.149534
     5  H    0.149516
     6  H    0.160031
     7  H    0.152290
     8  H    0.155686
     9  H    0.154544
    10  H    0.159895
    11  C   -0.298465
    12  C   -0.299665
    13  C   -0.475731
    14  H    0.149736
    15  H    0.149644
    16  H    0.152010
    17  H    0.151918
    18  H    0.155166
    19  H    0.155218
    20  H    0.160263
    21  C   -0.297454
    22  C   -0.307453
    23  C   -0.475575
    24  H    0.149694
    25  H    0.149664
    26  H    0.151584
    27  H    0.158497
    28  H    0.155259
    29  H    0.155276
    30  H    0.160779
    31  C   -0.298409
    32  C   -0.299673
    33  C   -0.475733
    34  H    0.149372
    35  H    0.149563
    36  H    0.151978
    37  H    0.152110
    38  H    0.155182
    39  H    0.155111
    40  H    0.160336
 Sum of Mulliken charges =  -0.00000

 Dipole moment (field-independent basis, Debye):
    X=              0.0005    Y=              0.0074    Z=              0.0027  Tot=              0.0079
 Quadrupole moment (field-independent basis, Debye-Ang):
   XX=            -84.7412   YY=            -85.7476   ZZ=            -84.2571
   XY=             -0.7602   XZ=              1.0699   YZ=             -0.3004

 Normal termination of Gaussian 16 at Wed May  5 22:54:00 2021.
