 Gaussian 16, Revision A.03,
 Gaussian 16:  EM64L-G16RevA.03 25-Dec-2016

 -------------
 #p 6-31g* mp2
 -------------

 ------------------------------------------------------
 Input file generated by CHIRIPA (05-May-2021 14:55:20)
 ------------------------------------------------------
 Symbolic Z-matrix:
 Charge =  0 Multiplicity = 1

                         Standard orientation:
 ---------------------------------------------------------------------
 Center     Atomic      Atomic             Coordinates (Angstroms)
 Number     Number       Type             X           Y           Z
 ---------------------------------------------------------------------
      1          6           0        1.581559   -2.561758    0.778415
      2          6           0        2.799115   -2.542731    0.090146
      3          6           0        3.375533   -1.330130   -0.299584
      4          6           0        2.704127   -0.150117    0.016761
      5          6           0        1.489896   -0.136269    0.701408
      6          6           0        0.931980   -1.360584    1.081316
      7          1           0        1.140970   -3.508286    1.077351
      8          1           0        3.305826   -3.474030   -0.146437
      9          1           0        4.317110   -1.286453   -0.833383
     10          1           0        1.008380    0.808418    0.923059
     11          1           0       -0.013697   -1.372326    1.615734
     12          7           0        3.304561    1.139810   -0.390629
     13          8           0        2.693127    2.165623   -0.099952
     14          8           0        4.375245    1.100617   -0.992905
     15          6           0       -3.291058   -0.250139   -0.374136
     16          6           0       -4.588667   -1.040946   -0.204370
     17          6           0       -4.485816   -2.468301   -0.742769
     18          1           0       -3.022070   -0.223399   -1.438972
     19          1           0       -2.477262   -0.779432    0.140626
     20          1           0       -5.400053   -0.509608   -0.718129
     21          1           0       -4.854698   -1.065644    0.860165
     22          1           0       -3.695647   -3.019984   -0.223270
     23          1           0       -4.244099   -2.460788   -1.810532
     24          1           0       -5.424450   -3.015594   -0.611252
     25          6           0       -3.378173    1.178685    0.159343
     26          6           0       -2.080562    1.969491   -0.010423
     27          6           0       -2.183414    3.396846    0.527975
     28          1           0       -4.191968    1.707976   -0.355420
     29          1           0       -3.647159    1.151944    1.224179
     30          1           0       -1.814531    1.994189   -1.074957
     31          1           0       -1.269177    1.438152    0.503336
     32          1           0       -2.425130    3.389334    1.595738
     33          1           0       -2.973583    3.948529    0.008477
     34          1           0       -1.244779    3.944139    0.396458
 ---------------------------------------------------------------------

 SCF Done:  E(RHF) =  -669.535358673     A.U. after   15 cycles
 E2 =    -0.2091989477D+01 EUMP2 =    -0.67162734815050D+03

 The electronic state is 1-A.
 Alpha  occ. eigenvalues --  -20.60759 -20.60754 -15.85813 -11.31171 -11.27756
 Alpha  occ. eigenvalues --  -11.27733 -11.27503 -11.26773 -11.26762 -11.22064
 Alpha  occ. eigenvalues --  -11.21947 -11.21887 -11.21750 -11.21562 -11.21125
 Alpha  occ. eigenvalues --   -1.59834  -1.39387  -1.19354  -1.08849  -1.08749
 Alpha  occ. eigenvalues --   -1.04762  -1.03888  -0.96320  -0.95584  -0.87334
 Alpha  occ. eigenvalues --   -0.86158  -0.82421  -0.79964  -0.78678  -0.77455
 Alpha  occ. eigenvalues --   -0.72033  -0.71156  -0.70473  -0.65508  -0.65007
 Alpha  occ. eigenvalues --   -0.64777  -0.62147  -0.61268  -0.59679  -0.57921
 Alpha  occ. eigenvalues --   -0.55626  -0.55266  -0.53093  -0.52974  -0.52884
 Alpha  occ. eigenvalues --   -0.52710  -0.50272  -0.48791  -0.48788  -0.48255
 Alpha  occ. eigenvalues --   -0.47010  -0.46203  -0.46131  -0.44793  -0.44143
 Alpha  occ. eigenvalues --   -0.37334  -0.36343
 Alpha virt. eigenvalues --    0.05051   0.11240   0.16446   0.19491   0.22836
 Alpha virt. eigenvalues --    0.23633   0.24947   0.26646   0.26847   0.28141
 Alpha virt. eigenvalues --    0.29273   0.31059   0.31219   0.31477   0.31979

 Mulliken charges:
               1
     1  C   -0.170804
     2  C   -0.218713
     3  C   -0.170514
     4  C    0.159022
     5  C   -0.174958
     6  C   -0.220300
     7  H    0.225626
     8  H    0.223485
     9  H    0.275605
    10  H    0.281618
    11  H    0.224010
    12  N    0.487864
    13  O   -0.460468
    14  O   -0.460511
    15  C   -0.298195
    16  C   -0.300064
    17  C   -0.474870
    18  H    0.153260
    19  H    0.141177
    20  H    0.154686
    21  H    0.151158
    22  H    0.150317
    23  H    0.157120
    24  H    0.161761
    25  C   -0.298859
    26  C   -0.300099
    27  C   -0.478230
    28  H    0.152709
    29  H    0.148154
    30  H    0.158016
    31  H    0.140696
    32  H    0.153181
    33  H    0.156522
    34  H    0.170599
 Sum of Mulliken charges =  -0.00000

 Dipole moment (field-independent basis, Debye):
    X=             -2.1757    Y=             -4.4296    Z=              1.3318  Tot=              5.1116
 Quadrupole moment (field-independent basis, Debye-Ang):
   XX=           -103.1653   YY=            -93.2268   ZZ=            -93.8577
   XY=            -14.6702   XZ=              2.5705   YZ=              0.1038

 Normal termination of Gaussian 16 at Thu May  6 20:40:09 2021.
