 Gaussian 16, Revision A.03,
 Gaussian 16:  EM64L-G16RevA.03 25-Dec-2016

 -------------
 #p 6-31g* mp2
 -------------

 ------------------------------------------------------
 Input file generated by CHIRIPA (05-May-2021 14:53:16)
 ------------------------------------------------------
 Symbolic Z-matrix:
 Charge =  0 Multiplicity = 1

                         Standard orientation:
 ---------------------------------------------------------------------
 Center     Atomic      Atomic             Coordinates (Angstroms)
 Number     Number       Type             X           Y           Z
 ---------------------------------------------------------------------
      1          6           0       -2.975827   -0.458037    0.771443
      2          6           0       -1.593270    0.192415    0.830026
      3          6           0       -0.603909   -0.598026    1.686858
      4          1           0       -3.370535   -0.558014    1.791813
      5          1           0       -2.877219   -1.477378    0.373175
      6          1           0       -1.694634    1.210717    1.226768
      7          1           0       -1.201889    0.291030   -0.190617
      8          1           0       -0.473282   -1.609954    1.289945
      9          1           0       -0.968826   -0.685042    2.715384
     10          1           0        0.377925   -0.115249    1.714930
     11          6           0       -3.975965    0.320489   -0.081405
     12          6           0       -5.358523   -0.329964   -0.139988
     13          6           0       -6.347883    0.460478   -0.996820
     14          1           0       -4.074574    1.339829    0.316863
     15          1           0       -3.581257    0.420466   -1.101775
     16          1           0       -5.749903   -0.428578    0.880655
     17          1           0       -5.257159   -1.348265   -0.536730
     18          1           0       -5.982966    0.547494   -2.025345
     19          1           0       -6.478511    1.472406   -0.599907
     20          1           0       -7.329717   -0.022299   -1.024892
     21          6           0        2.762879    2.557630    0.037321
     22          6           0        3.049922    1.714646    1.115980
     23          6           0        3.026669    0.325803    0.957481
     24          6           0        2.710968   -0.188338   -0.299213
     25          6           0        2.420369    0.625351   -1.393175
     26          6           0        2.449571    2.011255   -1.211613
     27          1           0        2.783252    3.635375    0.169404
     28          1           0        3.293569    2.136173    2.087060
     29          1           0        3.244820   -0.349922    1.775543
     30          1           0        2.180943    0.175695   -2.349158
     31          1           0        2.226223    2.663504   -2.051095
     32          7           0        2.683202   -1.657089   -0.479216
     33          8           0        2.402153   -2.085177   -1.596529
     34          8           0        2.943014   -2.352395    0.500418
 ---------------------------------------------------------------------

 SCF Done:  E(RHF) =  -669.534974081     A.U. after   15 cycles
 E2 =    -0.2093078894D+01 EUMP2 =    -0.67162805297470D+03

 The electronic state is 1-A.
 Alpha  occ. eigenvalues --  -20.60808 -20.60790 -15.85851 -11.31228 -11.27828
 Alpha  occ. eigenvalues --  -11.27790 -11.27565 -11.26840 -11.26830 -11.21527
 Alpha  occ. eigenvalues --  -11.21493 -11.21325 -11.21224 -11.21038 -11.20780
 Alpha  occ. eigenvalues --   -1.59873  -1.39426  -1.19431  -1.08809  -1.08328
 Alpha  occ. eigenvalues --   -1.04842  -1.03421  -0.95874  -0.95637  -0.86893
 Alpha  occ. eigenvalues --   -0.86222  -0.82474  -0.79491  -0.78144  -0.77516
 Alpha  occ. eigenvalues --   -0.72072  -0.71199  -0.70531  -0.65077  -0.64958
 Alpha  occ. eigenvalues --   -0.64829  -0.62181  -0.60819  -0.59299  -0.57534
 Alpha  occ. eigenvalues --   -0.55329  -0.55150  -0.53427  -0.52920  -0.52412
 Alpha  occ. eigenvalues --   -0.52110  -0.49801  -0.48833  -0.48825  -0.47805
 Alpha  occ. eigenvalues --   -0.46527  -0.45687  -0.45611  -0.44824  -0.43693
 Alpha  occ. eigenvalues --   -0.37369  -0.36376
 Alpha virt. eigenvalues --    0.04992   0.11175   0.16493   0.21351   0.22931
 Alpha virt. eigenvalues --    0.24356   0.26723   0.27171   0.27572   0.27960
 Alpha virt. eigenvalues --    0.28413   0.30901   0.31524   0.31877   0.31969

 Mulliken charges:
               1
     1  C   -0.298771
     2  C   -0.297730
     3  C   -0.485320
     4  H    0.149191
     5  H    0.153244
     6  H    0.147676
     7  H    0.150264
     8  H    0.163516
     9  H    0.153382
    10  H    0.161436
    11  C   -0.297845
    12  C   -0.299741
    13  C   -0.475600
    14  H    0.147343
    15  H    0.148861
    16  H    0.151840
    17  H    0.153621
    18  H    0.154859
    19  H    0.154012
    20  H    0.160494
    21  C   -0.170443
    22  C   -0.216890
    23  C   -0.177954
    24  C    0.165852
    25  C   -0.171707
    26  C   -0.217760
    27  H    0.226027
    28  H    0.224135
    29  H    0.276863
    30  H    0.275771
    31  H    0.223847
    32  N    0.488435
    33  O   -0.461043
    34  O   -0.459863
 Sum of Mulliken charges =  -0.00000

 Dipole moment (field-independent basis, Debye):
    X=              0.1945    Y=              5.1339    Z=              0.6091  Tot=              5.1736
 Quadrupole moment (field-independent basis, Debye-Ang):
   XX=            -95.3674   YY=            -97.0834   ZZ=            -90.3147
   XY=             14.4450   XZ=              2.4499   YZ=             -1.6982

 Normal termination of Gaussian 16 at Thu May  6 09:04:20 2021.
