 Gaussian 16, Revision A.03,
 Gaussian 16:  EM64L-G16RevA.03 25-Dec-2016

 -------------
 #p 6-31g* mp2
 -------------

 ------------------------------------------------------
 Input file generated by CHIRIPA (05-May-2021 14:55:23)
 ------------------------------------------------------
 Symbolic Z-matrix:
 Charge =  0 Multiplicity = 1

                         Standard orientation:
 ---------------------------------------------------------------------
 Center     Atomic      Atomic             Coordinates (Angstroms)
 Number     Number       Type             X           Y           Z
 ---------------------------------------------------------------------
      1          6           0       -6.154412   -0.782843   -0.011183
      2          6           0       -5.903889    0.584474    0.144391
      3          6           0       -4.600051    1.081672    0.058663
      4          6           0       -3.565853    0.179196   -0.184775
      5          6           0       -3.783369   -1.188480   -0.344271
      6          6           0       -5.095220   -1.663404   -0.254589
      7          1           0       -7.170377   -1.160427    0.056949
      8          1           0       -6.724519    1.270655    0.333509
      9          1           0       -4.377792    2.135452    0.175138
     10          1           0       -2.944759   -1.847988   -0.531890
     11          1           0       -5.286812   -2.725778   -0.375826
     12          7           0       -2.181297    0.693766   -0.277625
     13          8           0       -1.287530   -0.122011   -0.492856
     14          8           0       -2.016066    1.903121   -0.133411
     15          6           0        5.520148   -0.466642    0.064459
     16          6           0        6.585499    0.481778   -0.486462
     17          6           0        7.907787   -0.224815   -0.786584
     18          1           0        5.899376   -0.942085    0.979382
     19          1           0        5.348855   -1.274946   -0.659902
     20          1           0        6.753734    1.288814    0.238110
     21          1           0        6.203617    0.955163   -1.400075
     22          1           0        7.761298   -1.018234   -1.526604
     23          1           0        8.314541   -0.682686    0.120888
     24          1           0        8.655058    0.471714   -1.179388
     25          6           0        4.192607    0.225008    0.369389
     26          6           0        3.127256   -0.723411    0.920310
     27          6           0        1.804967   -0.016818    1.220433
     28          1           0        4.363899    1.033312    1.093751
     29          1           0        3.813380    0.700451   -0.545535
     30          1           0        3.509137   -1.196797    1.833924
     31          1           0        2.959021   -1.530449    0.195739
     32          1           0        1.398214    0.441052    0.312961
     33          1           0        1.951456    0.776601    1.960453
     34          1           0        1.057697   -0.713347    1.613237
 ---------------------------------------------------------------------

 SCF Done:  E(RHF) =  -669.535860176     A.U. after   15 cycles
 E2 =    -0.2091032216D+01 EUMP2 =    -0.67162689239212D+03

 The electronic state is 1-A.
 Alpha  occ. eigenvalues --  -20.60923 -20.60904 -15.85939 -11.31279 -11.27842
 Alpha  occ. eigenvalues --  -11.27838 -11.27582 -11.26852 -11.26843 -11.20920
 Alpha  occ. eigenvalues --  -11.20567 -11.20518 -11.20352 -11.20293 -11.19226
 Alpha  occ. eigenvalues --   -1.59972  -1.39529  -1.19447  -1.08849  -1.07472
 Alpha  occ. eigenvalues --   -1.04845  -1.02482  -0.95692  -0.94897  -0.86246
 Alpha  occ. eigenvalues --   -0.85908  -0.82522  -0.78583  -0.77573  -0.77248
 Alpha  occ. eigenvalues --   -0.72162  -0.71284  -0.70556  -0.65102  -0.64849
 Alpha  occ. eigenvalues --   -0.64110  -0.62193  -0.59877  -0.58352  -0.56514
 Alpha  occ. eigenvalues --   -0.55353  -0.54183  -0.53177  -0.52937  -0.51592
 Alpha  occ. eigenvalues --   -0.51332  -0.49202  -0.48917  -0.48544  -0.46861
 Alpha  occ. eigenvalues --   -0.45618  -0.44943  -0.44777  -0.44650  -0.42733
 Alpha  occ. eigenvalues --   -0.37426  -0.36447
 Alpha virt. eigenvalues --    0.04953   0.11208   0.16445   0.21342   0.23763
 Alpha virt. eigenvalues --    0.25418   0.27257   0.27579   0.28210   0.28404
 Alpha virt. eigenvalues --    0.29204   0.30914   0.32401   0.32516   0.32679

 Mulliken charges:
               1
     1  C   -0.170648
     2  C   -0.218571
     3  C   -0.170738
     4  C    0.158168
     5  C   -0.170915
     6  C   -0.218536
     7  H    0.225917
     8  H    0.223763
     9  H    0.275879
    10  H    0.275703
    11  H    0.223750
    12  N    0.488816
    13  O   -0.458774
    14  O   -0.459349
    15  C   -0.297360
    16  C   -0.299026
    17  C   -0.475148
    18  H    0.147239
    19  H    0.148040
    20  H    0.151050
    21  H    0.152011
    22  H    0.154192
    23  H    0.153896
    24  H    0.158404
    25  C   -0.297784
    26  C   -0.300081
    27  C   -0.475695
    28  H    0.147606
    29  H    0.151899
    30  H    0.144711
    31  H    0.149532
    32  H    0.179836
    33  H    0.146497
    34  H    0.155715
 Sum of Mulliken charges =  -0.00000

 Dipole moment (field-independent basis, Debye):
    X=             -5.2446    Y=             -1.7446    Z=              0.2209  Tot=              5.5315
 Quadrupole moment (field-independent basis, Debye-Ang):
   XX=            -62.2527   YY=            -91.3551   ZZ=            -95.1066
   XY=              4.5659   XZ=             -0.3125   YZ=              1.4373

 Normal termination of Gaussian 16 at Thu May  6 03:07:59 2021.
