 Gaussian 16, Revision A.03,
 Gaussian 16:  EM64L-G16RevA.03 25-Dec-2016

 -------------
 #p 6-31g* mp2
 -------------

 ------------------------------------------------------
 Input file generated by CHIRIPA (05-May-2021 14:53:11)
 ------------------------------------------------------
 Symbolic Z-matrix:
 Charge =  0 Multiplicity = 1

                         Standard orientation:
 ---------------------------------------------------------------------
 Center     Atomic      Atomic             Coordinates (Angstroms)
 Number     Number       Type             X           Y           Z
 ---------------------------------------------------------------------
      1          6           0       -2.813788    0.662963   -0.120251
      2          6           0       -3.072350    2.125597   -0.483338
      3          6           0       -1.888936    3.035144   -0.151602
      4          1           0       -2.584930    0.592901    0.951971
      5          1           0       -1.919728    0.312397   -0.654250
      6          1           0       -3.966458    2.472892    0.050117
      7          1           0       -3.300808    2.192162   -1.554782
      8          1           0       -0.993657    2.716079   -0.694992
      9          1           0       -1.663088    2.998404    0.919026
     10          1           0       -2.095278    4.076122   -0.419274
     11          6           0       -3.987728   -0.258733   -0.445932
     12          6           0       -3.729166   -1.721367   -0.082845
     13          6           0       -4.912580   -2.630914   -0.414580
     14          1           0       -4.881788    0.091834    0.088067
     15          1           0       -4.216587   -0.188670   -1.518154
     16          1           0       -3.500708   -1.787932    0.988599
     17          1           0       -2.835058   -2.068662   -0.616300
     18          1           0       -5.138428   -2.594174   -1.485208
     19          1           0       -5.807860   -2.311849    0.128809
     20          1           0       -4.706238   -3.671892   -0.146909
     21          6           0        4.760191   -0.692847   -1.065568
     22          6           0        4.268332    0.616354   -1.041278
     23          6           0        3.103806    0.924262   -0.331615
     24          6           0        2.453499   -0.106186    0.345562
     25          6           0        2.918605   -1.420317    0.340377
     26          6           0        4.084949   -1.705219   -0.375879
     27          1           0        5.665528   -0.923101   -1.619413
     28          1           0        4.790657    1.404591   -1.575976
     29          1           0        2.701017    1.929205   -0.296029
     30          1           0        2.376044   -2.184829    0.883116
     31          1           0        4.464625   -2.722862   -0.392985
     32          7           0        1.219705    0.207604    1.100340
     33          8           0        0.665257   -0.718155    1.688724
     34          8           0        0.830469    1.373370    1.089261
 ---------------------------------------------------------------------

 SCF Done:  E(RHF) =  -669.535673858     A.U. after   15 cycles
 E2 =    -0.2092159348D+01 EUMP2 =    -0.67162783320556D+03

 The electronic state is 1-A.
 Alpha  occ. eigenvalues --  -20.60933 -20.60915 -15.85939 -11.31288 -11.27852
 Alpha  occ. eigenvalues --  -11.27848 -11.27591 -11.26863 -11.26853 -11.20656
 Alpha  occ. eigenvalues --  -11.20359 -11.20353 -11.20349 -11.20004 -11.19482
 Alpha  occ. eigenvalues --   -1.59979  -1.39537  -1.19458  -1.08859  -1.07280
 Alpha  occ. eigenvalues --   -1.04855  -1.02398  -0.95700  -0.94832  -0.86256
 Alpha  occ. eigenvalues --   -0.85847  -0.82532  -0.78483  -0.77579  -0.77036
 Alpha  occ. eigenvalues --   -0.72167  -0.71288  -0.70564  -0.65112  -0.64858
 Alpha  occ. eigenvalues --   -0.63929  -0.62202  -0.59813  -0.58242  -0.56425
 Alpha  occ. eigenvalues --   -0.55358  -0.54126  -0.53188  -0.52946  -0.51576
 Alpha  occ. eigenvalues --   -0.51222  -0.49004  -0.48946  -0.48709  -0.46775
 Alpha  occ. eigenvalues --   -0.45540  -0.44968  -0.44482  -0.44451  -0.42655
 Alpha  occ. eigenvalues --   -0.37436  -0.36458
 Alpha virt. eigenvalues --    0.04926   0.11194   0.16404   0.21293   0.23912
 Alpha virt. eigenvalues --    0.25387   0.27155   0.27656   0.28040   0.28678
 Alpha virt. eigenvalues --    0.29243   0.30886   0.31997   0.32661   0.32870

 Mulliken charges:
               1
     1  C   -0.294876
     2  C   -0.300866
     3  C   -0.470488
     4  H    0.164387
     5  H    0.143974
     6  H    0.147376
     7  H    0.144081
     8  H    0.154426
     9  H    0.169320
    10  H    0.147919
    11  C   -0.298347
    12  C   -0.298062
    13  C   -0.475089
    14  H    0.146870
    15  H    0.144346
    16  H    0.157386
    17  H    0.149436
    18  H    0.152136
    19  H    0.153916
    20  H    0.157421
    21  C   -0.170658
    22  C   -0.218530
    23  C   -0.171347
    24  C    0.157902
    25  C   -0.170776
    26  C   -0.218577
    27  H    0.225974
    28  H    0.223880
    29  H    0.276067
    30  H    0.275907
    31  H    0.223808
    32  N    0.490100
    33  O   -0.459639
    34  O   -0.459376
 Sum of Mulliken charges =  -0.00000

 Dipole moment (field-independent basis, Debye):
    X=              4.6561    Y=             -1.1272    Z=             -2.4238  Tot=              5.3689
 Quadrupole moment (field-independent basis, Debye-Ang):
   XX=            -75.6035   YY=            -91.2286   ZZ=            -96.2208
   XY=             -3.4241   XZ=             -6.5626   YZ=             -1.3545

 Normal termination of Gaussian 16 at Thu May  6 04:02:54 2021.
