 Gaussian 16, Revision A.03,
 Gaussian 16:  EM64L-G16RevA.03 25-Dec-2016

 -------------
 #p 6-31g* mp2
 -------------

 ------------------------------------------------------
 Input file generated by CHIRIPA (05-May-2021 14:53:13)
 ------------------------------------------------------
 Symbolic Z-matrix:
 Charge =  0 Multiplicity = 1

                         Standard orientation:
 ---------------------------------------------------------------------
 Center     Atomic      Atomic             Coordinates (Angstroms)
 Number     Number       Type             X           Y           Z
 ---------------------------------------------------------------------
      1          6           0       -3.098355   -0.232135   -0.152937
      2          6           0       -2.353765   -1.365994    0.552706
      3          6           0       -0.864664   -1.400177    0.207448
      4          1           0       -2.974748   -0.341025   -1.239127
      5          1           0       -2.635689    0.726496    0.119754
      6          1           0       -2.818567   -2.322094    0.279854
      7          1           0       -2.479319   -1.254502    1.637336
      8          1           0       -0.380752   -0.461344    0.495587
      9          1           0       -0.721928   -1.535003   -0.869608
     10          1           0       -0.351765   -2.218301    0.722683
     11          6           0       -4.588049   -0.184878    0.182187
     12          6           0       -5.332639    0.948981   -0.523456
     13          6           0       -6.821741    0.983163   -0.178197
     14          1           0       -5.050715   -1.143510   -0.090504
     15          1           0       -4.711656   -0.075988    1.268377
     16          1           0       -5.207085    0.837488   -1.608086
     17          1           0       -4.867837    1.905080   -0.250604
     18          1           0       -6.964477    1.117989    0.898858
     19          1           0       -7.305653    0.044331   -0.466336
     20          1           0       -7.334639    1.801287   -0.693433
     21          6           0        3.246334    2.662240    0.233012
     22          6           0        2.873605    1.884270    1.334082
     23          6           0        2.735478    0.498583    1.210226
     24          6           0        2.978929   -0.078731   -0.035057
     25          6           0        3.351685    0.669368   -1.150714
     26          6           0        3.483766    2.053379   -1.003692
     27          1           0        3.351287    3.738024    0.338224
     28          1           0        2.688576    2.354408    2.295735
     29          1           0        2.448157   -0.127529    2.046197
     30          1           0        3.529416    0.172147   -2.096548
     31          1           0        3.773362    2.655062   -1.860522
     32          7           0        2.835900   -1.544810   -0.178440
     33          8           0        3.056050   -2.029309   -1.286335
     34          8           0        2.506351   -2.181661    0.819786
 ---------------------------------------------------------------------

 SCF Done:  E(RHF) =  -669.535901474     A.U. after   15 cycles
 E2 =    -0.2092131702D+01 EUMP2 =    -0.67162803317645D+03

 The electronic state is 1-A.
 Alpha  occ. eigenvalues --  -20.60809 -20.60799 -15.85834 -11.31200 -11.27767
 Alpha  occ. eigenvalues --  -11.27761 -11.27513 -11.26791 -11.26780 -11.21487
 Alpha  occ. eigenvalues --  -11.21189 -11.21154 -11.21076 -11.20985 -11.20330
 Alpha  occ. eigenvalues --   -1.59860  -1.39419  -1.19373  -1.08768  -1.08167
 Alpha  occ. eigenvalues --   -1.04778  -1.03215  -0.95666  -0.95592  -0.86674
 Alpha  occ. eigenvalues --   -0.86173  -0.82443  -0.79304  -0.77986  -0.77485
 Alpha  occ. eigenvalues --   -0.72071  -0.71158  -0.70483  -0.65031  -0.64811
 Alpha  occ. eigenvalues --   -0.64777  -0.62126  -0.60625  -0.59012  -0.57254
 Alpha  occ. eigenvalues --   -0.55283  -0.54966  -0.53120  -0.52870  -0.52298
 Alpha  occ. eigenvalues --   -0.52064  -0.49622  -0.48826  -0.48820  -0.47603
 Alpha  occ. eigenvalues --   -0.46355  -0.45521  -0.45461  -0.44850  -0.43349
 Alpha  occ. eigenvalues --   -0.37335  -0.36373
 Alpha virt. eigenvalues --    0.05026   0.11224   0.16493   0.21380   0.23101
 Alpha virt. eigenvalues --    0.24635   0.26855   0.27259   0.27683   0.27939
 Alpha virt. eigenvalues --    0.28607   0.30933   0.31544   0.32014   0.32436

 Mulliken charges:
               1
     1  C   -0.297466
     2  C   -0.300242
     3  C   -0.486312
     4  H    0.149594
     5  H    0.145935
     6  H    0.153145
     7  H    0.149171
     8  H    0.145452
     9  H    0.155813
    10  H    0.181782
    11  C   -0.297895
    12  C   -0.299143
    13  C   -0.475486
    14  H    0.150254
    15  H    0.148526
    16  H    0.151852
    17  H    0.149970
    18  H    0.154630
    19  H    0.155698
    20  H    0.159264
    21  C   -0.170769
    22  C   -0.219213
    23  C   -0.170939
    24  C    0.160465
    25  C   -0.170971
    26  C   -0.218473
    27  H    0.225604
    28  H    0.223449
    29  H    0.276030
    30  H    0.275626
    31  H    0.223512
    32  N    0.490227
    33  O   -0.459889
    34  O   -0.459201
 Sum of Mulliken charges =  -0.00000

 Dipole moment (field-independent basis, Debye):
    X=              0.6546    Y=              5.0490    Z=              0.5037  Tot=              5.1161
 Quadrupole moment (field-independent basis, Debye-Ang):
   XX=            -93.7725   YY=            -95.5431   ZZ=            -89.5682
   XY=             16.0589   XZ=              0.4118   YZ=             -0.1720

 Normal termination of Gaussian 16 at Thu May  6 18:40:50 2021.
