 Gaussian 16, Revision A.03,
 Gaussian 16:  EM64L-G16RevA.03 25-Dec-2016

 -------------
 #p 6-31g* mp2
 -------------

 ------------------------------------------------------
 Input file generated by CHIRIPA (05-May-2021 14:53:15)
 ------------------------------------------------------
 Symbolic Z-matrix:
 Charge =  0 Multiplicity = 1

                         Standard orientation:
 ---------------------------------------------------------------------
 Center     Atomic      Atomic             Coordinates (Angstroms)
 Number     Number       Type             X           Y           Z
 ---------------------------------------------------------------------
      1          6           0       -4.528093   -0.164986   -0.452297
      2          6           0       -4.477300   -1.637259   -0.042641
      3          6           0       -5.595878   -2.465799   -0.675175
      4          1           0       -5.502799    0.254688   -0.168100
      5          1           0       -4.464298   -0.093774   -1.546945
      6          1           0       -4.539779   -1.705600    1.050996
      7          1           0       -3.502530   -2.053426   -0.327674
      8          1           0       -5.533220   -2.427379   -1.767511
      9          1           0       -6.576362   -2.077576   -0.381008
     10          1           0       -5.540630   -3.515081   -0.368884
     11          6           0       -3.416206    0.676257    0.171999
     12          6           0       -3.466999    2.148529   -0.237658
     13          6           0       -2.348421    2.977069    0.394877
     14          1           0       -3.480001    0.605044    1.266647
     15          1           0       -2.441500    0.256583   -0.112198
     16          1           0       -4.441769    2.564697    0.047375
     17          1           0       -3.404520    2.216870   -1.331295
     18          1           0       -1.367937    2.588847    0.100710
     19          1           0       -2.411079    2.938649    1.487213
     20          1           0       -2.403669    4.026352    0.088586
     21          6           0        5.449944   -0.212390   -0.817198
     22          6           0        4.952422   -1.340016   -0.155797
     23          6           0        3.653672   -1.344202    0.361675
     24          6           0        2.876372   -0.198489    0.199081
     25          6           0        3.343537    0.940501   -0.454942
     26          6           0        4.645331    0.922270   -0.964400
     27          1           0        6.460027   -0.217845   -1.216070
     28          1           0        5.575043   -2.222615   -0.040004
     29          1           0        3.243338   -2.203489    0.878077
     30          1           0        2.699144    1.805484   -0.554842
     31          1           0        5.029074    1.799435   -1.477596
     32          7           0        1.499831   -0.191054    0.742663
     33          8           0        0.835067    0.830844    0.586307
     34          8           0        1.111728   -1.207268    1.314785
 ---------------------------------------------------------------------

 SCF Done:  E(RHF) =  -669.536163126     A.U. after   15 cycles
 E2 =    -0.2091062059D+01 EUMP2 =    -0.67162722518458D+03

 The electronic state is 1-A.
 Alpha  occ. eigenvalues --  -20.60982 -20.60977 -15.86020 -11.31324 -11.27886
 Alpha  occ. eigenvalues --  -11.27882 -11.27621 -11.26890 -11.26880 -11.20609
 Alpha  occ. eigenvalues --  -11.20357 -11.20311 -11.20300 -11.19943 -11.19559
 Alpha  occ. eigenvalues --   -1.60042  -1.39599  -1.19491  -1.08898  -1.07246
 Alpha  occ. eigenvalues --   -1.04886  -1.02384  -0.95742  -0.94823  -0.86287
 Alpha  occ. eigenvalues --   -0.85838  -0.82578  -0.78465  -0.77631  -0.77004
 Alpha  occ. eigenvalues --   -0.72241  -0.71357  -0.70600  -0.65149  -0.64888
 Alpha  occ. eigenvalues --   -0.63886  -0.62233  -0.59788  -0.58220  -0.56422
 Alpha  occ. eigenvalues --   -0.55390  -0.54104  -0.53218  -0.52977  -0.51567
 Alpha  occ. eigenvalues --   -0.51220  -0.49022  -0.48997  -0.48722  -0.46753
 Alpha  occ. eigenvalues --   -0.45505  -0.45029  -0.44559  -0.44416  -0.42633
 Alpha  occ. eigenvalues --   -0.37470  -0.36486
 Alpha virt. eigenvalues --    0.04889   0.11169   0.16385   0.21275   0.23988
 Alpha virt. eigenvalues --    0.25435   0.27211   0.27720   0.28103   0.28764
 Alpha virt. eigenvalues --    0.29181   0.30838   0.32136   0.32661   0.32822

 Mulliken charges:
               1
     1  C   -0.297887
     2  C   -0.298827
     3  C   -0.475054
     4  H    0.145575
     5  H    0.145392
     6  H    0.152529
     7  H    0.154771
     8  H    0.152694
     9  H    0.153084
    10  H    0.157978
    11  C   -0.299628
    12  C   -0.298555
    13  C   -0.481763
    14  H    0.150077
    15  H    0.163665
    16  H    0.145862
    17  H    0.146002
    18  H    0.176911
    19  H    0.154001
    20  H    0.149527
    21  C   -0.170559
    22  C   -0.218589
    23  C   -0.170559
    24  C    0.157241
    25  C   -0.170635
    26  C   -0.218533
    27  H    0.226113
    28  H    0.223922
    29  H    0.275942
    30  H    0.275663
    31  H    0.223985
    32  N    0.494896
    33  O   -0.466688
    34  O   -0.458554
 Sum of Mulliken charges =  -0.00000

 Dipole moment (field-independent basis, Debye):
    X=              5.2503    Y=             -0.1199    Z=             -1.8342  Tot=              5.5628
 Quadrupole moment (field-independent basis, Debye-Ang):
   XX=            -69.0484   YY=            -91.7083   ZZ=            -95.3287
   XY=             -2.1274   XZ=             -5.5976   YZ=             -1.6189

 Normal termination of Gaussian 16 at Wed May  5 23:32:05 2021.
