 Gaussian 16, Revision A.03,
 Gaussian 16:  EM64L-G16RevA.03 25-Dec-2016

 -------------
 #p 6-31g* mp2
 -------------

 ------------------------------------------------------
 Input file generated by CHIRIPA (05-May-2021 14:55:19)
 ------------------------------------------------------
 Symbolic Z-matrix:
 Charge =  0 Multiplicity = 1

                         Standard orientation:
 ---------------------------------------------------------------------
 Center     Atomic      Atomic             Coordinates (Angstroms)
 Number     Number       Type             X           Y           Z
 ---------------------------------------------------------------------
      1          6           0       -1.692940    2.393871    0.739493
      2          6           0       -1.781392    1.279034    1.579632
      3          6           0       -2.488499    0.141766    1.178173
      4          6           0       -3.097721    0.153677   -0.075620
      5          6           0       -3.027652    1.248848   -0.935260
      6          6           0       -2.315255    2.375253   -0.513064
      7          1           0       -1.141587    3.273109    1.059410
      8          1           0       -1.299093    1.290676    2.552924
      9          1           0       -2.572910   -0.735042    1.808649
     10          1           0       -3.518963    1.207557   -1.899795
     11          1           0       -2.248232    3.239611   -1.167617
     12          7           0       -3.849104   -1.044547   -0.511604
     13          8           0       -4.376938   -1.008990   -1.621002
     14          8           0       -3.895976   -1.996584    0.264326
     15          6           0        4.565571   -0.520929    0.052232
     16          6           0        5.325661    0.595575   -0.664475
     17          6           0        6.843039    0.438773   -0.560701
     18          1           0        4.862425   -0.537585    1.109845
     19          1           0        4.864881   -1.489472   -0.371717
     20          1           0        5.023977    1.561820   -0.240241
     21          1           0        5.026820    0.609699   -1.720464
     22          1           0        7.163245   -0.510812   -1.001561
     23          1           0        7.160385    0.446718    0.487072
     24          1           0        7.366660    1.247537   -1.079915
     25          6           0        3.047573   -0.378039   -0.042594
     26          6           0        2.287483   -1.494543    0.674113
     27          6           0        0.770104   -1.337741    0.570340
     28          1           0        2.748263    0.590504    0.381356
     29          1           0        2.750719   -0.361383   -1.100207
     30          1           0        2.586324   -1.508667    1.730101
     31          1           0        2.589166   -2.460787    0.249879
     32          1           0        0.452758   -1.345686   -0.477434
     33          1           0        0.449899   -0.388156    1.011199
     34          1           0        0.246485   -2.146504    1.089554
 ---------------------------------------------------------------------

 SCF Done:  E(RHF) =  -669.534467015     A.U. after   15 cycles
 E2 =    -0.2092676719D+01 EUMP2 =    -0.67162714373395D+03

 The electronic state is 1-A.
 Alpha  occ. eigenvalues --  -20.60752 -20.60747 -15.85807 -11.31174 -11.27753
 Alpha  occ. eigenvalues --  -11.27745 -11.27511 -11.26765 -11.26748 -11.21840
 Alpha  occ. eigenvalues --  -11.21743 -11.21628 -11.21567 -11.21276 -11.21101
 Alpha  occ. eigenvalues --   -1.59827  -1.39380  -1.19363  -1.08756  -1.08635
 Alpha  occ. eigenvalues --   -1.04779  -1.03707  -0.96162  -0.95585  -0.87182
 Alpha  occ. eigenvalues --   -0.86167  -0.82424  -0.79784  -0.78456  -0.77462
 Alpha  occ. eigenvalues --   -0.72026  -0.71148  -0.70471  -0.65276  -0.65016
 Alpha  occ. eigenvalues --   -0.64778  -0.62123  -0.61118  -0.59526  -0.57785
 Alpha  occ. eigenvalues --   -0.55496  -0.55272  -0.53383  -0.52907  -0.52764
 Alpha  occ. eigenvalues --   -0.52343  -0.50090  -0.48786  -0.48779  -0.48073
 Alpha  occ. eigenvalues --   -0.46822  -0.45989  -0.45930  -0.44785  -0.43975
 Alpha  occ. eigenvalues --   -0.37340  -0.36253
 Alpha virt. eigenvalues --    0.05078   0.11173   0.16514   0.21177   0.22708
 Alpha virt. eigenvalues --    0.24148   0.26414   0.26866   0.27247   0.27999
 Alpha virt. eigenvalues --    0.28625   0.30158   0.31418   0.31603   0.31787

 Mulliken charges:
               1
     1  C   -0.170594
     2  C   -0.221448
     3  C   -0.163326
     4  C    0.158567
     5  C   -0.171055
     6  C   -0.218389
     7  H    0.225505
     8  H    0.223637
     9  H    0.276107
    10  H    0.275563
    11  H    0.223390
    12  N    0.488135
    13  O   -0.460681
    14  O   -0.460409
    15  C   -0.298290
    16  C   -0.299417
    17  C   -0.475742
    18  H    0.149009
    19  H    0.151211
    20  H    0.149692
    21  H    0.152399
    22  H    0.156286
    23  H    0.155032
    24  H    0.160247
    25  C   -0.297141
    26  C   -0.300388
    27  C   -0.480412
    28  H    0.144803
    29  H    0.150839
    30  H    0.149316
    31  H    0.154129
    32  H    0.157688
    33  H    0.154673
    34  H    0.161062
 Sum of Mulliken charges =  -0.00000

 Dipole moment (field-independent basis, Debye):
    X=              2.6022    Y=              4.2052    Z=              1.5096  Tot=              5.1705
 Quadrupole moment (field-independent basis, Debye-Ang):
   XX=           -113.0281   YY=            -92.6533   ZZ=            -90.7243
   XY=            -13.4120   XZ=             -4.0149   YZ=             -1.8070

 Normal termination of Gaussian 16 at Thu May  6 12:25:02 2021.
