 Gaussian 16, Revision A.03,
 Gaussian 16:  EM64L-G16RevA.03 25-Dec-2016

 -------------
 #p 6-31g* mp2
 -------------

 ------------------------------------------------------
 Input file generated by CHIRIPA (05-May-2021 14:55:25)
 ------------------------------------------------------
 Symbolic Z-matrix:
 Charge =  0 Multiplicity = 1

                         Standard orientation:
 ---------------------------------------------------------------------
 Center     Atomic      Atomic             Coordinates (Angstroms)
 Number     Number       Type             X           Y           Z
 ---------------------------------------------------------------------
      1          6           0        0.625016   -1.776187    0.266312
      2          6           0        0.594106   -0.753592   -0.687556
      3          6           0        1.693787    0.092925   -0.856844
      4          6           0        2.813029   -0.112514   -0.051621
      5          6           0        2.874242   -1.122433    0.907340
      6          6           0        1.762979   -1.957025    1.059318
      7          1           0       -0.233742   -2.429150    0.391096
      8          1           0       -0.288306   -0.610814   -1.304815
      9          1           0        1.696699    0.892453   -1.587710
     10          1           0        3.768045   -1.240137    1.507907
     11          1           0        1.789797   -2.750360    1.800900
     12          7           0        3.983343    0.777343   -0.221676
     13          8           0        4.957432    0.575562    0.500176
     14          8           0        3.904385    1.659745   -1.073598
     15          6           0       -3.407913   -0.385059    0.288461
     16          6           0       -3.468515   -1.428675   -0.827415
     17          6           0       -3.576647   -2.857861   -0.294941
     18          1           0       -2.548962   -0.601757    0.938223
     19          1           0       -4.305372   -0.476685    0.915810
     20          1           0       -2.571873   -1.334191   -1.453291
     21          1           0       -4.327309   -1.209355   -1.474706
     22          1           0       -4.479709   -2.975262    0.312755
     23          1           0       -2.714299   -3.100808    0.334292
     24          1           0       -3.618609   -3.587662   -1.109489
     25          6           0       -3.299663    1.048543   -0.228060
     26          6           0       -3.239059    2.092158    0.887816
     27          6           0       -3.130929    3.521345    0.355342
     28          1           0       -2.402203    1.140169   -0.855409
     29          1           0       -4.158613    1.265241   -0.877822
     30          1           0       -2.380265    1.872839    1.535108
     31          1           0       -4.135701    1.997675    1.513693
     32          1           0       -3.993277    3.764292   -0.273891
     33          1           0       -2.227867    3.638746   -0.252354
     34          1           0       -3.088967    4.251146    1.169891
 ---------------------------------------------------------------------

 SCF Done:  E(RHF) =  -669.535085230     A.U. after   15 cycles
 E2 =    -0.2093040267D+01 EUMP2 =    -0.67162812549654D+03

 The electronic state is 1-A.
 Alpha  occ. eigenvalues --  -20.60775 -20.60770 -15.85828 -11.31203 -11.27772
 Alpha  occ. eigenvalues --  -11.27767 -11.27500 -11.26784 -11.26762 -11.22835
 Alpha  occ. eigenvalues --  -11.22367 -11.22326 -11.22224 -11.22149 -11.21487
 Alpha  occ. eigenvalues --   -1.59850  -1.39403  -1.19375  -1.09363  -1.08763
 Alpha  occ. eigenvalues --   -1.04780  -1.04409  -0.96845  -0.95601  -0.87865
 Alpha  occ. eigenvalues --   -0.86179  -0.82437  -0.80499  -0.79122  -0.77482
 Alpha  occ. eigenvalues --   -0.72047  -0.71173  -0.70510  -0.66156  -0.65021
 Alpha  occ. eigenvalues --   -0.64677  -0.62171  -0.61744  -0.60237  -0.58437
 Alpha  occ. eigenvalues --   -0.56210  -0.55236  -0.53535  -0.53262  -0.53092
 Alpha  occ. eigenvalues --   -0.52881  -0.50813  -0.48827  -0.48802  -0.48774
 Alpha  occ. eigenvalues --   -0.47544  -0.46645  -0.46550  -0.44807  -0.44650
 Alpha  occ. eigenvalues --   -0.37344  -0.36378
 Alpha virt. eigenvalues --    0.05034   0.11183   0.16456   0.18071   0.22553
 Alpha virt. eigenvalues --    0.23426   0.24342   0.25551   0.27049   0.28669
 Alpha virt. eigenvalues --    0.29006   0.30332   0.30929   0.31414   0.32026

 Mulliken charges:
               1
     1  C   -0.177557
     2  C   -0.225851
     3  C   -0.172189
     4  C    0.158805
     5  C   -0.170730
     6  C   -0.220229
     7  H    0.233204
     8  H    0.231914
     9  H    0.275857
    10  H    0.275677
    11  H    0.223985
    12  N    0.487910
    13  O   -0.460350
    14  O   -0.460348
    15  C   -0.301791
    16  C   -0.304902
    17  C   -0.477788
    18  H    0.148723
    19  H    0.154280
    20  H    0.144080
    21  H    0.159157
    22  H    0.161986
    23  H    0.146861
    24  H    0.164755
    25  C   -0.298266
    26  C   -0.300809
    27  C   -0.476289
    28  H    0.143972
    29  H    0.152523
    30  H    0.154686
    31  H    0.153296
    32  H    0.155763
    33  H    0.156295
    34  H    0.163368
 Sum of Mulliken charges =  -0.00000

 Dipole moment (field-independent basis, Debye):
    X=             -4.3289    Y=             -3.0668    Z=              0.6498  Tot=              5.3448
 Quadrupole moment (field-independent basis, Debye-Ang):
   XX=           -115.2780   YY=            -94.2191   ZZ=            -92.6753
   XY=             -9.9356   XZ=              3.9155   YZ=             -1.6820

 Normal termination of Gaussian 16 at Thu May  6 08:01:49 2021.
