 Gaussian 16, Revision A.03,
 Gaussian 16:  EM64L-G16RevA.03 25-Dec-2016

 -------------
 #p 6-31g* mp2
 -------------

 ------------------------------------------------------
 Input file generated by CHIRIPA (05-May-2021 14:53:18)
 ------------------------------------------------------
 Symbolic Z-matrix:
 Charge =  0 Multiplicity = 1

                         Standard orientation:
 ---------------------------------------------------------------------
 Center     Atomic      Atomic             Coordinates (Angstroms)
 Number     Number       Type             X           Y           Z
 ---------------------------------------------------------------------
      1          6           0       -4.340596   -0.089929   -0.274229
      2          6           0       -5.438547   -0.656568    0.626553
      3          6           0       -6.137863   -1.870468    0.014021
      4          1           0       -4.777046    0.187035   -1.243634
      5          1           0       -3.600749   -0.876426   -0.477804
      6          1           0       -6.175378    0.131157    0.829498
      7          1           0       -4.999468   -0.932037    1.593995
      8          1           0       -5.419535   -2.675287   -0.172725
      9          1           0       -6.602126   -1.606052   -0.941565
     10          1           0       -6.919016   -2.259448    0.674592
     11          6           0       -3.632250    1.123983    0.324431
     12          6           0       -2.534299    1.690622   -0.576351
     13          6           0       -1.834983    2.904522    0.036182
     14          1           0       -4.372097    1.910481    0.528006
     15          1           0       -3.195800    0.847019    1.293836
     16          1           0       -2.973378    1.966091   -1.543792
     17          1           0       -1.797468    0.902897   -0.779296
     18          1           0       -1.370719    2.640106    0.991767
     19          1           0       -2.553311    3.709341    0.222927
     20          1           0       -1.053830    3.293502   -0.624390
     21          6           0        5.293633    0.841133    0.238570
     22          6           0        4.097697    1.548880    0.079344
     23          6           0        2.884352    0.869446   -0.064578
     24          6           0        2.903712   -0.524295   -0.044571
     25          6           0        4.078733   -1.257775    0.112352
     26          6           0        5.280358   -0.557469    0.254537
     27          1           0        6.231637    1.377041    0.349697
     28          1           0        4.104994    2.635079    0.066564
     29          1           0        1.943922    1.392357   -0.189362
     30          1           0        4.039702   -2.340281    0.121097
     31          1           0        6.207609   -1.109734    0.378036
     32          7           0        1.625402   -1.254630   -0.196015
     33          8           0        1.669269   -2.482747   -0.175015
     34          8           0        0.603801   -0.585120   -0.332849
 ---------------------------------------------------------------------

 SCF Done:  E(RHF) =  -669.536296533     A.U. after   15 cycles
 E2 =    -0.2090968183D+01 EUMP2 =    -0.67162726471557D+03

 The electronic state is 1-A.
 Alpha  occ. eigenvalues --  -20.60951 -20.60939 -15.85996 -11.31287 -11.27851
 Alpha  occ. eigenvalues --  -11.27840 -11.27586 -11.26855 -11.26842 -11.20814
 Alpha  occ. eigenvalues --  -11.20550 -11.20499 -11.20461 -11.20401 -11.20352
 Alpha  occ. eigenvalues --   -1.60015  -1.39572  -1.19456  -1.08865  -1.07524
 Alpha  occ. eigenvalues --   -1.04848  -1.02710  -0.95712  -0.95208  -0.86253
 Alpha  occ. eigenvalues --   -0.86226  -0.82549  -0.78765  -0.77607  -0.77315
 Alpha  occ. eigenvalues --   -0.72226  -0.71330  -0.70564  -0.65116  -0.64851
 Alpha  occ. eigenvalues --   -0.64127  -0.62195  -0.60085  -0.58582  -0.56814
 Alpha  occ. eigenvalues --   -0.55355  -0.54493  -0.53183  -0.52939  -0.51944
 Alpha  occ. eigenvalues --   -0.51636  -0.49155  -0.48974  -0.48953  -0.47093
 Alpha  occ. eigenvalues --   -0.45742  -0.44993  -0.44898  -0.44724  -0.42961
 Alpha  occ. eigenvalues --   -0.37436  -0.36449
 Alpha virt. eigenvalues --    0.04930   0.11205   0.16434   0.20979   0.23523
 Alpha virt. eigenvalues --    0.24494   0.27122   0.27475   0.27946   0.28559
 Alpha virt. eigenvalues --    0.29127   0.31038   0.31935   0.32187   0.32670

 Mulliken charges:
               1
     1  C   -0.300516
     2  C   -0.299036
     3  C   -0.475662
     4  H    0.146387
     5  H    0.160176
     6  H    0.148578
     7  H    0.152002
     8  H    0.157752
     9  H    0.153410
    10  H    0.157460
    11  C   -0.296539
    12  C   -0.311000
    13  C   -0.474532
    14  H    0.143864
    15  H    0.150489
    16  H    0.146561
    17  H    0.181256
    18  H    0.153657
    19  H    0.151961
    20  H    0.151553
    21  C   -0.170534
    22  C   -0.218740
    23  C   -0.171522
    24  C    0.157262
    25  C   -0.170655
    26  C   -0.218653
    27  H    0.226001
    28  H    0.224160
    29  H    0.277295
    30  H    0.275738
    31  H    0.223759
    32  N    0.496763
    33  O   -0.459206
    34  O   -0.469490
 Sum of Mulliken charges =  -0.00000

 Dipole moment (field-independent basis, Debye):
    X=              4.7405    Y=              2.3860    Z=              0.5088  Tot=              5.3314
 Quadrupole moment (field-independent basis, Debye-Ang):
   XX=            -68.6145   YY=            -94.8326   ZZ=            -95.6930
   XY=              2.2652   XZ=              1.8223   YZ=             -1.2592

 Normal termination of Gaussian 16 at Thu May  6 12:18:40 2021.
