 Gaussian 16, Revision A.03,
 Gaussian 16:  EM64L-G16RevA.03 25-Dec-2016

 -------------
 #p 6-31g* mp2
 -------------

 ------------------------------------------------------
 Input file generated by CHIRIPA (05-May-2021 14:55:24)
 ------------------------------------------------------
 Symbolic Z-matrix:
 Charge =  0 Multiplicity = 1

                         Standard orientation:
 ---------------------------------------------------------------------
 Center     Atomic      Atomic             Coordinates (Angstroms)
 Number     Number       Type             X           Y           Z
 ---------------------------------------------------------------------
      1          6           0        1.132661   -1.430288    1.794234
      2          6           0        0.873611   -1.537476    0.423860
      3          6           0        1.648939   -0.833682   -0.502470
      4          6           0        2.679991   -0.028240   -0.021342
      5          6           0        2.962822    0.099233    1.337719
      6          6           0        2.174602   -0.613715    2.245993
      7          1           0        0.525360   -1.980568    2.506816
      8          1           0        0.065078   -2.170886    0.070148
      9          1           0        1.470216   -0.898417   -1.568906
     10          1           0        3.775688    0.738570    1.660077
     11          1           0        2.378071   -0.528559    3.309663
     12          7           0        3.507621    0.721681   -0.992449
     13          8           0        4.410170    1.424587   -0.543044
     14          8           0        3.238096    0.592363   -2.184620
     15          6           0       -2.832377   -0.425130   -0.320357
     16          6           0       -3.663984   -1.684307   -0.567112
     17          6           0       -2.802731   -2.915249   -0.851399
     18          1           0       -2.197042   -0.235512   -1.196337
     19          1           0       -2.153749   -0.602261    0.525506
     20          1           0       -4.341817   -1.504380   -1.411378
     21          1           0       -4.297552   -1.870842    0.309479
     22          1           0       -2.136751   -3.122677   -0.007570
     23          1           0       -2.181267   -2.754133   -1.738205
     24          1           0       -3.417485   -3.803987   -1.024845
     25          6           0       -3.679209    0.813830   -0.034735
     26          6           0       -2.847602    2.073007    0.212021
     27          6           0       -3.708855    3.303949    0.496307
     28          1           0       -4.357837    0.990960   -0.880598
     29          1           0       -4.314543    0.624212    0.841245
     30          1           0       -2.214033    2.259541   -0.664571
     31          1           0       -2.169769    1.893080    1.056286
     32          1           0       -4.330319    3.142832    1.383112
     33          1           0       -4.374835    3.511377   -0.347521
     34          1           0       -3.094100    4.192686    0.669753
 ---------------------------------------------------------------------

 SCF Done:  E(RHF) =  -669.535158875     A.U. after   15 cycles
 E2 =    -0.2092534441D+01 EUMP2 =    -0.67162769331612D+03

 The electronic state is 1-A.
 Alpha  occ. eigenvalues --  -20.60732 -20.60727 -15.85783 -11.31140 -11.27696
 Alpha  occ. eigenvalues --  -11.27676 -11.27438 -11.26729 -11.26638 -11.22382
 Alpha  occ. eigenvalues --  -11.22177 -11.22042 -11.21911 -11.21829 -11.21302
 Alpha  occ. eigenvalues --   -1.59807  -1.39361  -1.19302  -1.09024  -1.08702
 Alpha  occ. eigenvalues --   -1.04700  -1.04129  -0.96604  -0.95542  -0.87625
 Alpha  occ. eigenvalues --   -0.86107  -0.82375  -0.80210  -0.78806  -0.77406
 Alpha  occ. eigenvalues --   -0.72003  -0.71129  -0.70420  -0.65676  -0.64951
 Alpha  occ. eigenvalues --   -0.64708  -0.62091  -0.61504  -0.59968  -0.58200
 Alpha  occ. eigenvalues --   -0.55917  -0.55211  -0.53292  -0.53164  -0.53002
 Alpha  occ. eigenvalues --   -0.52706  -0.50560  -0.48784  -0.48759  -0.48464
 Alpha  occ. eigenvalues --   -0.47225  -0.46323  -0.46234  -0.44768  -0.44358
 Alpha  occ. eigenvalues --   -0.37278  -0.36267
 Alpha virt. eigenvalues --    0.05097   0.11262   0.16578   0.19911   0.22667
 Alpha virt. eigenvalues --    0.23877   0.25462   0.26044   0.27101   0.28212
 Alpha virt. eigenvalues --    0.29316   0.30565   0.31025   0.31322   0.32002

 Mulliken charges:
               1
     1  C   -0.175228
     2  C   -0.221135
     3  C   -0.174352
     4  C    0.159093
     5  C   -0.171592
     6  C   -0.218115
     7  H    0.224658
     8  H    0.236175
     9  H    0.275316
    10  H    0.275286
    11  H    0.223037
    12  N    0.488019
    13  O   -0.460605
    14  O   -0.460627
    15  C   -0.301418
    16  C   -0.299471
    17  C   -0.480382
    18  H    0.149908
    19  H    0.147272
    20  H    0.156436
    21  H    0.153441
    22  H    0.145809
    23  H    0.155497
    24  H    0.167148
    25  C   -0.298656
    26  C   -0.300292
    27  C   -0.476200
    28  H    0.151562
    29  H    0.149339
    30  H    0.155190
    31  H    0.151792
    32  H    0.154350
    33  H    0.156228
    34  H    0.162515
 Sum of Mulliken charges =  -0.00000

 Dipole moment (field-independent basis, Debye):
    X=             -3.0745    Y=             -2.5818    Z=              3.3635  Tot=              5.2375
 Quadrupole moment (field-independent basis, Debye-Ang):
   XX=           -109.3288   YY=            -95.3180   ZZ=            -91.3822
   XY=             -5.3336   XZ=             11.9668   YZ=              1.2421

 Normal termination of Gaussian 16 at Thu May  6 20:55:15 2021.
