 Gaussian 16, Revision A.03,
 Gaussian 16:  EM64L-G16RevA.03 25-Dec-2016

 -------------
 #p 6-31g* mp2
 -------------

 ------------------------------------------------------
 Input file generated by CHIRIPA (05-May-2021 14:51:11)
 ------------------------------------------------------
 Symbolic Z-matrix:
 Charge =  0 Multiplicity = 1

                         Standard orientation:
 ---------------------------------------------------------------------
 Center     Atomic      Atomic             Coordinates (Angstroms)
 Number     Number       Type             X           Y           Z
 ---------------------------------------------------------------------
      1          6           0       -3.207209    0.591068   -0.299010
      2          6           0       -2.913063    1.717123    0.692687
      3          6           0       -4.002724    2.789573    0.709609
      4          1           0       -3.319759    1.017373   -1.305261
      5          1           0       -4.172059    0.130794   -0.044831
      6          1           0       -1.948400    2.174228    0.437550
      7          1           0       -2.801011    1.288066    1.696664
      8          1           0       -4.968150    2.353520    0.986036
      9          1           0       -4.110694    3.244717   -0.280232
     10          1           0       -3.772246    3.584822    1.425373
     11          6           0       -2.126927   -0.488705   -0.327438
     12          6           0       -2.421073   -1.614760   -1.319135
     13          6           0       -1.331412   -2.687209   -1.336057
     14          1           0       -1.162077   -0.028431   -0.581616
     15          1           0       -2.014378   -0.915010    0.678814
     16          1           0       -2.533125   -1.185702   -2.323112
     17          1           0       -3.385737   -2.071865   -1.063998
     18          1           0       -1.223443   -3.142354   -0.346215
     19          1           0       -0.365986   -2.251156   -1.612484
     20          1           0       -1.561890   -3.482459   -2.051821
     21          6           0        2.108722   -0.315664    0.762367
     22          6           0        2.062436   -1.842181    0.837126
     23          6           0        0.940167   -2.356095    1.739457
     24          1           0        2.235234    0.091020    1.775060
     25          1           0        1.142195    0.055959    0.394786
     26          1           0        3.029234   -2.210892    1.203144
     27          1           0        1.936212   -2.245286   -0.175885
     28          1           0       -0.034244   -2.016347    1.373814
     29          1           0        1.064989   -1.981757    2.760678
     30          1           0        0.925382   -3.449768    1.778453
     31          6           0        3.225415    0.213301   -0.135920
     32          6           0        3.271701    1.739817   -0.210678
     33          6           0        4.393968    2.253731   -1.113009
     34          1           0        4.191942   -0.158322    0.231662
     35          1           0        3.098903   -0.193383   -1.148613
     36          1           0        3.397924    2.142923    0.802331
     37          1           0        2.304902    2.108529   -0.576696
     38          1           0        4.269148    1.879395   -2.134230
     39          1           0        5.368380    1.913984   -0.747367
     40          1           0        4.408754    3.347404   -1.152005
 ---------------------------------------------------------------------

 SCF Done:  E(RHF) =  -470.731549690     A.U. after   11 cycles
 E2 =    -0.1585362550D+01 EUMP2 =    -0.47231691224005D+03

 The electronic state is 1-A.
 Alpha  occ. eigenvalues --  -11.21667 -11.21640 -11.21600 -11.21503 -11.21486
 Alpha  occ. eigenvalues --  -11.21419 -11.21362 -11.21277 -11.21098 -11.21071
 Alpha  occ. eigenvalues --  -11.21071 -11.20889  -1.08524  -1.08367  -1.03621
 Alpha  occ. eigenvalues --   -1.03441  -0.96060  -0.95903  -0.87066  -0.86938
 Alpha  occ. eigenvalues --   -0.79694  -0.79523  -0.78435  -0.78099  -0.65174
 Alpha  occ. eigenvalues --   -0.65005  -0.61030  -0.60914  -0.59396  -0.59280
 Alpha  occ. eigenvalues --   -0.57665  -0.57533  -0.55338  -0.55225  -0.52723
 Alpha  occ. eigenvalues --   -0.52643  -0.52428  -0.52361  -0.50066  -0.49879
 Alpha  occ. eigenvalues --   -0.48120  -0.47723  -0.46840  -0.46505  -0.46198
 Alpha  occ. eigenvalues --   -0.45693  -0.45645  -0.45134  -0.43840  -0.43730
 Alpha virt. eigenvalues --    0.20509   0.23103   0.23405   0.24809   0.25246
 Alpha virt. eigenvalues --    0.25732   0.26513   0.28090   0.29020   0.30005
 Alpha virt. eigenvalues --    0.30725   0.30945   0.31323   0.32011   0.32238

 Mulliken charges:
               1
     1  C   -0.297145
     2  C   -0.299920
     3  C   -0.475761
     4  H    0.149719
     5  H    0.149900
     6  H    0.151837
     7  H    0.152443
     8  H    0.155301
     9  H    0.155171
    10  H    0.160554
    11  C   -0.308084
    12  C   -0.299155
    13  C   -0.481619
    14  H    0.154101
    15  H    0.153055
    16  H    0.151844
    17  H    0.152239
    18  H    0.160815
    19  H    0.156429
    20  H    0.160430
    21  C   -0.305376
    22  C   -0.300373
    23  C   -0.483765
    24  H    0.149555
    25  H    0.155675
    26  H    0.151543
    27  H    0.153534
    28  H    0.165672
    29  H    0.153768
    30  H    0.158657
    31  C   -0.297876
    32  C   -0.299312
    33  C   -0.475651
    34  H    0.149653
    35  H    0.148690
    36  H    0.152170
    37  H    0.150787
    38  H    0.155015
    39  H    0.155329
    40  H    0.160152
 Sum of Mulliken charges =  -0.00000

 Dipole moment (field-independent basis, Debye):
    X=             -0.0669    Y=             -0.0022    Z=             -0.0048  Tot=              0.0671
 Quadrupole moment (field-independent basis, Debye-Ang):
   XX=            -85.2301   YY=            -85.5432   ZZ=            -84.0937
   XY=              0.5376   XZ=              0.6373   YZ=             -0.0910

 Normal termination of Gaussian 16 at Wed May  5 18:17:14 2021.
