 Gaussian 16, Revision A.03,
 Gaussian 16:  EM64L-G16RevA.03 25-Dec-2016

 -------------
 #p 6-31g* mp2
 -------------

 ------------------------------------------------------
 Input file generated by CHIRIPA (05-May-2021 14:53:15)
 ------------------------------------------------------
 Symbolic Z-matrix:
 Charge =  0 Multiplicity = 1

                         Standard orientation:
 ---------------------------------------------------------------------
 Center     Atomic      Atomic             Coordinates (Angstroms)
 Number     Number       Type             X           Y           Z
 ---------------------------------------------------------------------
      1          6           0        5.224186   -0.615072   -0.108588
      2          6           0        6.718633   -0.352036   -0.296802
      3          6           0        7.517512   -1.631918   -0.544771
      4          1           0        5.083222   -1.306005    0.733840
      5          1           0        4.833667   -1.125257   -0.999992
      6          1           0        7.105926    0.158739    0.594112
      7          1           0        6.856045    0.338501   -1.138760
      8          1           0        7.158740   -2.141702   -1.444774
      9          1           0        7.410041   -2.322485    0.297944
     10          1           0        8.583298   -1.420745   -0.676552
     11          6           0        4.412183    0.654758    0.140230
     12          6           0        2.917736    0.391723    0.328444
     13          6           0        2.118857    1.671605    0.576413
     14          1           0        4.802702    1.164944    1.031634
     15          1           0        4.553147    1.345691   -0.702198
     16          1           0        2.780324   -0.298815    1.170402
     17          1           0        2.530443   -0.119053   -0.562470
     18          1           0        2.226328    2.362171   -0.266302
     19          1           0        2.477629    2.181388    1.476416
     20          1           0        1.053071    1.460431    0.708194
     21          6           0       -1.897154    1.675363    0.132583
     22          6           0       -1.919522    0.580896    1.003308
     23          6           0       -2.949117   -0.362185    0.932024
     24          6           0       -3.944706   -0.178969   -0.026373
     25          6           0       -3.950189    0.900920   -0.907905
     26          6           0       -2.910772    1.831607   -0.818568
     27          1           0       -1.093524    2.403157    0.194971
     28          1           0       -1.133656    0.457008    1.742978
     29          1           0       -2.990936   -1.218798    1.593750
     30          1           0       -4.747519    0.997572   -1.634776
     31          1           0       -2.895968    2.680608   -1.496080
     32          7           0       -5.039892   -1.170806   -0.111395
     33          8           0       -5.905239   -0.986728   -0.964581
     34          8           0       -5.012214   -2.113504    0.676762
 ---------------------------------------------------------------------

 SCF Done:  E(RHF) =  -669.535100069     A.U. after   15 cycles
 E2 =    -0.2091468284D+01 EUMP2 =    -0.67162656835282D+03

 The electronic state is 1-A.
 Alpha  occ. eigenvalues --  -20.60746 -20.60741 -15.85800 -11.31164 -11.27739
 Alpha  occ. eigenvalues --  -11.27735 -11.27438 -11.26742 -11.26731 -11.22449
 Alpha  occ. eigenvalues --  -11.22236 -11.22042 -11.22016 -11.21873 -11.21402
 Alpha  occ. eigenvalues --   -1.59822  -1.39375  -1.19338  -1.09054  -1.08732
 Alpha  occ. eigenvalues --   -1.04743  -1.04198  -0.96677  -0.95565  -0.87703
 Alpha  occ. eigenvalues --   -0.86140  -0.82399  -0.80271  -0.78821  -0.77449
 Alpha  occ. eigenvalues --   -0.72019  -0.71145  -0.70465  -0.65675  -0.64998
 Alpha  occ. eigenvalues --   -0.64779  -0.62113  -0.61585  -0.60074  -0.58256
 Alpha  occ. eigenvalues --   -0.55950  -0.55261  -0.53410  -0.53148  -0.52978
 Alpha  occ. eigenvalues --   -0.52797  -0.50593  -0.48778  -0.48773  -0.48577
 Alpha  occ. eigenvalues --   -0.47277  -0.46375  -0.46269  -0.44781  -0.44447
 Alpha  occ. eigenvalues --   -0.37299  -0.36345
 Alpha virt. eigenvalues --    0.05080   0.11227   0.16560   0.20322   0.22470
 Alpha virt. eigenvalues --    0.23881   0.26036   0.26218   0.26735   0.27583
 Alpha virt. eigenvalues --    0.28682   0.30094   0.30772   0.31238   0.31770

 Mulliken charges:
               1
     1  C   -0.298901
     2  C   -0.300097
     3  C   -0.476072
     4  H    0.150516
     5  H    0.150936
     6  H    0.152293
     7  H    0.152368
     8  H    0.156022
     9  H    0.155831
    10  H    0.161421
    11  C   -0.299234
    12  C   -0.298998
    13  C   -0.482923
    14  H    0.150343
    15  H    0.150577
    16  H    0.152283
    17  H    0.155581
    18  H    0.156917
    19  H    0.158221
    20  H    0.152648
    21  C   -0.172175
    22  C   -0.220261
    23  C   -0.171083
    24  C    0.158166
    25  C   -0.170849
    26  C   -0.219390
    27  H    0.229666
    28  H    0.224455
    29  H    0.275590
    30  H    0.275518
    31  H    0.223484
    32  N    0.488117
    33  O   -0.460483
    34  O   -0.460484
 Sum of Mulliken charges =  -0.00000

 Dipole moment (field-independent basis, Debye):
    X=              4.0481    Y=              3.4658    Z=              0.2617  Tot=              5.3355
 Quadrupole moment (field-independent basis, Debye-Ang):
   XX=           -124.7318   YY=            -95.9126   ZZ=            -91.3333
   XY=            -15.3066   XZ=              0.7380   YZ=             -2.7480

 Normal termination of Gaussian 16 at Thu May  6 01:06:17 2021.
