 Gaussian 16, Revision A.03,
 Gaussian 16:  EM64L-G16RevA.03 25-Dec-2016

 -------------
 #p 6-31g* mp2
 -------------

 ------------------------------------------------------
 Input file generated by CHIRIPA (05-May-2021 14:57:21)
 ------------------------------------------------------
 Symbolic Z-matrix:
 Charge =  0 Multiplicity = 1

                         Standard orientation:
 ---------------------------------------------------------------------
 Center     Atomic      Atomic             Coordinates (Angstroms)
 Number     Number       Type             X           Y           Z
 ---------------------------------------------------------------------
      1          6           0       -3.234853    2.500279    0.383519
      2          6           0       -2.355694    1.897842   -0.522390
      3          6           0       -2.399972    0.518204   -0.744171
      4          6           0       -3.340255   -0.232119   -0.039775
      5          6           0       -4.229570    0.338826    0.869307
      6          6           0       -4.167340    1.720224    1.075257
      7          1           0       -3.193484    3.572699    0.549655
      8          1           0       -1.630474    2.501158   -1.061008
      9          1           0       -1.731170    0.025982   -1.439758
     10          1           0       -4.941569   -0.288772    1.391415
     11          1           0       -4.851344    2.185377    1.779399
     12          7           0       -3.396632   -1.693612   -0.266185
     13          8           0       -4.234256   -2.332543    0.366895
     14          8           0       -2.602129   -2.172525   -1.072438
     15          6           0        5.765825   -0.198752    0.635924
     16          6           0        4.774440   -0.595200    1.539532
     17          6           0        3.422190   -0.494375    1.199235
     18          6           0        3.095570    0.009616   -0.058781
     19          6           0        4.060168    0.412850   -0.980867
     20          6           0        5.406158    0.303124   -0.619178
     21          1           0        6.813854   -0.280532    0.908583
     22          1           0        5.050827   -0.985329    2.514957
     23          1           0        2.634274   -0.794020    1.879542
     24          1           0        3.753734    0.797890   -1.945886
     25          1           0        6.173940    0.611773   -1.322949
     26          7           0        1.667317    0.121067   -0.430361
     27          8           0        1.405666    0.568343   -1.544865
     28          8           0        0.836546   -0.240964    0.399935
 ---------------------------------------------------------------------

 SCF Done:  E(RHF) =  -868.340171915     A.U. after   16 cycles
 E2 =    -0.2599707376D+01 EUMP2 =    -0.87093987929186D+03

 The electronic state is 1-A.
 Alpha  occ. eigenvalues --  -20.61424 -20.61383 -20.59438 -20.59399 -15.86390
 Alpha  occ. eigenvalues --  -15.84468 -11.31529 -11.29605 -11.28080 -11.28049
 Alpha  occ. eigenvalues --  -11.27777 -11.27040 -11.27019 -11.26347 -11.26077
 Alpha  occ. eigenvalues --  -11.26022 -11.25344 -11.25095  -1.60446  -1.58497
 Alpha  occ. eigenvalues --   -1.40003  -1.38055  -1.19679  -1.17824  -1.09122
 Alpha  occ. eigenvalues --   -1.07294  -1.05046  -1.03184  -0.95995  -0.94141
 Alpha  occ. eigenvalues --   -0.86455  -0.84623  -0.82832  -0.80972  -0.77906
 Alpha  occ. eigenvalues --   -0.76008  -0.72620  -0.71726  -0.70788  -0.70708
 Alpha  occ. eigenvalues --   -0.69806  -0.68997  -0.65335  -0.65051  -0.63496
 Alpha  occ. eigenvalues --   -0.63227  -0.62393  -0.60528  -0.55564  -0.53816
 Alpha  occ. eigenvalues --   -0.53387  -0.53136  -0.51590  -0.51307  -0.49403
 Alpha  occ. eigenvalues --   -0.49312  -0.47465  -0.47435  -0.45445  -0.43508
 Alpha  occ. eigenvalues --   -0.37647  -0.36636  -0.35878  -0.34724
 Alpha virt. eigenvalues --    0.04612   0.06514   0.11022   0.12885   0.16152
 Alpha virt. eigenvalues --    0.17986   0.21176   0.22856   0.27105   0.28046
 Alpha virt. eigenvalues --    0.28812   0.29767   0.30785   0.32272   0.32326

 Mulliken charges:
               1
     1  C   -0.171680
     2  C   -0.222074
     3  C   -0.152125
     4  C    0.154010
     5  C   -0.172389
     6  C   -0.220902
     7  H    0.218820
     8  H    0.225420
     9  H    0.287644
    10  H    0.269959
    11  H    0.216319
    12  N    0.488643
    13  O   -0.468320
    14  O   -0.458644
    15  C   -0.169917
    16  C   -0.218663
    17  C   -0.169910
    18  C    0.158757
    19  C   -0.170522
    20  C   -0.218646
    21  H    0.226962
    22  H    0.225149
    23  H    0.277632
    24  H    0.275087
    25  H    0.224364
    26  N    0.489725
    27  O   -0.469271
    28  O   -0.455428
 Sum of Mulliken charges =  -0.00000

 Dipole moment (field-independent basis, Debye):
    X=              5.8455    Y=              4.6380    Z=              2.0197  Tot=              7.7305
 Quadrupole moment (field-independent basis, Debye-Ang):
   XX=            -74.1245   YY=           -108.5894   ZZ=            -99.5673
   XY=            -17.5539   XZ=             -2.2940   YZ=             -2.7432

 Normal termination of Gaussian 16 at Thu May  6 12:49:14 2021.
