 Gaussian 16, Revision A.03,
 Gaussian 16:  EM64L-G16RevA.03 25-Dec-2016

 -------------
 #p 6-31g* mp2
 -------------

 ------------------------------------------------------
 Input file generated by CHIRIPA (05-May-2021 14:55:21)
 ------------------------------------------------------
 Symbolic Z-matrix:
 Charge =  0 Multiplicity = 1

                         Standard orientation:
 ---------------------------------------------------------------------
 Center     Atomic      Atomic             Coordinates (Angstroms)
 Number     Number       Type             X           Y           Z
 ---------------------------------------------------------------------
      1          6           0        1.362687   -2.512116    1.040357
      2          6           0        2.682912   -2.090323    1.229083
      3          6           0        3.162649   -0.947758    0.581823
      4          6           0        2.290921   -0.247725   -0.250844
      5          6           0        0.970340   -0.642652   -0.459143
      6          6           0        0.512114   -1.788211    0.198331
      7          1           0        0.998371   -3.400851    1.547131
      8          1           0        3.345724   -2.650556    1.882432
      9          1           0        4.180127   -0.598882    0.710046
     10          1           0        0.333280   -0.063512   -1.116539
     11          1           0       -0.513671   -2.113439    0.049890
     12          7           0        2.787411    0.963442   -0.941476
     13          8           0        1.999440    1.562720   -1.669902
     14          8           0        3.955130    1.290544   -0.741289
     15          6           0       -2.490525    0.913803    0.769828
     16          6           0       -1.948925    2.305822    0.442813
     17          6           0       -1.277369    2.975609    1.642059
     18          1           0       -3.208574    0.991848    1.597632
     19          1           0       -1.666250    0.282463    1.129518
     20          1           0       -2.773719    2.933939    0.082536
     21          1           0       -1.232225    2.224480   -0.384436
     22          1           0       -0.436347    2.372459    1.999124
     23          1           0       -1.986601    3.085949    2.468749
     24          1           0       -0.897463    3.969580    1.386029
     25          6           0       -3.164756    0.231386   -0.419058
     26          6           0       -3.706355   -1.160631   -0.092042
     27          6           0       -4.377911   -1.830419   -1.291289
     28          1           0       -3.989031    0.862726   -0.778746
     29          1           0       -2.446706    0.153342   -1.246862
     30          1           0       -4.423056   -1.079290    0.735207
     31          1           0       -2.881561   -1.788749    0.268235
     32          1           0       -3.668680   -1.940759   -2.117978
     33          1           0       -5.218933   -1.227269   -1.648354
     34          1           0       -4.757818   -2.824390   -1.035258
 ---------------------------------------------------------------------

 SCF Done:  E(RHF) =  -669.535272276     A.U. after   15 cycles
 E2 =    -0.2093930455D+01 EUMP2 =    -0.67162920273099D+03

 The electronic state is 1-A.
 Alpha  occ. eigenvalues --  -20.60844 -20.60838 -15.85890 -11.31253 -11.27823
 Alpha  occ. eigenvalues --  -11.27820 -11.27555 -11.26832 -11.26806 -11.22423
 Alpha  occ. eigenvalues --  -11.22007 -11.21732 -11.21709 -11.21612 -11.20987
 Alpha  occ. eigenvalues --   -1.59911  -1.39466  -1.19430  -1.08918  -1.08815
 Alpha  occ. eigenvalues --   -1.04831  -1.03908  -0.96349  -0.95655  -0.87366
 Alpha  occ. eigenvalues --   -0.86228  -0.82492  -0.80024  -0.78658  -0.77544
 Alpha  occ. eigenvalues --   -0.72108  -0.71231  -0.70540  -0.65680  -0.65061
 Alpha  occ. eigenvalues --   -0.64834  -0.62118  -0.61308  -0.59739  -0.57937
 Alpha  occ. eigenvalues --   -0.55654  -0.55319  -0.53165  -0.53088  -0.52886
 Alpha  occ. eigenvalues --   -0.52739  -0.50307  -0.48871  -0.48866  -0.48299
 Alpha  occ. eigenvalues --   -0.47091  -0.46183  -0.46092  -0.44862  -0.44171
 Alpha  occ. eigenvalues --   -0.37403  -0.36390
 Alpha virt. eigenvalues --    0.04952   0.11145   0.16327   0.18582   0.23076
 Alpha virt. eigenvalues --    0.23393   0.25049   0.25707   0.27439   0.28498
 Alpha virt. eigenvalues --    0.29788   0.30801   0.31383   0.31572   0.32463

 Mulliken charges:
               1
     1  C   -0.172982
     2  C   -0.218568
     3  C   -0.170574
     4  C    0.158322
     5  C   -0.175772
     6  C   -0.225367
     7  H    0.226495
     8  H    0.223825
     9  H    0.275881
    10  H    0.280209
    11  H    0.234253
    12  N    0.488430
    13  O   -0.461238
    14  O   -0.459722
    15  C   -0.304661
    16  C   -0.304626
    17  C   -0.475315
    18  H    0.150949
    19  H    0.149185
    20  H    0.153043
    21  H    0.160932
    22  H    0.154810
    23  H    0.153031
    24  H    0.165723
    25  C   -0.301321
    26  C   -0.302948
    27  C   -0.476038
    28  H    0.155635
    29  H    0.144871
    30  H    0.156901
    31  H    0.141351
    32  H    0.154555
    33  H    0.159838
    34  H    0.160891
 Sum of Mulliken charges =  -0.00000

 Dipole moment (field-independent basis, Debye):
    X=             -1.7791    Y=             -4.1538    Z=              2.4225  Tot=              5.1272
 Quadrupole moment (field-independent basis, Debye-Ang):
   XX=            -97.7058   YY=            -93.1172   ZZ=            -96.2996
   XY=            -10.9390   XZ=              7.8077   YZ=             -0.3080

 Normal termination of Gaussian 16 at Thu May  6 17:30:48 2021.
