 Gaussian 16, Revision A.03,
 Gaussian 16:  EM64L-G16RevA.03 25-Dec-2016

 -------------
 #p 6-31g* mp2
 -------------

 ------------------------------------------------------
 Input file generated by CHIRIPA (05-May-2021 14:55:22)
 ------------------------------------------------------
 Symbolic Z-matrix:
 Charge =  0 Multiplicity = 1

                         Standard orientation:
 ---------------------------------------------------------------------
 Center     Atomic      Atomic             Coordinates (Angstroms)
 Number     Number       Type             X           Y           Z
 ---------------------------------------------------------------------
      1          6           0        0.488157   -0.911526    0.900581
      2          6           0        0.854683   -1.157695   -0.426664
      3          6           0        2.150436   -0.875651   -0.869411
      4          6           0        3.058346   -0.345654    0.046062
      5          6           0        2.723425   -0.089288    1.374744
      6          6           0        1.422051   -0.379047    1.795472
      7          1           0       -0.520599   -1.133622    1.235965
      8          1           0        0.131494   -1.571176   -1.123855
      9          1           0        2.460888   -1.056430   -1.891349
     10          1           0        3.466314    0.323403    2.046474
     11          1           0        1.140200   -0.186843    2.826812
     12          7           0        4.433077   -0.042982   -0.410999
     13          8           0        5.214392    0.423514    0.415176
     14          8           0        4.703246   -0.277976   -1.586764
     15          6           0       -2.953030    0.828564   -0.324111
     16          6           0       -2.882812    2.311337    0.042550
     17          6           0       -1.532996    2.941986   -0.301070
     18          1           0       -2.151163    0.289682    0.198919
     19          1           0       -2.756891    0.714179   -1.399211
     20          1           0       -3.080392    2.423021    1.116377
     21          1           0       -3.685058    2.846722   -0.481263
     22          1           0       -1.331452    2.859976   -1.374036
     23          1           0       -0.723351    2.433868    0.232683
     24          1           0       -1.504707    4.002135   -0.030621
     25          6           0       -4.296311    0.184012    0.013349
     26          6           0       -4.366530   -1.298761   -0.353312
     27          6           0       -5.716345   -1.929410   -0.009692
     28          1           0       -4.492449    0.298398    1.088449
     29          1           0       -5.098177    0.722895   -0.509681
     30          1           0       -3.564283   -1.834145    0.170501
     31          1           0       -4.168950   -1.410445   -1.427139
     32          1           0       -6.525990   -1.421292   -0.543444
     33          1           0       -5.917888   -1.847399    1.063274
     34          1           0       -5.744633   -2.989559   -0.280141
 ---------------------------------------------------------------------

 SCF Done:  E(RHF) =  -669.535307582     A.U. after   15 cycles
 E2 =    -0.2092450565D+01 EUMP2 =    -0.67162775814755D+03

 The electronic state is 1-A.
 Alpha  occ. eigenvalues --  -20.60772 -20.60766 -15.85825 -11.31208 -11.27780
 Alpha  occ. eigenvalues --  -11.27762 -11.27525 -11.26815 -11.26781 -11.22540
 Alpha  occ. eigenvalues --  -11.22274 -11.22220 -11.22178 -11.21811 -11.21502
 Alpha  occ. eigenvalues --   -1.59846  -1.39399  -1.19385  -1.09244  -1.08779
 Alpha  occ. eigenvalues --   -1.04785  -1.04246  -0.96676  -0.95614  -0.87687
 Alpha  occ. eigenvalues --   -0.86182  -0.82443  -0.80324  -0.79082  -0.77478
 Alpha  occ. eigenvalues --   -0.72044  -0.71169  -0.70529  -0.65885  -0.65036
 Alpha  occ. eigenvalues --   -0.64778  -0.62128  -0.61648  -0.60051  -0.58295
 Alpha  occ. eigenvalues --   -0.56006  -0.55281  -0.53346  -0.53129  -0.53081
 Alpha  occ. eigenvalues --   -0.52874  -0.50615  -0.48804  -0.48797  -0.48625
 Alpha  occ. eigenvalues --   -0.47373  -0.46589  -0.46524  -0.44801  -0.44523
 Alpha  occ. eigenvalues --   -0.37323  -0.36382
 Alpha virt. eigenvalues --    0.05011   0.11234   0.16382   0.19378   0.22795
 Alpha virt. eigenvalues --    0.23618   0.24999   0.25956   0.27224   0.27609
 Alpha virt. eigenvalues --    0.30221   0.30521   0.31190   0.31257   0.31578

 Mulliken charges:
               1
     1  C   -0.170807
     2  C   -0.217148
     3  C   -0.171064
     4  C    0.158923
     5  C   -0.170863
     6  C   -0.220530
     7  H    0.226845
     8  H    0.225140
     9  H    0.275757
    10  H    0.275768
    11  H    0.223658
    12  N    0.488067
    13  O   -0.460335
    14  O   -0.460269
    15  C   -0.302075
    16  C   -0.299788
    17  C   -0.477846
    18  H    0.142979
    19  H    0.150401
    20  H    0.151011
    21  H    0.154518
    22  H    0.156495
    23  H    0.157440
    24  H    0.162365
    25  C   -0.298534
    26  C   -0.299305
    27  C   -0.475860
    28  H    0.149573
    29  H    0.153683
    30  H    0.142652
    31  H    0.152991
    32  H    0.158240
    33  H    0.156104
    34  H    0.161814
 Sum of Mulliken charges =  -0.00000

 Dipole moment (field-independent basis, Debye):
    X=             -4.9291    Y=             -1.0083    Z=              1.5616  Tot=              5.2679
 Quadrupole moment (field-independent basis, Debye-Ang):
   XX=           -124.8731   YY=            -94.3826   ZZ=            -89.6274
   XY=             -1.8650   XZ=              6.6092   YZ=              0.9745

 Normal termination of Gaussian 16 at Thu May  6 01:28:29 2021.
