 Gaussian 16, Revision A.03,
 Gaussian 16:  EM64L-G16RevA.03 25-Dec-2016

 -------------
 #p 6-31g* mp2
 -------------

 ------------------------------------------------------
 Input file generated by CHIRIPA (05-May-2021 14:53:11)
 ------------------------------------------------------
 Symbolic Z-matrix:
 Charge =  0 Multiplicity = 1

                         Standard orientation:
 ---------------------------------------------------------------------
 Center     Atomic      Atomic             Coordinates (Angstroms)
 Number     Number       Type             X           Y           Z
 ---------------------------------------------------------------------
      1          6           0       -3.725156   -0.231028   -0.338628
      2          6           0       -3.010167   -1.559012   -0.590088
      3          6           0       -3.961529   -2.665394   -1.046840
      4          1           0       -4.506723   -0.380375    0.418864
      5          1           0       -4.237566    0.081557   -1.259020
      6          1           0       -2.498113   -1.868306    0.330104
      7          1           0       -2.230084   -1.406444   -1.346930
      8          1           0       -4.463215   -2.382065   -1.977773
      9          1           0       -4.732767   -2.846551   -0.291210
     10          1           0       -3.429482   -3.605882   -1.220820
     11          6           0       -2.787341    0.884855    0.118575
     12          6           0       -3.502330    2.212840    0.370036
     13          6           0       -2.550968    3.319222    0.826787
     14          1           0       -2.274931    0.572271    1.038968
     15          1           0       -2.005774    1.034203   -0.638916
     16          1           0       -4.282413    2.060271    1.126878
     17          1           0       -4.014385    2.522133   -0.550157
     18          1           0       -1.779731    3.500379    0.071158
     19          1           0       -2.049282    3.035893    1.757721
     20          1           0       -3.083016    4.259709    1.000768
     21          6           0        4.202670    0.953871   -1.381085
     22          6           0        4.600466    0.460418   -0.134174
     23          6           0        3.689893   -0.211187    0.687014
     24          6           0        2.383585   -0.372309    0.227786
     25          6           0        1.956907    0.107851   -1.009421
     26          6           0        2.884484    0.776326   -1.813965
     27          1           0        4.916629    1.474374   -2.012539
     28          1           0        5.623534    0.596844    0.204591
     29          1           0        3.971077   -0.603330    1.656848
     30          1           0        0.930206   -0.043515   -1.319891
     31          1           0        2.572745    1.158486   -2.781857
     32          7           0        1.410601   -1.081650    1.088331
     33          8           0        0.265529   -1.210624    0.660763
     34          8           0        1.811472   -1.495228    2.174100
 ---------------------------------------------------------------------

 SCF Done:  E(RHF) =  -669.535808127     A.U. after   15 cycles
 E2 =    -0.2092158008D+01 EUMP2 =    -0.67162796613526D+03

 The electronic state is 1-A.
 Alpha  occ. eigenvalues --  -20.60918 -20.60905 -15.85939 -11.31266 -11.27832
 Alpha  occ. eigenvalues --  -11.27827 -11.27570 -11.26840 -11.26830 -11.21027
 Alpha  occ. eigenvalues --  -11.20677 -11.20550 -11.20489 -11.20350 -11.20170
 Alpha  occ. eigenvalues --   -1.59977  -1.39532  -1.19436  -1.08841  -1.07588
 Alpha  occ. eigenvalues --   -1.04833  -1.02737  -0.95684  -0.95233  -0.86259
 Alpha  occ. eigenvalues --   -0.86230  -0.82525  -0.78788  -0.77681  -0.77224
 Alpha  occ. eigenvalues --   -0.72155  -0.71286  -0.70545  -0.65092  -0.64841
 Alpha  occ. eigenvalues --   -0.64229  -0.62180  -0.60144  -0.58602  -0.56814
 Alpha  occ. eigenvalues --   -0.55339  -0.54545  -0.53163  -0.52927  -0.51949
 Alpha  occ. eigenvalues --   -0.51650  -0.49207  -0.48946  -0.48930  -0.47108
 Alpha  occ. eigenvalues --   -0.45817  -0.45065  -0.44889  -0.44600  -0.42981
 Alpha  occ. eigenvalues --   -0.37414  -0.36433
 Alpha virt. eigenvalues --    0.04942   0.11212   0.16430   0.20699   0.23254
 Alpha virt. eigenvalues --    0.24862   0.25349   0.27557   0.28004   0.28560
 Alpha virt. eigenvalues --    0.29361   0.31249   0.31871   0.32303   0.32678

 Mulliken charges:
               1
     1  C   -0.299328
     2  C   -0.299503
     3  C   -0.475866
     4  H    0.147836
     5  H    0.142790
     6  H    0.175813
     7  H    0.144928
     8  H    0.148968
     9  H    0.153135
    10  H    0.159334
    11  C   -0.296134
    12  C   -0.299448
    13  C   -0.474541
    14  H    0.164079
    15  H    0.139594
    16  H    0.151821
    17  H    0.148071
    18  H    0.150006
    19  H    0.156986
    20  H    0.157903
    21  C   -0.170420
    22  C   -0.218676
    23  C   -0.170374
    24  C    0.157327
    25  C   -0.171876
    26  C   -0.218981
    27  H    0.225908
    28  H    0.223701
    29  H    0.275699
    30  H    0.277886
    31  H    0.223753
    32  N    0.493533
    33  O   -0.464079
    34  O   -0.459846
 Sum of Mulliken charges =  -0.00000

 Dipole moment (field-independent basis, Debye):
    X=              3.6597    Y=              2.3644    Z=             -2.8363  Tot=              5.1989
 Quadrupole moment (field-independent basis, Debye-Ang):
   XX=            -77.3596   YY=            -98.6069   ZZ=            -93.3890
   XY=              4.0401   XZ=             -4.7336   YZ=              0.3237

 Normal termination of Gaussian 16 at Wed May  5 21:41:56 2021.
