 Gaussian 16, Revision A.03,
 Gaussian 16:  EM64L-G16RevA.03 25-Dec-2016

 -------------
 #p 6-31g* mp2
 -------------

 ------------------------------------------------------
 Input file generated by CHIRIPA (05-May-2021 14:51:12)
 ------------------------------------------------------
 Symbolic Z-matrix:
 Charge =  0 Multiplicity = 1

                         Standard orientation:
 ---------------------------------------------------------------------
 Center     Atomic      Atomic             Coordinates (Angstroms)
 Number     Number       Type             X           Y           Z
 ---------------------------------------------------------------------
      1          6           0       -3.724250   -0.300762   -0.374433
      2          6           0       -4.948618   -0.117479    0.522960
      3          6           0       -6.157302    0.436498   -0.232014
      4          1           0       -3.463250    0.664532   -0.829440
      5          1           0       -3.982379   -0.976562   -1.201511
      6          1           0       -4.687855    0.556680    1.348871
      7          1           0       -5.206619   -1.083283    0.976034
      8          1           0       -6.445306   -0.237238   -1.045484
      9          1           0       -5.923595    1.412043   -0.670530
     10          1           0       -7.021276    0.559638    0.428475
     11          6           0       -2.507835   -0.853864    0.365932
     12          6           0       -1.283467   -1.037147   -0.531462
     13          6           0       -0.074783   -1.591124    0.223513
     14          1           0       -2.249707   -0.178063    1.193010
     15          1           0       -2.768836   -1.819158    0.820939
     16          1           0       -1.025466   -0.071343   -0.984536
     17          1           0       -1.544230   -1.711306   -1.357372
     18          1           0       -0.308490   -2.566668    0.662028
     19          1           0        0.213221   -0.917388    1.036983
     20          1           0        0.789190   -1.714263   -0.436977
     21          6           0        2.765855    1.139404    0.384847
     22          6           0        2.255191    2.259425   -0.522215
     23          6           0        1.556981    3.376597    0.253815
     24          1           0        1.922457    0.722177    0.951897
     25          1           0        3.460096    1.563179    1.123655
     26          1           0        1.563184    1.833440   -1.259968
     27          1           0        3.099871    2.673905   -1.087313
     28          1           0        2.241969    3.828579    0.978456
     29          1           0        0.696550    2.983339    0.804821
     30          1           0        1.199855    4.166748   -0.414005
     31          6           0        3.466230    0.015222   -0.376346
     32          6           0        3.976894   -1.104799    0.530716
     33          6           0        4.675103   -2.221972   -0.245313
     34          1           0        2.771988   -0.408554   -1.115154
     35          1           0        4.309629    0.432448   -0.943396
     36          1           0        3.132214   -1.519280    1.095815
     37          1           0        4.668901   -0.678814    1.268470
     38          1           0        5.535535   -1.828713   -0.796319
     39          1           0        3.990115   -2.673954   -0.969955
     40          1           0        5.032230   -3.012122    0.422507
 ---------------------------------------------------------------------

 SCF Done:  E(RHF) =  -470.732391217     A.U. after   11 cycles
 E2 =    -0.1584360766D+01 EUMP2 =    -0.47231675198313D+03

 The electronic state is 1-A.
 Alpha  occ. eigenvalues --  -11.21696 -11.21635 -11.21592 -11.21518 -11.21466
 Alpha  occ. eigenvalues --  -11.21401 -11.21339 -11.21277 -11.21148 -11.21095
 Alpha  occ. eigenvalues --  -11.21091 -11.21033  -1.08505  -1.08378  -1.03597
 Alpha  occ. eigenvalues --   -1.03499  -0.96077  -0.95925  -0.87077  -0.86964
 Alpha  occ. eigenvalues --   -0.79670  -0.79558  -0.78318  -0.78190  -0.65294
 Alpha  occ. eigenvalues --   -0.64932  -0.61047  -0.60869  -0.59382  -0.59318
 Alpha  occ. eigenvalues --   -0.57682  -0.57541  -0.55524  -0.55067  -0.52746
 Alpha  occ. eigenvalues --   -0.52637  -0.52484  -0.52378  -0.50046  -0.49848
 Alpha  occ. eigenvalues --   -0.48022  -0.47852  -0.46812  -0.46544  -0.45907
 Alpha  occ. eigenvalues --   -0.45800  -0.45715  -0.45423  -0.43823  -0.43741
 Alpha virt. eigenvalues --    0.19825   0.22767   0.23640   0.25015   0.25309
 Alpha virt. eigenvalues --    0.26145   0.27076   0.27848   0.27970   0.29848
 Alpha virt. eigenvalues --    0.30064   0.31400   0.31572   0.31818   0.32541

 Mulliken charges:
               1
     1  C   -0.298392
     2  C   -0.299708
     3  C   -0.475760
     4  H    0.149871
     5  H    0.149661
     6  H    0.152043
     7  H    0.152004
     8  H    0.155220
     9  H    0.155319
    10  H    0.160398
    11  C   -0.298461
    12  C   -0.301814
    13  C   -0.482173
    14  H    0.149382
    15  H    0.150023
    16  H    0.152684
    17  H    0.152418
    18  H    0.155727
    19  H    0.157708
    20  H    0.164822
    21  C   -0.302576
    22  C   -0.300618
    23  C   -0.475529
    24  H    0.155258
    25  H    0.149142
    26  H    0.152297
    27  H    0.152031
    28  H    0.155439
    29  H    0.154045
    30  H    0.160158
    31  C   -0.299818
    32  C   -0.303199
    33  C   -0.475687
    34  H    0.150434
    35  H    0.149733
    36  H    0.156541
    37  H    0.151692
    38  H    0.155022
    39  H    0.154431
    40  H    0.160237
 Sum of Mulliken charges =  -0.00000

 Dipole moment (field-independent basis, Debye):
    X=             -0.0330    Y=             -0.0219    Z=              0.0123  Tot=              0.0414
 Quadrupole moment (field-independent basis, Debye-Ang):
   XX=            -85.1689   YY=            -84.6047   ZZ=            -85.0856
   XY=              1.5744   XZ=              0.0302   YZ=              0.0331

 Normal termination of Gaussian 16 at Thu May  6 00:43:10 2021.
