 Gaussian 16, Revision A.03,
 Gaussian 16:  EM64L-G16RevA.03 25-Dec-2016

 -------------
 #p 6-31g* mp2
 -------------

 ------------------------------------------------------
 Input file generated by CHIRIPA (05-May-2021 14:51:12)
 ------------------------------------------------------
 Symbolic Z-matrix:
 Charge =  0 Multiplicity = 1

                         Standard orientation:
 ---------------------------------------------------------------------
 Center     Atomic      Atomic             Coordinates (Angstroms)
 Number     Number       Type             X           Y           Z
 ---------------------------------------------------------------------
      1          6           0        3.741984   -0.245201   -0.104337
      2          6           0        4.340126    1.068954   -0.607536
      3          6           0        5.567467    0.858432   -1.494727
      4          1           0        4.508784   -0.799791    0.453689
      5          1           0        3.469672   -0.869866   -0.966332
      6          1           0        4.609954    1.691528    0.255140
      7          1           0        3.571757    1.620567   -1.164266
      8          1           0        5.309368    0.258362   -2.373307
      9          1           0        6.353464    0.329726   -0.945837
     10          1           0        5.978970    1.810799   -1.843325
     11          6           0        2.514337   -0.051196    0.783903
     12          6           0        1.916195   -1.365351    1.287102
     13          6           0        0.688853   -1.154829    2.174293
     14          1           0        2.786648    0.573469    1.645898
     15          1           0        1.747537    0.503394    0.225877
     16          1           0        2.684564   -1.916964    1.843832
     17          1           0        1.646366   -1.987926    0.424426
     18          1           0       -0.097143   -0.626123    1.625402
     19          1           0        0.946953   -0.554759    3.052873
     20          1           0        0.277350   -2.107196    2.522891
     21          6           0       -3.359962    0.856808   -0.505834
     22          6           0       -3.019500    1.876578    0.581428
     23          6           0       -3.489647    3.289571    0.234721
     24          1           0       -2.903654    1.174441   -1.453377
     25          1           0       -4.446738    0.853177   -0.668007
     26          1           0       -1.933830    1.877292    0.742477
     27          1           0       -3.476511    1.556380    1.526537
     28          1           0       -4.575181    3.310741    0.094120
     29          1           0       -3.023734    3.633476   -0.694396
     30          1           0       -3.236014    4.002425    1.025524
     31          6           0       -2.896359   -0.560411   -0.173732
     32          6           0       -3.236820   -1.580181   -1.260994
     33          6           0       -2.766674   -2.993174   -0.914286
     34          1           0       -1.809583   -0.556779   -0.011559
     35          1           0       -3.352666   -0.878044    0.773811
     36          1           0       -2.779809   -1.259983   -2.206103
     37          1           0       -4.322491   -1.580895   -1.422042
     38          1           0       -3.232586   -3.337079    0.014830
     39          1           0       -1.681140   -3.014343   -0.773686
     40          1           0       -3.020307   -3.706027   -1.705090
 ---------------------------------------------------------------------

 SCF Done:  E(RHF) =  -470.733287328     A.U. after   11 cycles
 E2 =    -0.1582950850D+01 EUMP2 =    -0.47231623817862D+03

 The electronic state is 1-A.
 Alpha  occ. eigenvalues --  -11.21624 -11.21623 -11.21620 -11.21617 -11.21434
 Alpha  occ. eigenvalues --  -11.21422 -11.21375 -11.21362 -11.21089 -11.21084
 Alpha  occ. eigenvalues --  -11.21082 -11.21017  -1.08466  -1.08441  -1.03552
 Alpha  occ. eigenvalues --   -1.03534  -0.96010  -0.95973  -0.87029  -0.86986
 Alpha  occ. eigenvalues --   -0.79627  -0.79589  -0.78314  -0.78222  -0.65177
 Alpha  occ. eigenvalues --   -0.65006  -0.60999  -0.60891  -0.59373  -0.59342
 Alpha  occ. eigenvalues --   -0.57664  -0.57548  -0.55380  -0.55197  -0.52696
 Alpha  occ. eigenvalues --   -0.52671  -0.52483  -0.52350  -0.50040  -0.49853
 Alpha  occ. eigenvalues --   -0.47961  -0.47904  -0.46727  -0.46633  -0.45939
 Alpha  occ. eigenvalues --   -0.45770  -0.45756  -0.45438  -0.43802  -0.43797
 Alpha virt. eigenvalues --    0.20452   0.23285   0.23767   0.24177   0.25761
 Alpha virt. eigenvalues --    0.26711   0.27000   0.27561   0.28125   0.29375
 Alpha virt. eigenvalues --    0.30590   0.31612   0.31672   0.31902   0.32215

 Mulliken charges:
               1
     1  C   -0.298286
     2  C   -0.299650
     3  C   -0.475723
     4  H    0.149895
     5  H    0.149435
     6  H    0.152036
     7  H    0.151757
     8  H    0.155179
     9  H    0.155271
    10  H    0.160319
    11  C   -0.298122
    12  C   -0.299941
    13  C   -0.482328
    14  H    0.149893
    15  H    0.148303
    16  H    0.152278
    17  H    0.151165
    18  H    0.161937
    19  H    0.155051
    20  H    0.160613
    21  C   -0.297923
    22  C   -0.300673
    23  C   -0.475680
    24  H    0.149205
    25  H    0.149745
    26  H    0.152224
    27  H    0.152434
    28  H    0.155309
    29  H    0.155070
    30  H    0.160503
    31  C   -0.304573
    32  C   -0.299186
    33  C   -0.475883
    34  H    0.155527
    35  H    0.150209
    36  H    0.151535
    37  H    0.152108
    38  H    0.155481
    39  H    0.155253
    40  H    0.160231
 Sum of Mulliken charges =  -0.00000

 Dipole moment (field-independent basis, Debye):
    X=             -0.0188    Y=              0.0001    Z=              0.0120  Tot=              0.0223
 Quadrupole moment (field-independent basis, Debye-Ang):
   XX=            -84.4004   YY=            -85.9131   ZZ=            -84.3421
   XY=              0.4989   XZ=              0.6207   YZ=              0.0702

 Normal termination of Gaussian 16 at Thu May  6 05:31:38 2021.
