 Gaussian 16, Revision A.03,
 Gaussian 16:  EM64L-G16RevA.03 25-Dec-2016

 -------------
 #p 6-31g* mp2
 -------------

 ------------------------------------------------------
 Input file generated by CHIRIPA (05-May-2021 14:57:22)
 ------------------------------------------------------
 Symbolic Z-matrix:
 Charge =  0 Multiplicity = 1

                         Standard orientation:
 ---------------------------------------------------------------------
 Center     Atomic      Atomic             Coordinates (Angstroms)
 Number     Number       Type             X           Y           Z
 ---------------------------------------------------------------------
      1          6           0        2.738120   -2.351860    0.753189
      2          6           0        3.466992   -1.479906    1.568641
      3          6           0        3.611423   -0.134155    1.218439
      4          6           0        3.011045    0.307821    0.040519
      5          6           0        2.278692   -0.536308   -0.792784
      6          6           0        2.147338   -1.878114   -0.422848
      7          1           0        2.631001   -3.395739    1.032899
      8          1           0        3.926890   -1.845046    2.482540
      9          1           0        4.170257    0.562607    1.831338
     10          1           0        1.831711   -0.143053   -1.697757
     11          1           0        1.580716   -2.553008   -1.058067
     12          7           0        3.157026    1.730419   -0.340670
     13          8           0        2.618410    2.095092   -1.383523
     14          8           0        3.807298    2.453841    0.410625
     15          6           0       -4.304667    1.784716    0.981641
     16          6           0       -3.297785    2.087009    0.058965
     17          6           0       -2.561323    1.065581   -0.548368
     18          6           0       -2.859597   -0.252992   -0.208236
     19          6           0       -3.856644   -0.586218    0.707269
     20          6           0       -4.580395    0.451418    1.302283
     21          1           0       -4.871832    2.584481    1.448647
     22          1           0       -3.081472    3.121557   -0.191961
     23          1           0       -1.776417    1.271331   -1.266008
     24          1           0       -4.049317   -1.627082    0.937261
     25          1           0       -5.361786    0.213690    2.018495
     26          7           0       -2.086665   -1.342911   -0.844673
     27          8           0       -2.368828   -2.496491   -0.528009
     28          8           0       -1.213313   -1.022973   -1.648124
 ---------------------------------------------------------------------

 SCF Done:  E(RHF) =  -868.341094040     A.U. after   16 cycles
 E2 =    -0.2598996492D+01 EUMP2 =    -0.87094009053183D+03

 The electronic state is 1-A.
 Alpha  occ. eigenvalues --  -20.61409 -20.61400 -20.60307 -20.60298 -15.86419
 Alpha  occ. eigenvalues --  -15.85344 -11.31433 -11.30407 -11.27991 -11.27913
 Alpha  occ. eigenvalues --  -11.27652 -11.27013 -11.26934 -11.26856 -11.26785
 Alpha  occ. eigenvalues --  -11.26619 -11.25997 -11.25679  -1.60462  -1.59388
 Alpha  occ. eigenvalues --   -1.40027  -1.38948  -1.19577  -1.18550  -1.09041
 Alpha  occ. eigenvalues --   -1.08009  -1.04921  -1.03866  -0.95934  -0.94888
 Alpha  occ. eigenvalues --   -0.86339  -0.85293  -0.82784  -0.81704  -0.77859
 Alpha  occ. eigenvalues --   -0.76784  -0.72672  -0.71754  -0.71568  -0.70710
 Alpha  occ. eigenvalues --   -0.70683  -0.69649  -0.65234  -0.64920  -0.64181
 Alpha  occ. eigenvalues --   -0.63838  -0.62266  -0.61186  -0.55447  -0.54414
 Alpha  occ. eigenvalues --   -0.53278  -0.53005  -0.52273  -0.51928  -0.49422
 Alpha  occ. eigenvalues --   -0.49389  -0.48337  -0.48297  -0.45506  -0.44420
 Alpha  occ. eigenvalues --   -0.37547  -0.36559  -0.36508  -0.35444
 Alpha virt. eigenvalues --    0.04601   0.05706   0.11146   0.12169   0.16167
 Alpha virt. eigenvalues --    0.17265   0.21263   0.22419   0.27188   0.27757
 Alpha virt. eigenvalues --    0.28633   0.29241   0.30959   0.31895   0.32249

 Mulliken charges:
               1
     1  C   -0.172596
     2  C   -0.219578
     3  C   -0.173658
     4  C    0.155182
     5  C   -0.170645
     6  C   -0.219570
     7  H    0.225035
     8  H    0.219600
     9  H    0.271427
    10  H    0.281923
    11  H    0.239842
    12  N    0.487994
    13  O   -0.463753
    14  O   -0.463921
    15  C   -0.169824
    16  C   -0.218773
    17  C   -0.170582
    18  C    0.157545
    19  C   -0.171064
    20  C   -0.218855
    21  H    0.227317
    22  H    0.228377
    23  H    0.279961
    24  H    0.274268
    25  H    0.223776
    26  N    0.490757
    27  O   -0.461472
    28  O   -0.468711
 Sum of Mulliken charges =  -0.00000

 Dipole moment (field-independent basis, Debye):
    X=             -3.5909    Y=             -1.2225    Z=              3.4569  Tot=              5.1322
 Quadrupole moment (field-independent basis, Debye-Ang):
   XX=            -91.1493   YY=           -108.1220   ZZ=           -101.9197
   XY=            -23.9913   XZ=             -1.4640   YZ=             -2.1789

 Normal termination of Gaussian 16 at Fri May  7 04:50:56 2021.
