 Gaussian 16, Revision A.03,
 Gaussian 16:  EM64L-G16RevA.03 25-Dec-2016

 -------------
 #p 6-31g* mp2
 -------------

 ------------------------------------------------------
 Input file generated by CHIRIPA (05-May-2021 14:51:13)
 ------------------------------------------------------
 Symbolic Z-matrix:
 Charge =  0 Multiplicity = 1

                         Standard orientation:
 ---------------------------------------------------------------------
 Center     Atomic      Atomic             Coordinates (Angstroms)
 Number     Number       Type             X           Y           Z
 ---------------------------------------------------------------------
      1          6           0       -2.971562   -0.311818   -0.267954
      2          6           0       -4.231426    0.026918    0.529533
      3          6           0       -4.938934    1.280069    0.012969
      4          1           0       -2.281365    0.542126   -0.231174
      5          1           0       -3.240902   -0.450758   -1.324148
      6          1           0       -3.960005    0.163817    1.584145
      7          1           0       -4.918622   -0.828005    0.491011
      8          1           0       -5.237832    1.150498   -1.032245
      9          1           0       -4.273768    2.147955    0.067101
     10          1           0       -5.836858    1.503843    0.597364
     11          6           0       -2.253175   -1.562101    0.236468
     12          6           0       -0.993311   -1.900838   -0.561019
     13          6           0       -0.285803   -3.153989   -0.044455
     14          1           0       -1.983835   -1.423161    1.292662
     15          1           0       -2.943372   -2.416046    0.199689
     16          1           0       -0.306116   -1.045915   -0.522496
     17          1           0       -1.264733   -2.037737   -1.615630
     18          1           0       -0.950969   -4.021875   -0.098586
     19          1           0        0.013095   -3.024417    1.000759
     20          1           0        0.612121   -3.377763   -0.628849
     21          6           0        2.106131    1.365012   -0.363634
     22          6           0        1.618164    2.575694    0.432685
     23          6           0        0.605878    3.422254   -0.339591
     24          1           0        2.556512    1.710206   -1.304348
     25          1           0        1.242528    0.744290   -0.639838
     26          1           0        2.482574    3.193223    0.708491
     27          1           0        1.169064    2.227590    1.371700
     28          1           0       -0.274273    2.826315   -0.601870
     29          1           0        1.046700    3.797436   -1.268846
     30          1           0        0.270355    4.282358    0.248206
     31          6           0        3.118606    0.508907    0.395119
     32          6           0        3.606573   -0.701774   -0.401199
     33          6           0        4.618858   -1.548334    0.371077
     34          1           0        3.982209    1.129629    0.671323
     35          1           0        2.668224    0.163714    1.335834
     36          1           0        4.055673   -0.353671   -1.340214
     37          1           0        2.742163   -1.319304   -0.677005
     38          1           0        4.178038   -1.923516    1.300333
     39          1           0        5.499011   -0.952397    0.633356
     40          1           0        4.954382   -2.408438   -0.216721
 ---------------------------------------------------------------------

 SCF Done:  E(RHF) =  -470.733337025     A.U. after   11 cycles
 E2 =    -0.1583919248D+01 EUMP2 =    -0.47231725627327D+03

 The electronic state is 1-A.
 Alpha  occ. eigenvalues --  -11.21663 -11.21640 -11.21640 -11.21596 -11.21469
 Alpha  occ. eigenvalues --  -11.21421 -11.21410 -11.21361 -11.21145 -11.21117
 Alpha  occ. eigenvalues --  -11.21089 -11.21063  -1.08502  -1.08441  -1.03586
 Alpha  occ. eigenvalues --   -1.03546  -0.96032  -0.95998  -0.87056  -0.87005
 Alpha  occ. eigenvalues --   -0.79663  -0.79600  -0.78376  -0.78198  -0.65307
 Alpha  occ. eigenvalues --   -0.64924  -0.61006  -0.60927  -0.59417  -0.59348
 Alpha  occ. eigenvalues --   -0.57646  -0.57606  -0.55362  -0.55251  -0.52729
 Alpha  occ. eigenvalues --   -0.52687  -0.52491  -0.52390  -0.50056  -0.49866
 Alpha  occ. eigenvalues --   -0.48009  -0.47902  -0.46823  -0.46632  -0.46119
 Alpha  occ. eigenvalues --   -0.45802  -0.45780  -0.45248  -0.43838  -0.43801
 Alpha virt. eigenvalues --    0.19395   0.21808   0.23788   0.24629   0.25610
 Alpha virt. eigenvalues --    0.26790   0.27146   0.27284   0.27442   0.29574
 Alpha virt. eigenvalues --    0.30873   0.31484   0.31719   0.31838   0.31996

 Mulliken charges:
               1
     1  C   -0.300826
     2  C   -0.299621
     3  C   -0.475902
     4  H    0.150760
     5  H    0.150014
     6  H    0.152001
     7  H    0.152196
     8  H    0.155299
     9  H    0.155559
    10  H    0.160406
    11  C   -0.297546
    12  C   -0.310360
    13  C   -0.476445
    14  H    0.149300
    15  H    0.150156
    16  H    0.160675
    17  H    0.152532
    18  H    0.155717
    19  H    0.154934
    20  H    0.161470
    21  C   -0.307663
    22  C   -0.299064
    23  C   -0.477973
    24  H    0.150182
    25  H    0.157528
    26  H    0.152302
    27  H    0.151305
    28  H    0.156376
    29  H    0.155760
    30  H    0.160413
    31  C   -0.297553
    32  C   -0.303504
    33  C   -0.475503
    34  H    0.149726
    35  H    0.149168
    36  H    0.151898
    37  H    0.155633
    38  H    0.155367
    39  H    0.155085
    40  H    0.160200
 Sum of Mulliken charges =  -0.00000

 Dipole moment (field-independent basis, Debye):
    X=             -0.0131    Y=             -0.0115    Z=             -0.0115  Tot=              0.0209
 Quadrupole moment (field-independent basis, Debye-Ang):
   XX=            -84.7598   YY=            -85.3752   ZZ=            -84.4776
   XY=              1.8695   XZ=             -0.4269   YZ=              0.6818

 Normal termination of Gaussian 16 at Thu May  6 00:47:44 2021.
