 Gaussian 16, Revision A.03,
 Gaussian 16:  EM64L-G16RevA.03 25-Dec-2016

 -------------
 #p 6-31g* mp2
 -------------

 ------------------------------------------------------
 Input file generated by CHIRIPA (05-May-2021 14:51:10)
 ------------------------------------------------------
 Symbolic Z-matrix:
 Charge =  0 Multiplicity = 1

                         Standard orientation:
 ---------------------------------------------------------------------
 Center     Atomic      Atomic             Coordinates (Angstroms)
 Number     Number       Type             X           Y           Z
 ---------------------------------------------------------------------
      1          6           0       -3.469150   -0.473837   -0.050113
      2          6           0       -4.745809   -1.311633   -0.129013
      3          6           0       -4.470163   -2.814872   -0.083339
      4          1           0       -2.804135   -0.751483   -0.879337
      5          1           0       -2.933201   -0.721288    0.876667
      6          1           0       -5.279891   -1.061670   -1.054697
      7          1           0       -5.407944   -1.031825    0.700385
      8          1           0       -3.958270   -3.084603    0.846076
      9          1           0       -3.829490   -3.114617   -0.918978
     10          1           0       -5.396538   -3.394835   -0.141067
     11          6           0       -3.728363    1.031007   -0.094615
     12          6           0       -2.451704    1.868804   -0.015715
     13          6           0       -2.727350    3.372043   -0.061388
     14          1           0       -4.264312    1.278459   -1.021395
     15          1           0       -4.393378    1.308653    0.734610
     16          1           0       -1.789569    1.588995   -0.845112
     17          1           0       -1.917622    1.618840    0.909969
     18          1           0       -3.368023    3.671787    0.774250
     19          1           0       -3.239243    3.641773   -0.990804
     20          1           0       -1.800975    3.952005   -0.003661
     21          6           0        4.235831    0.140441    0.116915
     22          6           0        5.493013   -0.620757   -0.305053
     23          6           0        6.759362    0.230839   -0.210499
     24          1           0        4.126739    1.033541   -0.513495
     25          1           0        4.361512    0.499060    1.147930
     26          1           0        5.364440   -0.979020   -1.334486
     27          1           0        5.599021   -1.512251    0.326308
     28          1           0        6.915142    0.576832    0.816449
     29          1           0        6.679229    1.113090   -0.853782
     30          1           0        7.646070   -0.332916   -0.516748
     31          6           0        2.961682   -0.697611    0.027812
     32          6           0        1.704499    0.063586    0.449781
     33          6           0        0.438151   -0.788009    0.355228
     34          1           0        2.836001   -1.056230   -1.003203
     35          1           0        3.070774   -1.590710    0.658223
     36          1           0        1.598493    0.955080   -0.181581
     37          1           0        1.833073    0.421851    1.479214
     38          1           0        0.518284   -1.670261    0.998509
     39          1           0        0.282371   -1.134001   -0.671721
     40          1           0       -0.448557   -0.224255    0.661476
 ---------------------------------------------------------------------

 SCF Done:  E(RHF) =  -470.732167308     A.U. after   11 cycles
 E2 =    -0.1583807273D+01 EUMP2 =    -0.47231597458091D+03

 The electronic state is 1-A.
 Alpha  occ. eigenvalues --  -11.21627 -11.21573 -11.21573 -11.21515 -11.21397
 Alpha  occ. eigenvalues --  -11.21357 -11.21315 -11.21295 -11.21088 -11.21051
 Alpha  occ. eigenvalues --  -11.21037 -11.20850  -1.08447  -1.08364  -1.03540
 Alpha  occ. eigenvalues --   -1.03453  -0.95985  -0.95900  -0.86993  -0.86934
 Alpha  occ. eigenvalues --   -0.79614  -0.79549  -0.78263  -0.78167  -0.65083
 Alpha  occ. eigenvalues --   -0.64995  -0.60935  -0.60859  -0.59502  -0.59165
 Alpha  occ. eigenvalues --   -0.57594  -0.57520  -0.55270  -0.55190  -0.52863
 Alpha  occ. eigenvalues --   -0.52507  -0.52409  -0.52281  -0.49924  -0.49851
 Alpha  occ. eigenvalues --   -0.48019  -0.47754  -0.46637  -0.46574  -0.45770
 Alpha  occ. eigenvalues --   -0.45741  -0.45689  -0.45630  -0.43804  -0.43554
 Alpha virt. eigenvalues --    0.21862   0.23118   0.23765   0.24551   0.25624
 Alpha virt. eigenvalues --    0.26402   0.26938   0.27455   0.27961   0.29693
 Alpha virt. eigenvalues --    0.30768   0.31058   0.31386   0.31891   0.32135

 Mulliken charges:
               1
     1  C   -0.301261
     2  C   -0.299459
     3  C   -0.475488
     4  H    0.152256
     5  H    0.151119
     6  H    0.151626
     7  H    0.151603
     8  H    0.155381
     9  H    0.155299
    10  H    0.159983
    11  C   -0.297845
    12  C   -0.303843
    13  C   -0.474964
    14  H    0.149434
    15  H    0.149379
    16  H    0.154382
    17  H    0.152901
    18  H    0.155179
    19  H    0.155196
    20  H    0.160386
    21  C   -0.298103
    22  C   -0.299561
    23  C   -0.475656
    24  H    0.149414
    25  H    0.149341
    26  H    0.151810
    27  H    0.151880
    28  H    0.155117
    29  H    0.155093
    30  H    0.160141
    31  C   -0.298247
    32  C   -0.299737
    33  C   -0.483605
    34  H    0.149173
    35  H    0.149504
    36  H    0.151566
    37  H    0.150910
    38  H    0.153209
    39  H    0.153227
    40  H    0.173261
 Sum of Mulliken charges =  -0.00000

 Dipole moment (field-independent basis, Debye):
    X=             -0.0553    Y=              0.0160    Z=             -0.0025  Tot=              0.0576
 Quadrupole moment (field-independent basis, Debye-Ang):
   XX=            -85.9492   YY=            -86.2224   ZZ=            -82.7722
   XY=             -0.4802   XZ=              0.0374   YZ=             -0.2753

 Normal termination of Gaussian 16 at Wed May  5 18:13:24 2021.
