 Gaussian 16, Revision A.03,
 Gaussian 16:  EM64L-G16RevA.03 25-Dec-2016

 -------------
 #p 6-31g* mp2
 -------------

 ------------------------------------------------------
 Input file generated by CHIRIPA (05-May-2021 14:57:26)
 ------------------------------------------------------
 Symbolic Z-matrix:
 Charge =  0 Multiplicity = 1

                         Standard orientation:
 ---------------------------------------------------------------------
 Center     Atomic      Atomic             Coordinates (Angstroms)
 Number     Number       Type             X           Y           Z
 ---------------------------------------------------------------------
      1          6           0       -0.830413   -1.146591    1.737973
      2          6           0       -1.569932   -2.059682    0.979093
      3          6           0       -2.640530   -1.625786    0.191629
      4          6           0       -2.945392   -0.265520    0.186565
      5          6           0       -2.227543    0.668699    0.931694
      6          6           0       -1.160996    0.212290    1.711897
      7          1           0       -0.000321   -1.492396    2.346874
      8          1           0       -1.315463   -3.115596    0.997410
      9          1           0       -3.229763   -2.311067   -0.405543
     10          1           0       -2.505092    1.715069    0.893051
     11          1           0       -0.588429    0.923673    2.300239
     12          7           0       -4.076642    0.205743   -0.643246
     13          8           0       -4.325062    1.409389   -0.630497
     14          8           0       -4.693475   -0.637449   -1.290686
     15          6           0        4.390125   -1.576426   -0.465663
     16          6           0        3.194116   -1.618980   -1.189730
     17          6           0        2.282939   -0.561048   -1.118431
     18          6           0        2.601252    0.528771   -0.309567
     19          6           0        3.784586    0.600609    0.423816
     20          6           0        4.681030   -0.468720    0.337384
     21          1           0        5.092227   -2.402681   -0.526928
     22          1           0        2.965563   -2.477961   -1.814198
     23          1           0        1.349724   -0.568014   -1.668412
     24          1           0        3.984666    1.470348    1.037771
     25          1           0        5.609100   -0.432950    0.900812
     26          7           0        1.644428    1.654789   -0.226075
     27          8           0        1.948294    2.603554    0.493749
     28          8           0        0.608721    1.567276   -0.882041
 ---------------------------------------------------------------------

 SCF Done:  E(RHF) =  -868.338106085     A.U. after   16 cycles
 E2 =    -0.2601654744D+01 EUMP2 =    -0.87093976082814D+03

 The electronic state is 1-A.
 Alpha  occ. eigenvalues --  -20.61441 -20.61369 -20.60144 -20.60111 -15.86415
 Alpha  occ. eigenvalues --  -15.85182 -11.31763 -11.30505 -11.28347 -11.28298
 Alpha  occ. eigenvalues --  -11.28067 -11.27336 -11.27311 -11.27192 -11.27005
 Alpha  occ. eigenvalues --  -11.26945 -11.26247 -11.26034  -1.60475  -1.59203
 Alpha  occ. eigenvalues --   -1.40026  -1.38758  -1.19940  -1.18712  -1.09339
 Alpha  occ. eigenvalues --   -1.08144  -1.05328  -1.04108  -0.96176  -0.94968
 Alpha  occ. eigenvalues --   -0.86723  -0.85536  -0.83005  -0.81795  -0.78056
 Alpha  occ. eigenvalues --   -0.76826  -0.72656  -0.71819  -0.71410  -0.71029
 Alpha  occ. eigenvalues --   -0.70516  -0.69873  -0.65584  -0.65319  -0.64383
 Alpha  occ. eigenvalues --   -0.64143  -0.62663  -0.61454  -0.55826  -0.54695
 Alpha  occ. eigenvalues --   -0.53677  -0.53408  -0.52461  -0.52219  -0.49421
 Alpha  occ. eigenvalues --   -0.49418  -0.48174  -0.48151  -0.45435  -0.44170
 Alpha  occ. eigenvalues --   -0.37955  -0.37027  -0.36646  -0.35603
 Alpha virt. eigenvalues --    0.04410   0.05746   0.10715   0.11922   0.15943
 Alpha virt. eigenvalues --    0.17180   0.20906   0.21950   0.26822   0.27746
 Alpha virt. eigenvalues --    0.27937   0.28852   0.30478   0.31447   0.32034

 Mulliken charges:
               1
     1  C   -0.174940
     2  C   -0.221943
     3  C   -0.173612
     4  C    0.156506
     5  C   -0.151778
     6  C   -0.221949
     7  H    0.221170
     8  H    0.217356
     9  H    0.272135
    10  H    0.281222
    11  H    0.228416
    12  N    0.488290
    13  O   -0.457264
    14  O   -0.465035
    15  C   -0.171202
    16  C   -0.220663
    17  C   -0.169490
    18  C    0.155621
    19  C   -0.173201
    20  C   -0.219378
    21  H    0.226993
    22  H    0.224884
    23  H    0.279374
    24  H    0.275613
    25  H    0.224631
    26  N    0.486376
    27  O   -0.464303
    28  O   -0.453828
 Sum of Mulliken charges =  -0.00000

 Dipole moment (field-independent basis, Debye):
    X=              7.4069    Y=             -5.3462    Z=              2.5242  Tot=              9.4771
 Quadrupole moment (field-independent basis, Debye-Ang):
   XX=           -109.9923   YY=           -103.5116   ZZ=           -102.3776
   XY=             -3.1028   XZ=             -7.3744   YZ=              3.6030

 Normal termination of Gaussian 16 at Thu May  6 14:48:19 2021.
