 Gaussian 16, Revision A.03,
 Gaussian 16:  EM64L-G16RevA.03 25-Dec-2016

 -------------
 #p 6-31g* mp2
 -------------

 ------------------------------------------------------
 Input file generated by CHIRIPA (05-May-2021 14:53:15)
 ------------------------------------------------------
 Symbolic Z-matrix:
 Charge =  0 Multiplicity = 1

                         Standard orientation:
 ---------------------------------------------------------------------
 Center     Atomic      Atomic             Coordinates (Angstroms)
 Number     Number       Type             X           Y           Z
 ---------------------------------------------------------------------
      1          6           0       -3.045210   -0.425268   -0.483461
      2          6           0       -3.623895   -1.829845   -0.657449
      3          6           0       -2.685285   -2.765667   -1.419712
      4          1           0       -2.825847   -0.000840   -1.472747
      5          1           0       -2.085249   -0.494838    0.046662
      6          1           0       -4.583145   -1.757522   -1.185865
      7          1           0       -3.842084   -2.250904    0.332358
      8          1           0       -1.731151   -2.867472   -0.892583
      9          1           0       -2.476423   -2.371286   -2.419433
     10          1           0       -3.118704   -3.764289   -1.532681
     11          6           0       -3.971935    0.521880    0.276682
     12          6           0       -3.393250    1.926457    0.450670
     13          6           0       -4.331860    2.862279    1.212933
     14          1           0       -4.931896    0.591450   -0.253441
     15          1           0       -4.191298    0.097452    1.265968
     16          1           0       -3.175061    2.347516   -0.539138
     17          1           0       -2.434000    1.854134    0.979086
     18          1           0       -4.540722    2.467898    2.212653
     19          1           0       -5.285994    2.964084    0.685804
     20          1           0       -3.898441    3.860901    1.325902
     21          6           0        1.843267   -1.870059    1.564847
     22          6           0        3.088731   -1.295048    1.838170
     23          6           0        3.596064   -0.279126    1.022655
     24          6           0        2.827869    0.139403   -0.062702
     25          6           0        1.583563   -0.413756   -0.361046
     26          6           0        1.095977   -1.428356    0.468044
     27          1           0        1.456830   -2.658738    2.203633
     28          1           0        3.671274   -1.636086    2.689275
     29          1           0        4.557243    0.183446    1.211287
     30          1           0        1.025904   -0.052789   -1.216697
     31          1           0        0.128418   -1.873091    0.253372
     32          7           0        3.354507    1.214214   -0.933238
     33          8           0        2.658267    1.565207   -1.883337
     34          8           0        4.453555    1.685306   -0.648980
 ---------------------------------------------------------------------

 SCF Done:  E(RHF) =  -669.535381520     A.U. after   15 cycles
 E2 =    -0.2091822738D+01 EUMP2 =    -0.67162720425809D+03

 The electronic state is 1-A.
 Alpha  occ. eigenvalues --  -20.60737 -20.60732 -15.85791 -11.31156 -11.27740
 Alpha  occ. eigenvalues --  -11.27719 -11.27481 -11.26751 -11.26713 -11.22353
 Alpha  occ. eigenvalues --  -11.22107 -11.22018 -11.21906 -11.21839 -11.21285
 Alpha  occ. eigenvalues --   -1.59813  -1.39366  -1.19335  -1.09020  -1.08730
 Alpha  occ. eigenvalues --   -1.04738  -1.04088  -0.96556  -0.95563  -0.87571
 Alpha  occ. eigenvalues --   -0.86140  -0.82400  -0.80164  -0.78812  -0.77435
 Alpha  occ. eigenvalues --   -0.72010  -0.71136  -0.70443  -0.65709  -0.64985
 Alpha  occ. eigenvalues --   -0.64729  -0.62140  -0.61433  -0.59928  -0.58150
 Alpha  occ. eigenvalues --   -0.55877  -0.55243  -0.53227  -0.53093  -0.53006
 Alpha  occ. eigenvalues --   -0.52796  -0.50512  -0.48780  -0.48763  -0.48452
 Alpha  occ. eigenvalues --   -0.47183  -0.46336  -0.46239  -0.44771  -0.44338
 Alpha  occ. eigenvalues --   -0.37319  -0.36332
 Alpha virt. eigenvalues --    0.05078   0.11280   0.16477   0.19217   0.22804
 Alpha virt. eigenvalues --    0.23697   0.25393   0.26405   0.27023   0.28376
 Alpha virt. eigenvalues --    0.29282   0.29907   0.31188   0.31569   0.32095

 Mulliken charges:
               1
     1  C   -0.303077
     2  C   -0.300542
     3  C   -0.479689
     4  H    0.153172
     5  H    0.143639
     6  H    0.156753
     7  H    0.151800
     8  H    0.145380
     9  H    0.160143
    10  H    0.165208
    11  C   -0.298139
    12  C   -0.300887
    13  C   -0.476202
    14  H    0.151880
    15  H    0.149363
    16  H    0.155151
    17  H    0.152668
    18  H    0.154539
    19  H    0.155810
    20  H    0.163040
    21  C   -0.173043
    22  C   -0.218600
    23  C   -0.170874
    24  C    0.158541
    25  C   -0.173837
    26  C   -0.227557
    27  H    0.225976
    28  H    0.223278
    29  H    0.275554
    30  H    0.276881
    31  H    0.236507
    32  N    0.488154
    33  O   -0.460252
    34  O   -0.460738
 Sum of Mulliken charges =  -0.00000

 Dipole moment (field-independent basis, Debye):
    X=             -2.0253    Y=             -3.7204    Z=              3.0189  Tot=              5.2017
 Quadrupole moment (field-independent basis, Debye-Ang):
   XX=           -101.5517   YY=            -96.9294   ZZ=            -93.4169
   XY=            -10.4942   XZ=             12.5028   YZ=              0.1913

 Normal termination of Gaussian 16 at Thu May  6 01:04:31 2021.
