 Gaussian 16, Revision A.03,
 Gaussian 16:  EM64L-G16RevA.03 25-Dec-2016

 -------------
 #p 6-31g* mp2
 -------------

 ------------------------------------------------------
 Input file generated by CHIRIPA (05-May-2021 14:57:25)
 ------------------------------------------------------
 Symbolic Z-matrix:
 Charge =  0 Multiplicity = 1

                         Standard orientation:
 ---------------------------------------------------------------------
 Center     Atomic      Atomic             Coordinates (Angstroms)
 Number     Number       Type             X           Y           Z
 ---------------------------------------------------------------------
      1          6           0        2.319790    2.815072   -0.096126
      2          6           0        3.397663    2.235304    0.581061
      3          6           0        3.556162    0.846496    0.606319
      4          6           0        2.613819    0.063986   -0.059233
      5          6           0        1.529298    0.611781   -0.742624
      6          6           0        1.390686    2.002892   -0.754646
      7          1           0        2.204389    3.894826   -0.110605
      8          1           0        4.120757    2.863586    1.093351
      9          1           0        4.381251    0.371327    1.122903
     10          1           0        0.824710   -0.040529   -1.244089
     11          1           0        0.552615    2.450387   -1.281362
     12          7           0        2.771088   -1.407502   -0.039500
     13          8           0        1.927182   -2.074938   -0.633628
     14          8           0        3.735284   -1.865556    0.569721
     15          6           0       -1.414418   -2.536134   -0.070241
     16          6           0       -1.872017   -2.058206    1.162117
     17          6           0       -2.523535   -0.824196    1.247506
     18          6           0       -2.701348   -0.090952    0.075317
     19          6           0       -2.256858   -0.540093   -1.167258
     20          6           0       -1.607958   -1.776891   -1.228953
     21          1           0       -0.909321   -3.495827   -0.127370
     22          1           0       -1.723101   -2.645698    2.063628
     23          1           0       -2.887877   -0.430348    2.188546
     24          1           0       -2.419938    0.068168   -2.048644
     25          1           0       -1.253637   -2.145556   -2.187383
     26          7           0       -3.389695    1.216915    0.153172
     27          8           0       -3.533993    1.843805   -0.894121
     28          8           0       -3.771887    1.590367    1.260014
 ---------------------------------------------------------------------

 SCF Done:  E(RHF) =  -868.339991380     A.U. after   16 cycles
 E2 =    -0.2601656462D+01 EUMP2 =    -0.87094164784246D+03

 The electronic state is 1-A.
 Alpha  occ. eigenvalues --  -20.61291 -20.61250 -20.60962 -20.60936 -15.86302
 Alpha  occ. eigenvalues --  -15.86000 -11.31337 -11.31150 -11.27897 -11.27804
 Alpha  occ. eigenvalues --  -11.27758 -11.27699 -11.27544 -11.27197 -11.26833
 Alpha  occ. eigenvalues --  -11.26759 -11.26558 -11.26536  -1.60341  -1.60036
 Alpha  occ. eigenvalues --   -1.39907  -1.39596  -1.19486  -1.19300  -1.08937
 Alpha  occ. eigenvalues --   -1.08661  -1.04851  -1.04675  -0.95833  -0.95541
 Alpha  occ. eigenvalues --   -0.86249  -0.86038  -0.82692  -0.82396  -0.77782
 Alpha  occ. eigenvalues --   -0.77516  -0.72573  -0.72212  -0.71652  -0.71369
 Alpha  occ. eigenvalues --   -0.70589  -0.70247  -0.65144  -0.64919  -0.64830
 Alpha  occ. eigenvalues --   -0.64609  -0.62228  -0.62016  -0.55352  -0.54986
 Alpha  occ. eigenvalues --   -0.53296  -0.53140  -0.52727  -0.52639  -0.49313
 Alpha  occ. eigenvalues --   -0.49262  -0.48989  -0.48946  -0.45390  -0.45053
 Alpha  occ. eigenvalues --   -0.37447  -0.37091  -0.36485  -0.36247
 Alpha virt. eigenvalues --    0.04642   0.05083   0.11226   0.11315   0.16179
 Alpha virt. eigenvalues --    0.16647   0.21146   0.21999   0.26739   0.27697
 Alpha virt. eigenvalues --    0.28651   0.28861   0.30687   0.31551   0.32353

 Mulliken charges:
               1
     1  C   -0.169136
     2  C   -0.219267
     3  C   -0.170708
     4  C    0.154389
     5  C   -0.171038
     6  C   -0.223363
     7  H    0.228941
     8  H    0.224094
     9  H    0.274617
    10  H    0.277750
    11  H    0.230083
    12  N    0.489430
    13  O   -0.471194
    14  O   -0.459127
    15  C   -0.153330
    16  C   -0.223109
    17  C   -0.170654
    18  C    0.158421
    19  C   -0.184800
    20  C   -0.223482
    21  H    0.239130
    22  H    0.225789
    23  H    0.274754
    24  H    0.271281
    25  H    0.228451
    26  N    0.487940
    27  O   -0.465916
    28  O   -0.459945
 Sum of Mulliken charges =  -0.00000

 Dipole moment (field-independent basis, Debye):
    X=              1.9670    Y=              0.3638    Z=             -0.2346  Tot=              2.0140
 Quadrupole moment (field-independent basis, Debye-Ang):
   XX=           -118.9990   YY=           -103.2418   ZZ=            -99.1488
   XY=             27.1945   XZ=              2.7062   YZ=             -0.9832

 Normal termination of Gaussian 16 at Fri May  7 06:34:54 2021.
