 Gaussian 16, Revision A.03,
 Gaussian 16:  EM64L-G16RevA.03 25-Dec-2016

 -------------
 #p 6-31g* mp2
 -------------

 ------------------------------------------------------
 Input file generated by CHIRIPA (05-May-2021 14:53:17)
 ------------------------------------------------------
 Symbolic Z-matrix:
 Charge =  0 Multiplicity = 1

                         Standard orientation:
 ---------------------------------------------------------------------
 Center     Atomic      Atomic             Coordinates (Angstroms)
 Number     Number       Type             X           Y           Z
 ---------------------------------------------------------------------
      1          6           0       -5.402011    0.202658   -0.254050
      2          6           0       -6.505432   -0.842954   -0.418804
      3          6           0       -7.697869   -0.322512   -1.221941
      4          1           0       -5.818547    1.091375    0.239534
      5          1           0       -5.062630    0.527090   -1.247508
      6          1           0       -6.841668   -1.166331    0.574669
      7          1           0       -6.086176   -1.729360   -0.911881
      8          1           0       -7.383046   -0.017643   -2.225207
      9          1           0       -8.142831    0.548586   -0.730211
     10          1           0       -8.474783   -1.086127   -1.327564
     11          6           0       -4.203168   -0.302719    0.546636
     12          6           0       -3.099748    0.742893    0.711390
     13          6           0       -1.907311    0.222451    1.514526
     14          1           0       -4.542549   -0.627151    1.540094
     15          1           0       -3.786633   -1.191436    0.053052
     16          1           0       -3.519004    1.629299    1.204467
     17          1           0       -2.763511    1.066270   -0.282083
     18          1           0       -1.462348   -0.648647    1.022797
     19          1           0       -2.222134   -0.082419    2.517792
     20          1           0       -1.130397    0.986066    1.620150
     21          6           0        2.779969    2.367334   -0.097112
     22          6           0        2.085376    1.314303    0.507194
     23          6           0        2.614421    0.020222    0.503711
     24          6           0        3.845998   -0.186000   -0.115952
     25          6           0        4.562089    0.842459   -0.726505
     26          6           0        4.013933    2.128473   -0.710951
     27          1           0        2.361571    3.369474   -0.089718
     28          1           0        1.126864    1.496869    0.984657
     29          1           0        2.097913   -0.813267    0.964073
     30          1           0        5.515489    0.629514   -1.194588
     31          1           0        4.555588    2.944356   -1.181047
     32          7           0        4.416190   -1.551715   -0.126029
     33          8           0        5.502978   -1.707263   -0.678601
     34          8           0        3.765524   -2.440756    0.418835
 ---------------------------------------------------------------------

 SCF Done:  E(RHF) =  -669.535523027     A.U. after   15 cycles
 E2 =    -0.2090769698D+01 EUMP2 =    -0.67162629272505D+03

 The electronic state is 1-A.
 Alpha  occ. eigenvalues --  -20.60723 -20.60718 -15.85776 -11.31131 -11.27703
 Alpha  occ. eigenvalues --  -11.27684 -11.27441 -11.26721 -11.26676 -11.22292
 Alpha  occ. eigenvalues --  -11.22022 -11.21888 -11.21864 -11.21747 -11.21308
 Alpha  occ. eigenvalues --   -1.59799  -1.39353  -1.19302  -1.08901  -1.08701
 Alpha  occ. eigenvalues --   -1.04702  -1.04045  -0.96512  -0.95537  -0.87537
 Alpha  occ. eigenvalues --   -0.86103  -0.82369  -0.80113  -0.78677  -0.77417
 Alpha  occ. eigenvalues --   -0.71995  -0.71122  -0.70414  -0.65522  -0.64954
 Alpha  occ. eigenvalues --   -0.64735  -0.62095  -0.61424  -0.59904  -0.58107
 Alpha  occ. eigenvalues --   -0.55778  -0.55212  -0.53354  -0.53035  -0.52983
 Alpha  occ. eigenvalues --   -0.52619  -0.50431  -0.48754  -0.48750  -0.48422
 Alpha  occ. eigenvalues --   -0.47122  -0.46229  -0.46127  -0.44760  -0.44295
 Alpha  occ. eigenvalues --   -0.37289  -0.36304
 Alpha virt. eigenvalues --    0.05114   0.11342   0.16600   0.19952   0.22600
 Alpha virt. eigenvalues --    0.23769   0.25833   0.26172   0.26822   0.27924
 Alpha virt. eigenvalues --    0.29003   0.29342   0.31061   0.31559   0.32210

 Mulliken charges:
               1
     1  C   -0.298713
     2  C   -0.300181
     3  C   -0.475982
     4  H    0.149702
     5  H    0.149915
     6  H    0.152643
     7  H    0.153308
     8  H    0.155467
     9  H    0.155160
    10  H    0.161537
    11  C   -0.299486
    12  C   -0.299279
    13  C   -0.481088
    14  H    0.151123
    15  H    0.152202
    16  H    0.152861
    17  H    0.152270
    18  H    0.158451
    19  H    0.160954
    20  H    0.150590
    21  C   -0.172597
    22  C   -0.223899
    23  C   -0.174147
    24  C    0.158708
    25  C   -0.171244
    26  C   -0.218506
    27  H    0.225780
    28  H    0.232688
    29  H    0.276388
    30  H    0.275350
    31  H    0.223110
    32  N    0.488127
    33  O   -0.460731
    34  O   -0.460483
 Sum of Mulliken charges =  -0.00000

 Dipole moment (field-independent basis, Debye):
    X=             -2.2169    Y=              4.7637    Z=              0.0272  Tot=              5.2544
 Quadrupole moment (field-independent basis, Debye-Ang):
   XX=           -107.3606   YY=            -96.5526   ZZ=            -93.7225
   XY=             20.7772   XZ=             -2.9149   YZ=             -1.2171

 Normal termination of Gaussian 16 at Thu May  6 20:31:25 2021.
