 Gaussian 16, Revision A.03,
 Gaussian 16:  EM64L-G16RevA.03 25-Dec-2016

 -------------
 #p 6-31g* mp2
 -------------

 ------------------------------------------------------
 Input file generated by CHIRIPA (05-May-2021 14:57:23)
 ------------------------------------------------------
 Symbolic Z-matrix:
 Charge =  0 Multiplicity = 1

                         Standard orientation:
 ---------------------------------------------------------------------
 Center     Atomic      Atomic             Coordinates (Angstroms)
 Number     Number       Type             X           Y           Z
 ---------------------------------------------------------------------
      1          6           0        6.210586    0.781588   -1.145077
      2          6           0        6.308915   -0.458887   -0.506270
      3          6           0        5.213761   -0.993489    0.178847
      4          6           0        4.030248   -0.257352    0.205115
      5          6           0        3.901051    0.981171   -0.421510
      6          6           0        5.009086    1.496397   -1.100736
      7          1           0        7.066332    1.189354   -1.675003
      8          1           0        7.240761   -1.016233   -0.539049
      9          1           0        5.262328   -1.951523    0.682066
     10          1           0        2.958915    1.513416   -0.371381
     11          1           0        4.929834    2.460008   -1.595932
     12          7           0        2.864039   -0.813056    0.927299
     13          8           0        1.832529   -0.144809    0.935706
     14          8           0        3.003556   -1.906341    1.471265
     15          6           0       -2.778425    2.095549    0.659995
     16          6           0       -4.171830    2.216699    0.676305
     17          6           0       -4.981782    1.153941    0.265123
     18          6           0       -4.362057   -0.020799   -0.158219
     19          6           0       -2.976556   -0.172165   -0.185908
     20          6           0       -2.186279    0.903605    0.229699
     21          1           0       -2.156877    2.926179    0.981131
     22          1           0       -4.634450    3.141192    1.009982
     23          1           0       -6.062966    1.220676    0.267656
     24          1           0       -2.544393   -1.106243   -0.523770
     25          1           0       -1.104400    0.806682    0.215974
     26          7           0       -5.209102   -1.152780   -0.595862
     27          8           0       -4.638640   -2.177175   -0.964406
     28          8           0       -6.427439   -0.994198   -0.562055
 ---------------------------------------------------------------------

 SCF Done:  E(RHF) =  -868.339444308     A.U. after   16 cycles
 E2 =    -0.2598348664D+01 EUMP2 =    -0.87093779297264D+03

 The electronic state is 1-A.
 Alpha  occ. eigenvalues --  -20.61618 -20.61545 -20.60132 -20.60119 -15.86631
 Alpha  occ. eigenvalues --  -15.85174 -11.31808 -11.30426 -11.28392 -11.28321
 Alpha  occ. eigenvalues --  -11.28043 -11.27336 -11.27296 -11.27012 -11.26883
 Alpha  occ. eigenvalues --  -11.26689 -11.26043 -11.25788  -1.60642  -1.59205
 Alpha  occ. eigenvalues --   -1.40207  -1.38761  -1.19958  -1.18573  -1.09382
 Alpha  occ. eigenvalues --   -1.07997  -1.05336  -1.03936  -0.96251  -0.94855
 Alpha  occ. eigenvalues --   -0.86742  -0.85345  -0.83097  -0.81672  -0.78170
 Alpha  occ. eigenvalues --   -0.76730  -0.72863  -0.71949  -0.71396  -0.71064
 Alpha  occ. eigenvalues --   -0.70526  -0.69702  -0.65617  -0.65335  -0.64219
 Alpha  occ. eigenvalues --   -0.63905  -0.62692  -0.61264  -0.55832  -0.54474
 Alpha  occ. eigenvalues --   -0.53669  -0.53427  -0.52303  -0.51998  -0.49623
 Alpha  occ. eigenvalues --   -0.49571  -0.48157  -0.48142  -0.45652  -0.44192
 Alpha  occ. eigenvalues --   -0.37918  -0.36929  -0.36573  -0.35536
 Alpha virt. eigenvalues --    0.04356   0.05765   0.10728   0.12108   0.15882
 Alpha virt. eigenvalues --    0.17292   0.20789   0.22270   0.26680   0.27292
 Alpha virt. eigenvalues --    0.28528   0.29052   0.30368   0.31453   0.32389

 Mulliken charges:
               1
     1  C   -0.170027
     2  C   -0.218278
     3  C   -0.170172
     4  C    0.158271
     5  C   -0.170139
     6  C   -0.218111
     7  H    0.227742
     8  H    0.225801
     9  H    0.277351
    10  H    0.270537
    11  H    0.224331
    12  N    0.493346
    13  O   -0.474529
    14  O   -0.454108
    15  C   -0.172512
    16  C   -0.218566
    17  C   -0.172858
    18  C    0.158237
    19  C   -0.172534
    20  C   -0.224693
    21  H    0.222940
    22  H    0.219942
    23  H    0.272825
    24  H    0.277620
    25  H    0.243177
    26  N    0.488060
    27  O   -0.460490
    28  O   -0.463163
 Sum of Mulliken charges =  -0.00000

 Dipole moment (field-independent basis, Debye):
    X=              7.6138    Y=              5.8303    Z=             -1.0027  Tot=              9.6420
 Quadrupole moment (field-independent basis, Debye-Ang):
   XX=            -93.4502   YY=           -102.0518   ZZ=           -107.4568
   XY=            -15.6354   XZ=            -17.0858   YZ=             -0.3606

 Normal termination of Gaussian 16 at Thu May  6 00:12:35 2021.
