 Gaussian 16, Revision A.03,
 Gaussian 16:  EM64L-G16RevA.03 25-Dec-2016

 -------------
 #p 6-31g* mp2
 -------------

 ------------------------------------------------------
 Input file generated by CHIRIPA (05-May-2021 14:53:12)
 ------------------------------------------------------
 Symbolic Z-matrix:
 Charge =  0 Multiplicity = 1

                         Standard orientation:
 ---------------------------------------------------------------------
 Center     Atomic      Atomic             Coordinates (Angstroms)
 Number     Number       Type             X           Y           Z
 ---------------------------------------------------------------------
      1          6           0        3.294458   -0.347043   -0.043136
      2          6           0        2.846164   -1.735903   -0.499301
      3          6           0        3.630853   -2.861548    0.175221
      4          1           0        4.365833   -0.226769   -0.254407
      5          1           0        3.180572   -0.272369    1.047207
      6          1           0        2.959560   -1.807457   -1.588630
      7          1           0        1.775689   -1.852813   -0.287095
      8          1           0        3.508688   -2.818546    1.262340
      9          1           0        4.699285   -2.772932   -0.046590
     10          1           0        3.294137   -3.845670   -0.165348
     11          6           0        2.519290    0.788711   -0.708648
     12          6           0        2.967584    2.177570   -0.252483
     13          6           0        2.182895    3.303216   -0.927005
     14          1           0        2.633176    0.714037   -1.798991
     15          1           0        1.447915    0.668437   -0.497377
     16          1           0        4.038059    2.294480   -0.464689
     17          1           0        2.854188    2.249125    0.836846
     18          1           0        1.114463    3.214600   -0.705194
     19          1           0        2.305060    3.260213   -2.014124
     20          1           0        2.519611    4.287337   -0.586436
     21          6           0       -3.968944   -0.439517   -1.553389
     22          6           0       -4.170515    0.513595   -0.549661
     23          6           0       -3.236371    0.670241    0.478632
     24          6           0       -2.106844   -0.146714    0.472232
     25          6           0       -1.877747   -1.105257   -0.513670
     26          6           0       -2.825220   -1.244482   -1.532226
     27          1           0       -4.699787   -0.554437   -2.348409
     28          1           0       -5.057820    1.140125   -0.563554
     29          1           0       -3.367477    1.400227    1.268158
     30          1           0       -0.983496   -1.715243   -0.473035
     31          1           0       -2.666064   -1.985507   -2.310426
     32          7           0       -1.110852    0.009898    1.555686
     33          8           0       -0.123959   -0.722142    1.527434
     34          8           0       -1.335946    0.861725    2.412635
 ---------------------------------------------------------------------

 SCF Done:  E(RHF) =  -669.536324726     A.U. after   15 cycles
 E2 =    -0.2092982201D+01 EUMP2 =    -0.67162930692738D+03

 The electronic state is 1-A.
 Alpha  occ. eigenvalues --  -20.61079 -20.61074 -15.86085 -11.31345 -11.27898
 Alpha  occ. eigenvalues --  -11.27894 -11.27623 -11.26892 -11.26880 -11.20848
 Alpha  occ. eigenvalues --  -11.20785 -11.20555 -11.20533 -11.20401 -11.20356
 Alpha  occ. eigenvalues --   -1.60129  -1.39689  -1.19506  -1.08924  -1.07585
 Alpha  occ. eigenvalues --   -1.04891  -1.02785  -0.95777  -0.95240  -0.86297
 Alpha  occ. eigenvalues --   -0.86266  -0.82616  -0.78863  -0.77725  -0.77378
 Alpha  occ. eigenvalues --   -0.72329  -0.71443  -0.70615  -0.65177  -0.64897
 Alpha  occ. eigenvalues --   -0.64140  -0.62242  -0.60154  -0.58630  -0.56873
 Alpha  occ. eigenvalues --   -0.55400  -0.54512  -0.53224  -0.52986  -0.51980
 Alpha  occ. eigenvalues --   -0.51693  -0.49204  -0.49090  -0.49051  -0.47192
 Alpha  occ. eigenvalues --   -0.45861  -0.45414  -0.44899  -0.44522  -0.43012
 Alpha  occ. eigenvalues --   -0.37480  -0.36484
 Alpha virt. eigenvalues --    0.04824   0.11123   0.16298   0.20789   0.23590
 Alpha virt. eigenvalues --    0.24586   0.25774   0.27479   0.27920   0.28662
 Alpha virt. eigenvalues --    0.28975   0.30742   0.31457   0.32276   0.32585

 Mulliken charges:
               1
     1  C   -0.295481
     2  C   -0.307201
     3  C   -0.475409
     4  H    0.144037
     5  H    0.162699
     6  H    0.142981
     7  H    0.163348
     8  H    0.161432
     9  H    0.152154
    10  H    0.154193
    11  C   -0.298609
    12  C   -0.300643
    13  C   -0.474617
    14  H    0.141848
    15  H    0.150849
    16  H    0.149002
    17  H    0.159216
    18  H    0.153322
    19  H    0.151371
    20  H    0.159012
    21  C   -0.170032
    22  C   -0.218695
    23  C   -0.170376
    24  C    0.155874
    25  C   -0.171554
    26  C   -0.220081
    27  H    0.226310
    28  H    0.224060
    29  H    0.275851
    30  H    0.281018
    31  H    0.224699
    32  N    0.490354
    33  O   -0.463137
    34  O   -0.457796
 Sum of Mulliken charges =  -0.00000

 Dipole moment (field-independent basis, Debye):
    X=             -3.7348    Y=             -0.5501    Z=             -3.5700  Tot=              5.1958
 Quadrupole moment (field-independent basis, Debye-Ang):
   XX=            -78.9394   YY=            -93.7370   ZZ=            -97.8152
   XY=             -0.0701   XZ=              5.3394   YZ=              2.4733

 Normal termination of Gaussian 16 at Wed May  5 18:31:04 2021.
