 Gaussian 16, Revision A.03,
 Gaussian 16:  EM64L-G16RevA.03 25-Dec-2016

 -------------
 #p 6-31g* mp2
 -------------

 ------------------------------------------------------
 Input file generated by CHIRIPA (05-May-2021 14:53:17)
 ------------------------------------------------------
 Symbolic Z-matrix:
 Charge =  0 Multiplicity = 1

                         Standard orientation:
 ---------------------------------------------------------------------
 Center     Atomic      Atomic             Coordinates (Angstroms)
 Number     Number       Type             X           Y           Z
 ---------------------------------------------------------------------
      1          6           0        3.668744   -0.355429   -0.057261
      2          6           0        5.182307   -0.248792    0.131794
      3          6           0        5.967164   -0.976404   -0.960164
      4          1           0        3.381362   -1.415673   -0.072748
      5          1           0        3.399096    0.055892   -1.039860
      6          1           0        5.448858   -0.658928    1.114319
      7          1           0        5.466094    0.811325    0.147025
      8          1           0        5.730187   -0.562581   -1.945656
      9          1           0        5.712852   -2.041188   -0.972865
     10          1           0        7.046985   -0.887326   -0.805527
     11          6           0        2.870463    0.366970    1.026535
     12          6           0        1.356900    0.260333    0.837479
     13          6           0        0.572043    0.987945    1.929437
     14          1           0        3.140111   -0.044350    2.009133
     15          1           0        3.157845    1.427214    1.042021
     16          1           0        1.073112   -0.799784    0.822248
     17          1           0        1.090349    0.670469   -0.145046
     18          1           0        0.826355    2.052729    1.942138
     19          1           0        0.809020    0.574122    2.914929
     20          1           0       -0.507778    0.898867    1.774800
     21          6           0       -1.448735    2.102090   -1.218695
     22          6           0       -1.143196    0.869490   -1.805096
     23          6           0       -1.749749   -0.304166   -1.347745
     24          6           0       -2.661267   -0.208166   -0.297407
     25          6           0       -2.986458    1.004972    0.307436
     26          6           0       -2.367770    2.165785   -0.166156
     27          1           0       -0.972836    3.008826   -1.580284
     28          1           0       -0.429844    0.817015   -2.622666
     29          1           0       -1.531543   -1.271578   -1.783543
     30          1           0       -3.701596    1.025570    1.120806
     31          1           0       -2.606977    3.121656    0.291156
     32          7           0       -3.309821   -1.443865    0.195367
     33          8           0       -4.109463   -1.332516    1.122087
     34          8           0       -3.006234   -2.500357   -0.354448
 ---------------------------------------------------------------------

 SCF Done:  E(RHF) =  -669.533163259     A.U. after   15 cycles
 E2 =    -0.2095577669D+01 EUMP2 =    -0.67162874092846D+03

 The electronic state is 1-A.
 Alpha  occ. eigenvalues --  -20.60844 -20.60839 -15.85898 -11.31305 -11.27836
 Alpha  occ. eigenvalues --  -11.27820 -11.27581 -11.26869 -11.26859 -11.21811
 Alpha  occ. eigenvalues --  -11.21627 -11.21591 -11.21493 -11.21277 -11.21031
 Alpha  occ. eigenvalues --   -1.59919  -1.39471  -1.19483  -1.08870  -1.08589
 Alpha  occ. eigenvalues --   -1.04885  -1.03659  -0.96120  -0.95688  -0.87139
 Alpha  occ. eigenvalues --   -0.86274  -0.82517  -0.79740  -0.78428  -0.77559
 Alpha  occ. eigenvalues --   -0.72114  -0.71245  -0.70563  -0.65252  -0.65118
 Alpha  occ. eigenvalues --   -0.64869  -0.62215  -0.61092  -0.59597  -0.57859
 Alpha  occ. eigenvalues --   -0.55448  -0.55365  -0.53510  -0.52960  -0.52618
 Alpha  occ. eigenvalues --   -0.52134  -0.50075  -0.48877  -0.48867  -0.48100
 Alpha  occ. eigenvalues --   -0.46789  -0.45975  -0.45905  -0.44866  -0.43955
 Alpha  occ. eigenvalues --   -0.37410  -0.36287
 Alpha virt. eigenvalues --    0.04948   0.11056   0.16420   0.21110   0.22783
 Alpha virt. eigenvalues --    0.24246   0.26247   0.26697   0.27668   0.28193
 Alpha virt. eigenvalues --    0.28229   0.30779   0.31342   0.31772   0.32030

 Mulliken charges:
               1
     1  C   -0.297362
     2  C   -0.299513
     3  C   -0.475714
     4  H    0.151499
     5  H    0.143394
     6  H    0.153633
     7  H    0.150963
     8  H    0.153314
     9  H    0.156351
    10  H    0.160975
    11  C   -0.297816
    12  C   -0.301787
    13  C   -0.479574
    14  H    0.150948
    15  H    0.146590
    16  H    0.152701
    17  H    0.150974
    18  H    0.147927
    19  H    0.155618
    20  H    0.166740
    21  C   -0.168599
    22  C   -0.219401
    23  C   -0.167245
    24  C    0.162452
    25  C   -0.178649
    26  C   -0.213600
    27  H    0.226077
    28  H    0.224373
    29  H    0.276233
    30  H    0.276222
    31  H    0.224497
    32  N    0.487895
    33  O   -0.460069
    34  O   -0.460051
 Sum of Mulliken charges =  -0.00000

 Dipole moment (field-independent basis, Debye):
    X=              2.1484    Y=              4.3278    Z=             -1.7917  Tot=              5.1532
 Quadrupole moment (field-independent basis, Debye-Ang):
   XX=           -106.8416   YY=            -95.0666   ZZ=            -92.1312
   XY=            -13.6039   XZ=              2.5190   YZ=              0.1625

 Normal termination of Gaussian 16 at Thu May  6 20:34:17 2021.
