 Gaussian 16, Revision A.03,
 Gaussian 16:  EM64L-G16RevA.03 25-Dec-2016

 -------------
 #p 6-31g* mp2
 -------------

 ------------------------------------------------------
 Input file generated by CHIRIPA (05-May-2021 14:53:18)
 ------------------------------------------------------
 Symbolic Z-matrix:
 Charge =  0 Multiplicity = 1

                         Standard orientation:
 ---------------------------------------------------------------------
 Center     Atomic      Atomic             Coordinates (Angstroms)
 Number     Number       Type             X           Y           Z
 ---------------------------------------------------------------------
      1          6           0       -2.447356    0.808001   -0.298034
      2          6           0       -2.457988    2.214302    0.302126
      3          6           0       -1.101458    2.911931    0.197564
      4          1           0       -1.683049    0.204827    0.210849
      5          1           0       -2.145890    0.869341   -1.352904
      6          1           0       -2.760683    2.150475    1.355178
      7          1           0       -3.222490    2.814141   -0.208114
      8          1           0       -0.795811    3.004972   -0.849587
      9          1           0       -0.331380    2.337534    0.722587
     10          1           0       -1.131659    3.915752    0.632639
     11          6           0       -3.796368    0.097727   -0.201060
     12          6           0       -3.785736   -1.308573   -0.801220
     13          6           0       -5.142266   -2.006203   -0.696657
     14          1           0       -4.097834    0.036387    0.853810
     15          1           0       -4.560675    0.700901   -0.709942
     16          1           0       -3.021234   -1.908413   -0.290980
     17          1           0       -3.483041   -1.244747   -1.854271
     18          1           0       -5.912344   -1.431806   -1.221681
     19          1           0       -5.447913   -2.099243    0.350493
     20          1           0       -5.112065   -3.010024   -1.131733
     21          6           0        1.153911   -0.891741    2.298576
     22          6           0        1.686852   -1.924676    1.520412
     23          6           0        2.400623   -1.638326    0.352901
     24          6           0        2.563188   -0.301794   -0.008411
     25          6           0        2.044288    0.749465    0.745834
     26          6           0        1.334013    0.439686    1.909490
     27          1           0        0.600795   -1.123284    3.204029
     28          1           0        1.548543   -2.959604    1.820144
     29          1           0        2.823868   -2.418471   -0.268110
     30          1           0        2.198607    1.771390    0.421372
     31          1           0        0.921242    1.243923    2.511876
     32          7           0        3.316974    0.013754   -1.242362
     33          8           0        3.446310    1.199466   -1.539003
     34          8           0        3.764186   -0.930607   -1.889527
 ---------------------------------------------------------------------

 SCF Done:  E(RHF) =  -669.534358742     A.U. after   15 cycles
 E2 =    -0.2093397329D+01 EUMP2 =    -0.67162775607097D+03

 The electronic state is 1-A.
 Alpha  occ. eigenvalues --  -20.60795 -20.60790 -15.85851 -11.31242 -11.27824
 Alpha  occ. eigenvalues --  -11.27814 -11.27596 -11.26852 -11.26842 -11.21968
 Alpha  occ. eigenvalues --  -11.21848 -11.21658 -11.21584 -11.21446 -11.21310
 Alpha  occ. eigenvalues --   -1.59870  -1.39422  -1.19440  -1.08830  -1.08709
 Alpha  occ. eigenvalues --   -1.04866  -1.03836  -0.96295  -0.95650  -0.87319
 Alpha  occ. eigenvalues --   -0.86241  -0.82499  -0.79911  -0.78516  -0.77522
 Alpha  occ. eigenvalues --   -0.72070  -0.71193  -0.70543  -0.65382  -0.65093
 Alpha  occ. eigenvalues --   -0.64847  -0.62276  -0.61206  -0.59651  -0.57892
 Alpha  occ. eigenvalues --   -0.55619  -0.55326  -0.53239  -0.52990  -0.52935
 Alpha  occ. eigenvalues --   -0.52668  -0.50234  -0.48831  -0.48820  -0.48210
 Alpha  occ. eigenvalues --   -0.46938  -0.46050  -0.45975  -0.44820  -0.44078
 Alpha  occ. eigenvalues --   -0.37416  -0.36353
 Alpha virt. eigenvalues --    0.04988   0.11154   0.16328   0.20876   0.22713
 Alpha virt. eigenvalues --    0.24141   0.26179   0.26473   0.27281   0.28022
 Alpha virt. eigenvalues --    0.28858   0.30355   0.31360   0.31572   0.32229

 Mulliken charges:
               1
     1  C   -0.301721
     2  C   -0.298691
     3  C   -0.482592
     4  H    0.151109
     5  H    0.152992
     6  H    0.147460
     7  H    0.154475
     8  H    0.162448
     9  H    0.149992
    10  H    0.159654
    11  C   -0.298192
    12  C   -0.299467
    13  C   -0.475764
    14  H    0.146748
    15  H    0.150879
    16  H    0.149699
    17  H    0.154505
    18  H    0.156374
    19  H    0.153735
    20  H    0.160756
    21  C   -0.172529
    22  C   -0.218844
    23  C   -0.170734
    24  C    0.157232
    25  C   -0.167047
    26  C   -0.219721
    27  H    0.226041
    28  H    0.223808
    29  H    0.275989
    30  H    0.278269
    31  H    0.225294
    32  N    0.488126
    33  O   -0.459916
    34  O   -0.460367
 Sum of Mulliken charges =  -0.00000

 Dipole moment (field-independent basis, Debye):
    X=             -2.6124    Y=             -1.1488    Z=              4.2671  Tot=              5.1335
 Quadrupole moment (field-independent basis, Debye-Ang):
   XX=           -109.8442   YY=            -89.6907   ZZ=            -94.4791
   XY=             -3.5529   XZ=             11.5698   YZ=             -0.9693

 Normal termination of Gaussian 16 at Wed May  5 22:05:57 2021.
