 Gaussian 16, Revision A.03,
 Gaussian 16:  EM64L-G16RevA.03 25-Dec-2016

 -------------
 #p 6-31g* mp2
 -------------

 ------------------------------------------------------
 Input file generated by CHIRIPA (05-May-2021 14:51:10)
 ------------------------------------------------------
 Symbolic Z-matrix:
 Charge =  0 Multiplicity = 1

                         Standard orientation:
 ---------------------------------------------------------------------
 Center     Atomic      Atomic             Coordinates (Angstroms)
 Number     Number       Type             X           Y           Z
 ---------------------------------------------------------------------
      1          6           0       -3.513000   -0.395460    0.307102
      2          6           0       -4.153265    0.526679   -0.731024
      3          6           0       -5.429638    1.195782   -0.220176
      4          1           0       -4.239323   -1.165106    0.602132
      5          1           0       -3.286913    0.184462    1.212624
      6          1           0       -4.376811   -0.054508   -1.634830
      7          1           0       -3.425268    1.294105   -1.023759
      8          1           0       -5.218978    1.799415    0.668559
      9          1           0       -6.175928    0.443140    0.054016
     10          1           0       -5.870742    1.850493   -0.978227
     11          6           0       -2.236094   -1.071701   -0.188820
     12          6           0       -1.595829   -1.993840    0.849306
     13          6           0       -0.319456   -2.662943    0.338458
     14          1           0       -2.462181   -1.651623   -1.094342
     15          1           0       -1.509771   -0.302054   -0.483851
     16          1           0       -2.323826   -2.761266    1.142041
     17          1           0       -1.372283   -1.412652    1.753111
     18          1           0        0.426834   -1.910300    0.064265
     19          1           0       -0.530116   -3.266576   -0.550277
     20          1           0        0.121648   -3.317654    1.096509
     21          6           0        3.275076    0.139308    0.205148
     22          6           0        3.411390   -0.998430   -0.807253
     23          6           0        4.215236   -2.180109   -0.263874
     24          1           0        4.276643    0.480368    0.500929
     25          1           0        2.794219   -0.244852    1.115418
     26          1           0        3.890593   -0.611918   -1.715872
     27          1           0        2.409381   -1.336693   -1.100803
     28          1           0        3.736890   -2.592817    0.630251
     29          1           0        5.226519   -1.863924    0.011687
     30          1           0        4.300312   -2.981981   -1.003890
     31          6           0        2.474017    1.327852   -0.323429
     32          6           0        2.337704    2.465591    0.688972
     33          6           0        1.533858    3.647269    0.145593
     34          1           0        2.954874    1.712012   -1.233700
     35          1           0        1.472450    0.986792   -0.619210
     36          1           0        3.339713    2.803854    0.982521
     37          1           0        1.858500    2.079078    1.597590
     38          1           0        0.522574    3.331084   -0.129970
     39          1           0        2.012203    4.059977   -0.748532
     40          1           0        1.448782    4.449142    0.885609
 ---------------------------------------------------------------------

 SCF Done:  E(RHF) =  -470.733288401     A.U. after   11 cycles
 E2 =    -0.1583293327D+01 EUMP2 =    -0.47231658172746D+03

 The electronic state is 1-A.
 Alpha  occ. eigenvalues --  -11.21665 -11.21642 -11.21635 -11.21559 -11.21465
 Alpha  occ. eigenvalues --  -11.21439 -11.21401 -11.21368 -11.21126 -11.21114
 Alpha  occ. eigenvalues --  -11.21093 -11.21027  -1.08490  -1.08445  -1.03590
 Alpha  occ. eigenvalues --   -1.03526  -0.96032  -0.95985  -0.87059  -0.86992
 Alpha  occ. eigenvalues --   -0.79670  -0.79576  -0.78321  -0.78239  -0.65248
 Alpha  occ. eigenvalues --   -0.64980  -0.61109  -0.60821  -0.59401  -0.59351
 Alpha  occ. eigenvalues --   -0.57648  -0.57585  -0.55323  -0.55268  -0.52718
 Alpha  occ. eigenvalues --   -0.52680  -0.52477  -0.52394  -0.50086  -0.49825
 Alpha  occ. eigenvalues --   -0.48046  -0.47853  -0.46770  -0.46552  -0.46004
 Alpha  occ. eigenvalues --   -0.45786  -0.45761  -0.45489  -0.43834  -0.43795
 Alpha virt. eigenvalues --    0.19609   0.22895   0.23920   0.24669   0.25400
 Alpha virt. eigenvalues --    0.26910   0.27067   0.27741   0.28050   0.29378
 Alpha virt. eigenvalues --    0.30879   0.31492   0.31742   0.31824   0.32166

 Mulliken charges:
               1
     1  C   -0.298353
     2  C   -0.299654
     3  C   -0.475756
     4  H    0.149948
     5  H    0.149584
     6  H    0.152085
     7  H    0.151835
     8  H    0.155285
     9  H    0.155230
    10  H    0.160461
    11  C   -0.299510
    12  C   -0.299294
    13  C   -0.483231
    14  H    0.149955
    15  H    0.149599
    16  H    0.152361
    17  H    0.151668
    18  H    0.162349
    19  H    0.155619
    20  H    0.160535
    21  C   -0.299349
    22  C   -0.304249
    23  C   -0.475716
    24  H    0.150054
    25  H    0.150054
    26  H    0.152070
    27  H    0.156397
    28  H    0.155953
    29  H    0.154808
    30  H    0.160372
    31  C   -0.300211
    32  C   -0.299562
    33  C   -0.475568
    34  H    0.150097
    35  H    0.149685
    36  H    0.152312
    37  H    0.151740
    38  H    0.154506
    39  H    0.155473
    40  H    0.160421
 Sum of Mulliken charges =  -0.00000

 Dipole moment (field-independent basis, Debye):
    X=             -0.0066    Y=             -0.0129    Z=             -0.0029  Tot=              0.0148
 Quadrupole moment (field-independent basis, Debye-Ang):
   XX=            -84.8425   YY=            -85.1087   ZZ=            -84.6555
   XY=              1.8766   XZ=             -0.0307   YZ=              0.2476

 Normal termination of Gaussian 16 at Thu May  6 02:12:18 2021.
