 Gaussian 16, Revision A.03,
 Gaussian 16:  EM64L-G16RevA.03 25-Dec-2016

 -------------
 #p 6-31g* mp2
 -------------

 ------------------------------------------------------
 Input file generated by CHIRIPA (05-May-2021 14:57:24)
 ------------------------------------------------------
 Symbolic Z-matrix:
 Charge =  0 Multiplicity = 1

                         Standard orientation:
 ---------------------------------------------------------------------
 Center     Atomic      Atomic             Coordinates (Angstroms)
 Number     Number       Type             X           Y           Z
 ---------------------------------------------------------------------
      1          6           0       -2.211141    0.533743    1.202205
      2          6           0       -3.021797    1.581926    0.754241
      3          6           0       -4.222857    1.316527    0.089738
      4          6           0       -4.584223   -0.014830   -0.110746
      5          6           0       -3.798071   -1.080921    0.323656
      6          6           0       -2.601178   -0.791998    0.985864
      7          1           0       -1.279748    0.749049    1.717515
      8          1           0       -2.721408    2.612484    0.920861
      9          1           0       -4.869431    2.108795   -0.267575
     10          1           0       -4.124058   -2.098010    0.142882
     11          1           0       -1.973603   -1.608043    1.332657
     12          7           0       -5.853526   -0.308248   -0.813011
     13          8           0       -6.149479   -1.489805   -0.977244
     14          8           0       -6.528418    0.648883   -1.185915
     15          6           0        2.128027   -0.068470    1.142041
     16          6           0        2.869555   -1.248095    1.018975
     17          6           0        4.115754   -1.240520    0.385354
     18          6           0        4.592259   -0.030151   -0.115887
     19          6           0        3.877169    1.161688   -0.008849
     20          6           0        2.633310    1.130542    0.628642
     21          1           0        1.160859   -0.083510    1.635757
     22          1           0        2.479635   -2.180722    1.416739
     23          1           0        4.710743   -2.139141    0.276337
     24          1           0        4.292096    2.076015   -0.415370
     25          1           0        2.059623    2.048184    0.722776
     26          7           0        5.910315   -0.009655   -0.788722
     27          8           0        6.307965    1.069651   -1.221865
     28          8           0        6.520799   -1.073283   -0.870209
 ---------------------------------------------------------------------

 SCF Done:  E(RHF) =  -868.335956030     A.U. after   16 cycles
 E2 =    -0.2599847488D+01 EUMP2 =    -0.87093580351790D+03

 The electronic state is 1-A.
 Alpha  occ. eigenvalues --  -20.61327 -20.61321 -20.61289 -20.61284 -15.86386
 Alpha  occ. eigenvalues --  -15.86348 -11.31922 -11.31873 -11.28508 -11.28488
 Alpha  occ. eigenvalues --  -11.28455 -11.28444 -11.28439 -11.28387 -11.27645
 Alpha  occ. eigenvalues --  -11.27596 -11.27579 -11.27552  -1.60398  -1.60361
 Alpha  occ. eigenvalues --   -1.39946  -1.39910  -1.20126  -1.20075  -1.09528
 Alpha  occ. eigenvalues --   -1.09469  -1.05547  -1.05496  -0.96341  -0.96260
 Alpha  occ. eigenvalues --   -0.86959  -0.86907  -0.83162  -0.83079  -0.78130
 Alpha  occ. eigenvalues --   -0.78086  -0.72604  -0.72566  -0.71721  -0.71684
 Alpha  occ. eigenvalues --   -0.71561  -0.71057  -0.65795  -0.65745  -0.65593
 Alpha  occ. eigenvalues --   -0.65507  -0.62886  -0.62835  -0.56453  -0.55835
 Alpha  occ. eigenvalues --   -0.53874  -0.53812  -0.53659  -0.53608  -0.49377
 Alpha  occ. eigenvalues --   -0.49345  -0.49338  -0.49308  -0.45313  -0.45279
 Alpha  occ. eigenvalues --   -0.38194  -0.38067  -0.37132  -0.37082
 Alpha virt. eigenvalues --    0.04358   0.04476   0.10498   0.10559   0.15705
 Alpha virt. eigenvalues --    0.15932   0.17375   0.22039   0.24773   0.25758
 Alpha virt. eigenvalues --    0.27100   0.29445   0.29681   0.31081   0.32351

 Mulliken charges:
               1
     1  C   -0.172398
     2  C   -0.217903
     3  C   -0.169672
     4  C    0.159592
     5  C   -0.169698
     6  C   -0.217263
     7  H    0.216915
     8  H    0.224163
     9  H    0.278168
    10  H    0.277882
    11  H    0.219411
    12  N    0.487904
    13  O   -0.458505
    14  O   -0.458246
    15  C   -0.171038
    16  C   -0.218407
    17  C   -0.169623
    18  C    0.159454
    19  C   -0.169774
    20  C   -0.217779
    21  H    0.216432
    22  H    0.223382
    23  H    0.277973
    24  H    0.277773
    25  H    0.220394
    26  N    0.487899
    27  O   -0.458620
    28  O   -0.458418
 Sum of Mulliken charges =  -0.00000

 Dipole moment (field-independent basis, Debye):
    X=             -0.1902    Y=              0.9437    Z=              4.6771  Tot=              4.7752
 Quadrupole moment (field-independent basis, Debye-Ang):
   XX=           -187.4721   YY=            -94.9705   ZZ=           -107.6021
   XY=             -6.6456   XZ=             -0.2022   YZ=             -1.7401

 Normal termination of Gaussian 16 at Thu May  6 01:52:28 2021.
