 Gaussian 16, Revision A.03,
 Gaussian 16:  EM64L-G16RevA.03 25-Dec-2016

 -------------
 #p 6-31g* mp2
 -------------

 ------------------------------------------------------
 Input file generated by CHIRIPA (05-May-2021 14:57:26)
 ------------------------------------------------------
 Symbolic Z-matrix:
 Charge =  0 Multiplicity = 1

                         Standard orientation:
 ---------------------------------------------------------------------
 Center     Atomic      Atomic             Coordinates (Angstroms)
 Number     Number       Type             X           Y           Z
 ---------------------------------------------------------------------
      1          6           0        5.403635    1.438676    0.351342
      2          6           0        4.298258    1.399303    1.207562
      3          6           0        3.215346    0.559506    0.930812
      4          6           0        3.271375   -0.231010   -0.216025
      5          6           0        4.358471   -0.214139   -1.088508
      6          6           0        5.430166    0.633249   -0.791945
      7          1           0        6.240510    2.093999    0.574024
      8          1           0        4.274916    2.023702    2.096171
      9          1           0        2.347055    0.509297    1.576542
     10          1           0        4.352897   -0.848218   -1.966763
     11          1           0        6.287301    0.661759   -1.458692
     12          7           0        2.130881   -1.124084   -0.519496
     13          8           0        2.204593   -1.810696   -1.536239
     14          8           0        1.184847   -1.120552    0.265134
     15          6           0       -4.722941    1.917282   -1.020438
     16          6           0       -5.017369    0.576684   -1.289934
     17          6           0       -4.323620   -0.447454   -0.638473
     18          6           0       -3.337182   -0.093432    0.280711
     19          6           0       -3.020836    1.232883    0.570715
     20          6           0       -3.727368    2.240534   -0.092610
     21          1           0       -5.266828    2.706453   -1.531116
     22          1           0       -5.790037    0.322686   -2.010014
     23          1           0       -4.531263   -1.493556   -0.828136
     24          1           0       -2.245267    1.454934    1.293629
     25          1           0       -3.496584    3.280795    0.118672
     26          7           0       -2.595973   -1.168913    0.976663
     27          8           0       -1.731424   -0.830724    1.782158
     28          8           0       -2.893598   -2.329700    0.703479
 ---------------------------------------------------------------------

 SCF Done:  E(RHF) =  -868.336069126     A.U. after   16 cycles
 E2 =    -0.2600279268D+01 EUMP2 =    -0.87093634839386D+03

 The electronic state is 1-A.
 Alpha  occ. eigenvalues --  -20.60103 -20.60032 -20.59697 -20.59635 -15.85117
 Alpha  occ. eigenvalues --  -15.84730 -11.30738 -11.30429 -11.27356 -11.27308
 Alpha  occ. eigenvalues --  -11.27146 -11.27066 -11.27026 -11.26869 -11.26423
 Alpha  occ. eigenvalues --  -11.26405 -11.26168 -11.26131  -1.59156  -1.58705
 Alpha  occ. eigenvalues --   -1.38696  -1.38263  -1.18941  -1.18635  -1.08295
 Alpha  occ. eigenvalues --   -1.07968  -1.04378  -1.04100  -0.95082  -0.94749
 Alpha  occ. eigenvalues --   -0.85764  -0.85482  -0.81906  -0.81590  -0.76910
 Alpha  occ. eigenvalues --   -0.76575  -0.71375  -0.70930  -0.70505  -0.70063
 Alpha  occ. eigenvalues --   -0.69951  -0.69761  -0.64582  -0.64385  -0.64292
 Alpha  occ. eigenvalues --   -0.64121  -0.61715  -0.61453  -0.54881  -0.54604
 Alpha  occ. eigenvalues --   -0.52703  -0.52472  -0.52397  -0.52209  -0.48140
 Alpha  occ. eigenvalues --   -0.48074  -0.47718  -0.47687  -0.44070  -0.43550
 Alpha  occ. eigenvalues --   -0.36946  -0.36630  -0.35997  -0.35717
 Alpha virt. eigenvalues --    0.05617   0.05997   0.11653   0.11936   0.17059
 Alpha virt. eigenvalues --    0.17414   0.21749   0.21987   0.27633   0.27852
 Alpha virt. eigenvalues --    0.28619   0.28967   0.31223   0.31538   0.32834

 Mulliken charges:
               1
     1  C   -0.171684
     2  C   -0.219036
     3  C   -0.172841
     4  C    0.157993
     5  C   -0.171590
     6  C   -0.218773
     7  H    0.223658
     8  H    0.221894
     9  H    0.280456
    10  H    0.274834
    11  H    0.221724
    12  N    0.487059
    13  O   -0.464587
    14  O   -0.449754
    15  C   -0.172009
    16  C   -0.218460
    17  C   -0.170390
    18  C    0.162381
    19  C   -0.169766
    20  C   -0.218685
    21  H    0.222464
    22  H    0.221368
    23  H    0.275918
    24  H    0.272300
    25  H    0.219314
    26  N    0.491674
    27  O   -0.455083
    28  O   -0.460377
 Sum of Mulliken charges =  -0.00000

 Dipole moment (field-independent basis, Debye):
    X=              1.3952    Y=              6.7318    Z=             -1.2569  Tot=              6.9889
 Quadrupole moment (field-independent basis, Debye-Ang):
   XX=            -61.3062   YY=           -105.4592   ZZ=           -103.0423
   XY=             -1.4055   XZ=              9.6427   YZ=              3.7657

 Normal termination of Gaussian 16 at Wed May  5 21:11:45 2021.
