 Gaussian 16, Revision A.03,
 Gaussian 16:  EM64L-G16RevA.03 25-Dec-2016

 -------------
 #p 6-31g* mp2
 -------------

 ------------------------------------------------------
 Input file generated by CHIRIPA (05-May-2021 14:57:27)
 ------------------------------------------------------
 Symbolic Z-matrix:
 Charge =  0 Multiplicity = 1

                         Standard orientation:
 ---------------------------------------------------------------------
 Center     Atomic      Atomic             Coordinates (Angstroms)
 Number     Number       Type             X           Y           Z
 ---------------------------------------------------------------------
      1          6           0        2.021425   -1.314870    0.413849
      2          6           0        2.916560   -1.737485   -0.574407
      3          6           0        4.098421   -1.029347   -0.811670
      4          6           0        4.354651    0.102035   -0.038618
      5          6           0        3.482634    0.548265    0.953227
      6          6           0        2.306816   -0.175353    1.173173
      7          1           0        1.105674   -1.870981    0.591434
      8          1           0        2.697522   -2.622084   -1.165637
      9          1           0        4.808902   -1.334315   -1.570373
     10          1           0        3.728380    1.433923    1.526496
     11          1           0        1.613476    0.155184    1.941334
     12          7           0        5.602635    0.859903   -0.280631
     13          8           0        5.805243    1.853405    0.414020
     14          8           0        6.354567    0.446067   -1.160390
     15          6           0       -5.842279    1.822331   -0.511717
     16          6           0       -4.570878    2.170040   -0.043574
     17          6           0       -3.624696    1.181378    0.242494
     18          6           0       -3.985265   -0.151095    0.048079
     19          6           0       -5.243804   -0.529305   -0.417027
     20          6           0       -6.174100    0.476142   -0.696624
     21          1           0       -6.571126    2.596867   -0.731428
     22          1           0       -4.310410    3.214698    0.100970
     23          1           0       -2.633194    1.422520    0.606075
     24          1           0       -5.474246   -1.579217   -0.551188
     25          1           0       -7.160730    0.203168   -1.060069
     26          7           0       -2.991993   -1.206632    0.347501
     27          8           0       -3.334312   -2.373327    0.167840
     28          8           0       -1.889955   -0.847280    0.756179
 ---------------------------------------------------------------------

 SCF Done:  E(RHF) =  -868.340610688     A.U. after   16 cycles
 E2 =    -0.2598075262D+01 EUMP2 =    -0.87093868595036D+03

 The electronic state is 1-A.
 Alpha  occ. eigenvalues --  -20.61834 -20.61806 -20.60147 -20.60141 -15.86846
 Alpha  occ. eigenvalues --  -15.85195 -11.31906 -11.30337 -11.28447 -11.28426
 Alpha  occ. eigenvalues --  -11.28113 -11.27379 -11.27368 -11.26915 -11.26908
 Alpha  occ. eigenvalues --  -11.26346 -11.25787 -11.25748  -1.60880  -1.59229
 Alpha  occ. eigenvalues --   -1.40443  -1.38789  -1.20047  -1.18476  -1.09497
 Alpha  occ. eigenvalues --   -1.07856  -1.05404  -1.03863  -0.96386  -0.94735
 Alpha  occ. eigenvalues --   -0.86816  -0.85235  -0.83232  -0.81597  -0.78311
 Alpha  occ. eigenvalues --   -0.76721  -0.73095  -0.72174  -0.71415  -0.71149
 Alpha  occ. eigenvalues --   -0.70553  -0.69431  -0.65704  -0.65401  -0.64100
 Alpha  occ. eigenvalues --   -0.63832  -0.62756  -0.61228  -0.55911  -0.54162
 Alpha  occ. eigenvalues --   -0.53747  -0.53490  -0.52192  -0.51929  -0.49850
 Alpha  occ. eigenvalues --   -0.49803  -0.48185  -0.48149  -0.45911  -0.44246
 Alpha  occ. eigenvalues --   -0.38004  -0.36992  -0.36361  -0.35500
 Alpha virt. eigenvalues --    0.04202   0.05830   0.10667   0.12180   0.15761
 Alpha virt. eigenvalues --    0.17407   0.20820   0.22524   0.26758   0.27601
 Alpha virt. eigenvalues --    0.28267   0.29534   0.30483   0.31909   0.32297

 Mulliken charges:
               1
     1  C   -0.173516
     2  C   -0.221095
     3  C   -0.172040
     4  C    0.156711
     5  C   -0.173107
     6  C   -0.221327
     7  H    0.248327
     8  H    0.222660
     9  H    0.272392
    10  H    0.271381
    11  H    0.225437
    12  N    0.488333
    13  O   -0.463608
    14  O   -0.462919
    15  C   -0.169651
    16  C   -0.218363
    17  C   -0.170103
    18  C    0.157829
    19  C   -0.170322
    20  C   -0.218492
    21  H    0.228292
    22  H    0.225843
    23  H    0.273855
    24  H    0.276354
    25  H    0.225687
    26  N    0.490614
    27  O   -0.457566
    28  O   -0.471607
 Sum of Mulliken charges =  -0.00000

 Dipole moment (field-independent basis, Debye):
    X=             -8.5165    Y=              0.9769    Z=             -0.2026  Tot=              8.5747
 Quadrupole moment (field-independent basis, Debye-Ang):
   XX=           -114.0938   YY=           -102.3768   ZZ=           -103.3197
   XY=            -25.4352   XZ=              8.3215   YZ=              4.2005

 Normal termination of Gaussian 16 at Fri May  7 12:45:55 2021.
