 Gaussian 16, Revision A.03,
 Gaussian 16:  EM64L-G16RevA.03 25-Dec-2016

 -------------
 #p 6-31g* mp2
 -------------

 ------------------------------------------------------
 Input file generated by CHIRIPA (05-May-2021 14:51:08)
 ------------------------------------------------------
 Symbolic Z-matrix:
 Charge =  0 Multiplicity = 1

                         Standard orientation:
 ---------------------------------------------------------------------
 Center     Atomic      Atomic             Coordinates (Angstroms)
 Number     Number       Type             X           Y           Z
 ---------------------------------------------------------------------
      1          6           0        2.723370   -0.019918   -0.270580
      2          6           0        3.952930   -0.889488   -0.005976
      3          6           0        3.744231   -2.348196   -0.413910
      4          1           0        1.864389   -0.435165    0.274091
      5          1           0        2.470242   -0.070311   -1.338654
      6          1           0        4.204492   -0.836372    1.061035
      7          1           0        4.809128   -0.472013   -0.551187
      8          1           0        3.515593   -2.420548   -1.482129
      9          1           0        2.907522   -2.786977    0.139253
     10          1           0        4.635488   -2.951839   -0.216082
     11          6           0        2.916552    1.441009    0.132036
     12          6           0        1.686992    2.310579   -0.132568
     13          6           0        1.895691    3.769287    0.275366
     14          1           0        3.169680    1.491402    1.200110
     15          1           0        3.775533    1.856256   -0.412635
     16          1           0        0.830794    1.893104    0.412643
     17          1           0        1.435430    2.257463   -1.199579
     18          1           0        2.732400    4.208068   -0.277797
     19          1           0        2.124329    3.841639    1.343585
     20          1           0        1.004434    4.372930    0.077538
     21          6           0       -2.536685   -1.411408   -0.040170
     22          6           0       -1.138340   -1.599099    0.549228
     23          6           0       -0.585127   -3.006299    0.322214
     24          1           0       -3.217208   -2.150575    0.404201
     25          1           0       -2.504439   -1.624307   -1.117681
     26          1           0       -1.172927   -1.384565    1.625051
     27          1           0       -0.461110   -0.859274    0.103544
     28          1           0       -0.521805   -3.227300   -0.748183
     29          1           0       -1.237666   -3.755578    0.781969
     30          1           0        0.415348   -3.118453    0.751553
     31          6           0       -3.103237   -0.009682    0.178714
     32          6           0       -4.501581    0.178008   -0.410684
     33          6           0       -5.054796    1.585208   -0.183670
     34          1           0       -3.135484    0.203216    1.256224
     35          1           0       -2.422714    0.729485   -0.265657
     36          1           0       -5.178812   -0.561817    0.034999
     37          1           0       -4.466995   -0.036525   -1.486507
     38          1           0       -4.402256    2.334486   -0.643425
     39          1           0       -5.118117    1.806210    0.886727
     40          1           0       -6.055270    1.697363   -0.613008
 ---------------------------------------------------------------------

 SCF Done:  E(RHF) =  -470.732983149     A.U. after   11 cycles
 E2 =    -0.1583890462D+01 EUMP2 =    -0.47231687361049D+03

 The electronic state is 1-A.
 Alpha  occ. eigenvalues --  -11.21621 -11.21601 -11.21594 -11.21581 -11.21404
 Alpha  occ. eigenvalues --  -11.21397 -11.21344 -11.21330 -11.21085 -11.21083
 Alpha  occ. eigenvalues --  -11.21070 -11.21051  -1.08460  -1.08406  -1.03555
 Alpha  occ. eigenvalues --   -1.03512  -0.95987  -0.95978  -0.87030  -0.86966
 Alpha  occ. eigenvalues --   -0.79611  -0.79596  -0.78374  -0.78129  -0.65171
 Alpha  occ. eigenvalues --   -0.64970  -0.60988  -0.60894  -0.59430  -0.59275
 Alpha  occ. eigenvalues --   -0.57601  -0.57595  -0.55295  -0.55254  -0.52733
 Alpha  occ. eigenvalues --   -0.52671  -0.52445  -0.52340  -0.49990  -0.49860
 Alpha  occ. eigenvalues --   -0.47943  -0.47888  -0.46754  -0.46620  -0.46093
 Alpha  occ. eigenvalues --   -0.45756  -0.45728  -0.45209  -0.43783  -0.43778
 Alpha virt. eigenvalues --    0.20874   0.22664   0.23368   0.24273   0.25675
 Alpha virt. eigenvalues --    0.26350   0.26915   0.27193   0.28100   0.29568
 Alpha virt. eigenvalues --    0.30158   0.31498   0.31662   0.31878   0.32450

 Mulliken charges:
               1
     1  C   -0.306495
     2  C   -0.299084
     3  C   -0.479620
     4  H    0.159238
     5  H    0.148536
     6  H    0.151620
     7  H    0.151891
     8  H    0.155187
     9  H    0.159032
    10  H    0.160189
    11  C   -0.297646
    12  C   -0.302232
    13  C   -0.475583
    14  H    0.149467
    15  H    0.149661
    16  H    0.154087
    17  H    0.151263
    18  H    0.155271
    19  H    0.155378
    20  H    0.160260
    21  C   -0.297622
    22  C   -0.307267
    23  C   -0.479254
    24  H    0.149556
    25  H    0.149657
    26  H    0.150793
    27  H    0.159561
    28  H    0.156125
    29  H    0.155365
    30  H    0.162783
    31  C   -0.299195
    32  C   -0.299612
    33  C   -0.475730
    34  H    0.149212
    35  H    0.150637
    36  H    0.151963
    37  H    0.151986
    38  H    0.155249
    39  H    0.155123
    40  H    0.160251
 Sum of Mulliken charges =  -0.00000

 Dipole moment (field-independent basis, Debye):
    X=             -0.0035    Y=             -0.0016    Z=             -0.0025  Tot=              0.0046
 Quadrupole moment (field-independent basis, Debye-Ang):
   XX=            -84.8750   YY=            -86.7880   ZZ=            -83.1778
   XY=              0.7297   XZ=             -0.6149   YZ=             -0.7945

 Normal termination of Gaussian 16 at Wed May  5 21:18:15 2021.
