 Gaussian 16, Revision A.03,
 Gaussian 16:  EM64L-G16RevA.03 25-Dec-2016

 -------------
 #p 6-31g* mp2
 -------------

 ------------------------------------------------------
 Input file generated by CHIRIPA (05-May-2021 14:53:11)
 ------------------------------------------------------
 Symbolic Z-matrix:
 Charge =  0 Multiplicity = 1

                         Standard orientation:
 ---------------------------------------------------------------------
 Center     Atomic      Atomic             Coordinates (Angstroms)
 Number     Number       Type             X           Y           Z
 ---------------------------------------------------------------------
      1          6           0       -4.083920   -0.313343   -0.342063
      2          6           0       -3.449399   -1.695364   -0.182734
      3          6           0       -4.341708   -2.819790   -0.709275
      4          1           0       -5.047455   -0.296251    0.185434
      5          1           0       -4.305890   -0.139705   -1.404124
      6          1           0       -3.227425   -1.865781    0.878539
      7          1           0       -2.487173   -1.709109   -0.710511
      8          1           0       -4.553211   -2.677226   -1.773954
      9          1           0       -5.297669   -2.834788   -0.175875
     10          1           0       -3.868742   -3.798995   -0.585490
     11          6           0       -3.203896    0.821118    0.179745
     12          6           0       -3.838417    2.203139    0.020416
     13          6           0       -2.946108    3.327565    0.546957
     14          1           0       -2.981926    0.647480    1.241806
     15          1           0       -2.240361    0.804026   -0.347752
     16          1           0       -4.800643    2.216884    0.548193
     17          1           0       -4.060391    2.373556   -1.040858
     18          1           0       -1.990147    3.342563    0.013557
     19          1           0       -2.734605    3.185001    1.611636
     20          1           0       -3.419074    4.306769    0.423172
     21          6           0        0.583180   -0.927467    0.906210
     22          6           0        1.715923   -1.092732    1.710015
     23          6           0        2.975164   -0.692381    1.253312
     24          6           0        3.065642   -0.127862   -0.018073
     25          6           0        1.955710    0.050005   -0.842516
     26          6           0        0.706471   -0.357631   -0.365249
     27          1           0       -0.391144   -1.241299    1.268975
     28          1           0        1.623166   -1.534977    2.697872
     29          1           0        3.868550   -0.808670    1.854774
     30          1           0        2.079713    0.493996   -1.822778
     31          1           0       -0.171507   -0.228063   -0.991675
     32          7           0        4.393450    0.299829   -0.512450
     33          8           0        4.446535    0.794521   -1.636327
     34          8           0        5.355958    0.132261    0.233295
 ---------------------------------------------------------------------

 SCF Done:  E(RHF) =  -669.535263437     A.U. after   15 cycles
 E2 =    -0.2092532170D+01 EUMP2 =    -0.67162779560613D+03

 The electronic state is 1-A.
 Alpha  occ. eigenvalues --  -20.60710 -20.60705 -15.85764 -11.31111 -11.27690
 Alpha  occ. eigenvalues --  -11.27686 -11.27374 -11.26680 -11.26658 -11.22873
 Alpha  occ. eigenvalues --  -11.22514 -11.22419 -11.22393 -11.22017 -11.21704
 Alpha  occ. eigenvalues --   -1.59787  -1.39341  -1.19283  -1.09486  -1.08669
 Alpha  occ. eigenvalues --   -1.04689  -1.04475  -0.96891  -0.95510  -0.87906
 Alpha  occ. eigenvalues --   -0.86091  -0.82349  -0.80574  -0.79337  -0.77402
 Alpha  occ. eigenvalues --   -0.71982  -0.71110  -0.70364  -0.66174  -0.64929
 Alpha  occ. eigenvalues --   -0.64668  -0.62047  -0.61871  -0.60275  -0.58515
 Alpha  occ. eigenvalues --   -0.56172  -0.55162  -0.53562  -0.53332  -0.52996
 Alpha  occ. eigenvalues --   -0.52789  -0.50833  -0.48868  -0.48745  -0.48738
 Alpha  occ. eigenvalues --   -0.47619  -0.46798  -0.46735  -0.44751  -0.44750
 Alpha  occ. eigenvalues --   -0.37238  -0.36292
 Alpha virt. eigenvalues --    0.05134   0.11250   0.16612   0.19012   0.22651
 Alpha virt. eigenvalues --    0.23402   0.23883   0.25154   0.27118   0.28290
 Alpha virt. eigenvalues --    0.29728   0.30397   0.30965   0.31285   0.31638

 Mulliken charges:
               1
     1  C   -0.298257
     2  C   -0.305248
     3  C   -0.475749
     4  H    0.154199
     5  H    0.152653
     6  H    0.148853
     7  H    0.147062
     8  H    0.158518
     9  H    0.158701
    10  H    0.162561
    11  C   -0.303684
    12  C   -0.300149
    13  C   -0.476316
    14  H    0.148458
    15  H    0.145128
    16  H    0.154695
    17  H    0.153936
    18  H    0.156225
    19  H    0.156014
    20  H    0.163652
    21  C   -0.173407
    22  C   -0.219506
    23  C   -0.170666
    24  C    0.158412
    25  C   -0.171600
    26  C   -0.223237
    27  H    0.231425
    28  H    0.223102
    29  H    0.275289
    30  H    0.275213
    31  H    0.227079
    32  N    0.488033
    33  O   -0.460746
    34  O   -0.460646
 Sum of Mulliken charges =  -0.00000

 Dipole moment (field-independent basis, Debye):
    X=             -4.9503    Y=             -1.4642    Z=              1.7414  Tot=              5.4481
 Quadrupole moment (field-independent basis, Debye-Ang):
   XX=           -122.2331   YY=            -95.0248   ZZ=            -90.5704
   XY=             -5.2182   XZ=              7.0719   YZ=             -2.0489

 Normal termination of Gaussian 16 at Wed May  5 15:25:52 2021.
