 Gaussian 16, Revision A.03,
 Gaussian 16:  EM64L-G16RevA.03 25-Dec-2016

 -------------
 #p 6-31g* mp2
 -------------

 ------------------------------------------------------
 Input file generated by CHIRIPA (05-May-2021 14:51:11)
 ------------------------------------------------------
 Symbolic Z-matrix:
 Charge =  0 Multiplicity = 1

                         Standard orientation:
 ---------------------------------------------------------------------
 Center     Atomic      Atomic             Coordinates (Angstroms)
 Number     Number       Type             X           Y           Z
 ---------------------------------------------------------------------
      1          6           0       -5.109189   -0.222161    0.260523
      2          6           0       -5.469157   -1.554848   -0.397014
      3          6           0       -6.875034   -2.033048   -0.032833
      4          1           0       -5.192182   -0.324458    1.351207
      5          1           0       -5.844833    0.537089   -0.039083
      6          1           0       -4.732261   -2.311027   -0.097359
      7          1           0       -5.385112   -1.449420   -1.486251
      8          1           0       -7.624809   -1.299718   -0.346945
      9          1           0       -6.968249   -2.166221    1.049838
     10          1           0       -7.111602   -2.987361   -0.513647
     11          6           0       -3.706764    0.269019   -0.093983
     12          6           0       -3.346797    1.601706    0.563553
     13          6           0       -1.940920    2.079906    0.199372
     14          1           0       -2.971121   -0.490231    0.205622
     15          1           0       -3.623771    0.371316   -1.184668
     16          1           0       -3.430842    1.496279    1.652790
     17          1           0       -4.083693    2.357885    0.263899
     18          1           0       -1.847705    2.213079   -0.883299
     19          1           0       -1.191145    1.346576    0.513484
     20          1           0       -1.704352    3.034219    0.680187
     21          6           0        4.745356   -0.707620   -0.044678
     22          6           0        6.250665   -0.627832    0.211568
     23          6           0        6.911419   -2.004653    0.286162
     24          1           0        4.274933   -1.298946    0.752807
     25          1           0        4.568503   -1.251541   -0.982904
     26          1           0        6.424682   -0.083019    1.148325
     27          1           0        6.717532   -0.036466   -0.586515
     28          1           0        6.767205   -2.552433   -0.650717
     29          1           0        6.472691   -2.599250    1.093981
     30          1           0        7.987341   -1.924181    0.469942
     31          6           0        4.070599    0.660763   -0.121862
     32          6           0        2.565288    0.580974   -0.378107
     33          6           0        1.904535    1.957794   -0.452701
     34          1           0        4.247450    1.204684    0.816365
     35          1           0        4.541020    1.252089   -0.919346
     36          1           0        2.098421   -0.010392    0.419976
     37          1           0        2.391273    0.036162   -1.314865
     38          1           0        2.343263    2.552392   -1.260521
     39          1           0        2.048749    2.505574    0.484177
     40          1           0        0.828612    1.877323   -0.636482
 ---------------------------------------------------------------------

 SCF Done:  E(RHF) =  -470.732823614     A.U. after   11 cycles
 E2 =    -0.1582495773D+01 EUMP2 =    -0.47231531938788D+03

 The electronic state is 1-A.
 Alpha  occ. eigenvalues --  -11.21608 -11.21607 -11.21574 -11.21530 -11.21415
 Alpha  occ. eigenvalues --  -11.21359 -11.21356 -11.21297 -11.21087 -11.21076
 Alpha  occ. eigenvalues --  -11.21051 -11.20865  -1.08442  -1.08377  -1.03556
 Alpha  occ. eigenvalues --   -1.03456  -0.96041  -0.95872  -0.87099  -0.86852
 Alpha  occ. eigenvalues --   -0.79665  -0.79483  -0.78256  -0.78193  -0.65074
 Alpha  occ. eigenvalues --   -0.65008  -0.60963  -0.60850  -0.59364  -0.59321
 Alpha  occ. eigenvalues --   -0.57741  -0.57406  -0.55315  -0.55166  -0.52976
 Alpha  occ. eigenvalues --   -0.52613  -0.52405  -0.52051  -0.49957  -0.49826
 Alpha  occ. eigenvalues --   -0.48029  -0.47717  -0.46639  -0.46567  -0.45796
 Alpha  occ. eigenvalues --   -0.45730  -0.45719  -0.45663  -0.43847  -0.43624
 Alpha virt. eigenvalues --    0.22389   0.22971   0.23601   0.24757   0.26526
 Alpha virt. eigenvalues --    0.26669   0.26886   0.27505   0.27637   0.29048
 Alpha virt. eigenvalues --    0.30622   0.31149   0.31429   0.31746   0.32194

 Mulliken charges:
               1
     1  C   -0.298274
     2  C   -0.299649
     3  C   -0.475714
     4  H    0.149657
     5  H    0.149578
     6  H    0.151957
     7  H    0.151953
     8  H    0.155197
     9  H    0.155180
    10  H    0.160282
    11  C   -0.298395
    12  C   -0.300340
    13  C   -0.478067
    14  H    0.149531
    15  H    0.149600
    16  H    0.151968
    17  H    0.151936
    18  H    0.154937
    19  H    0.157430
    20  H    0.161637
    21  C   -0.298157
    22  C   -0.299592
    23  C   -0.475662
    24  H    0.149360
    25  H    0.149395
    26  H    0.151854
    27  H    0.151908
    28  H    0.155129
    29  H    0.155071
    30  H    0.160155
    31  C   -0.298133
    32  C   -0.299525
    33  C   -0.484506
    34  H    0.149349
    35  H    0.149629
    36  H    0.150744
    37  H    0.151509
    38  H    0.153863
    39  H    0.154051
    40  H    0.173155
 Sum of Mulliken charges =  -0.00000

 Dipole moment (field-independent basis, Debye):
    X=             -0.0510    Y=              0.0157    Z=              0.0002  Tot=              0.0534
 Quadrupole moment (field-independent basis, Debye-Ang):
   XX=            -86.1933   YY=            -85.6185   ZZ=            -83.1240
   XY=             -0.1365   XZ=              0.2545   YZ=             -0.2808

 Normal termination of Gaussian 16 at Thu May  6 00:39:19 2021.
