 Gaussian 16, Revision A.03,
 Gaussian 16:  EM64L-G16RevA.03 25-Dec-2016

 -------------
 #p 6-31g* mp2
 -------------

 ------------------------------------------------------
 Input file generated by CHIRIPA (05-May-2021 14:53:12)
 ------------------------------------------------------
 Symbolic Z-matrix:
 Charge =  0 Multiplicity = 1

                         Standard orientation:
 ---------------------------------------------------------------------
 Center     Atomic      Atomic             Coordinates (Angstroms)
 Number     Number       Type             X           Y           Z
 ---------------------------------------------------------------------
      1          6           0       -5.047352   -0.003600    0.207661
      2          6           0       -5.685173    0.823421   -0.909123
      3          6           0       -7.182018    1.050538   -0.695428
      4          1           0       -5.560528   -0.972542    0.276554
      5          1           0       -5.208566    0.504499    1.168515
      6          1           0       -5.521604    0.314610   -1.867754
      7          1           0       -5.170294    1.790432   -0.975493
      8          1           0       -7.360859    1.579013    0.246555
      9          1           0       -7.714165    0.094805   -0.650775
     10          1           0       -7.617697    1.643909   -1.505339
     11          6           0       -3.551205   -0.239152    0.008191
     12          6           0       -2.913384   -1.066173    1.124975
     13          6           0       -1.416539   -1.293290    0.911280
     14          1           0       -3.389992   -0.747251   -0.952663
     15          1           0       -3.038029    0.729790   -0.060702
     16          1           0       -3.428263   -2.033184    1.191345
     17          1           0       -3.076953   -0.557362    2.083605
     18          1           0       -0.884392   -0.337557    0.866627
     19          1           0       -1.237698   -1.821764   -0.030703
     20          1           0       -0.980861   -1.886661    1.721190
     21          6           0        3.950302    2.519761    0.284124
     22          6           0        2.720474    2.023792    0.729161
     23          6           0        2.382177    0.681923    0.530436
     24          6           0        3.301628   -0.139609   -0.119937
     25          6           0        4.534750    0.324813   -0.574923
     26          6           0        4.851926    1.670186   -0.365352
     27          1           0        4.204896    3.563518    0.442711
     28          1           0        2.018305    2.681278    1.233857
     29          1           0        1.436979    0.271733    0.864746
     30          1           0        5.214102   -0.354886   -1.074830
     31          1           0        5.807749    2.052613   -0.712045
     32          7           0        2.954668   -1.562040   -0.336059
     33          8           0        3.782102   -2.265307   -0.911739
     34          8           0        1.861858   -1.946740    0.074317
 ---------------------------------------------------------------------

 SCF Done:  E(RHF) =  -669.535244682     A.U. after   15 cycles
 E2 =    -0.2091693522D+01 EUMP2 =    -0.67162693820370D+03

 The electronic state is 1-A.
 Alpha  occ. eigenvalues --  -20.60756 -20.60749 -15.85798 -11.31159 -11.27739
 Alpha  occ. eigenvalues --  -11.27700 -11.27488 -11.26756 -11.26743 -11.21495
 Alpha  occ. eigenvalues --  -11.21239 -11.21217 -11.21136 -11.20990 -11.20493
 Alpha  occ. eigenvalues --   -1.59828  -1.39380  -1.19338  -1.08737  -1.08215
 Alpha  occ. eigenvalues --   -1.04742  -1.03269  -0.95728  -0.95544  -0.86714
 Alpha  occ. eigenvalues --   -0.86138  -0.82402  -0.79343  -0.78043  -0.77418
 Alpha  occ. eigenvalues --   -0.72016  -0.71148  -0.70456  -0.64992  -0.64874
 Alpha  occ. eigenvalues --   -0.64738  -0.62116  -0.60665  -0.59074  -0.57312
 Alpha  occ. eigenvalues --   -0.55286  -0.54977  -0.53072  -0.52870  -0.52347
 Alpha  occ. eigenvalues --   -0.52090  -0.49650  -0.48778  -0.48773  -0.47630
 Alpha  occ. eigenvalues --   -0.46384  -0.45571  -0.45497  -0.44766  -0.43507
 Alpha  occ. eigenvalues --   -0.37324  -0.36344
 Alpha virt. eigenvalues --    0.05072   0.11298   0.16558   0.20925   0.23066
 Alpha virt. eigenvalues --    0.24314   0.25856   0.27039   0.27731   0.27773
 Alpha virt. eigenvalues --    0.29353   0.30655   0.31506   0.31963   0.32440

 Mulliken charges:
               1
     1  C   -0.297826
     2  C   -0.299294
     3  C   -0.475541
     4  H    0.150512
     5  H    0.147988
     6  H    0.152653
     7  H    0.150062
     8  H    0.154390
     9  H    0.155706
    10  H    0.159648
    11  C   -0.297492
    12  C   -0.302660
    13  C   -0.468355
    14  H    0.151621
    15  H    0.144880
    16  H    0.153297
    17  H    0.147333
    18  H    0.136730
    19  H    0.168989
    20  H    0.166186
    21  C   -0.170402
    22  C   -0.222114
    23  C   -0.176954
    24  C    0.155275
    25  C   -0.170098
    26  C   -0.219082
    27  H    0.225465
    28  H    0.223349
    29  H    0.290090
    30  H    0.275499
    31  H    0.223313
    32  N    0.489949
    33  O   -0.460678
    34  O   -0.462440
 Sum of Mulliken charges =  -0.00000

 Dipole moment (field-independent basis, Debye):
    X=              1.2909    Y=              4.8437    Z=              0.7219  Tot=              5.0645
 Quadrupole moment (field-independent basis, Debye-Ang):
   XX=            -84.5930   YY=            -95.7399   ZZ=            -94.4794
   XY=             16.6000   XZ=              0.3128   YZ=              0.1212

 Normal termination of Gaussian 16 at Thu May  6 10:26:03 2021.
