 Gaussian 16, Revision A.03,
 Gaussian 16:  EM64L-G16RevA.03 25-Dec-2016

 -------------
 #p 6-31g* mp2
 -------------

 ------------------------------------------------------
 Input file generated by CHIRIPA (05-May-2021 14:55:20)
 ------------------------------------------------------
 Symbolic Z-matrix:
 Charge =  0 Multiplicity = 1

                         Standard orientation:
 ---------------------------------------------------------------------
 Center     Atomic      Atomic             Coordinates (Angstroms)
 Number     Number       Type             X           Y           Z
 ---------------------------------------------------------------------
      1          6           0       -3.679112    1.954778   -0.367569
      2          6           0       -3.929704    0.813525   -1.136507
      3          6           0       -3.259297   -0.383868   -0.869388
      4          6           0       -2.340647   -0.404491    0.178919
      5          6           0       -2.069221    0.715725    0.962969
      6          6           0       -2.751306    1.902328    0.677871
      7          1           0       -4.204436    2.880751   -0.582057
      8          1           0       -4.649719    0.851332   -1.949030
      9          1           0       -3.434101   -1.282250   -1.448845
     10          1           0       -1.345873    0.647207    1.766394
     11          1           0       -2.554680    2.787083    1.276697
     12          7           0       -1.624736   -1.666406    0.471223
     13          8           0       -0.820133   -1.658547    1.400303
     14          8           0       -1.881763   -2.639460   -0.234285
     15          6           0        3.521049   -0.413865   -0.195727
     16          6           0        2.594564   -1.626687   -0.288855
     17          6           0        3.357541   -2.950518   -0.344819
     18          1           0        4.199456   -0.411473   -1.059846
     19          1           0        4.153198   -0.511855    0.697682
     20          1           0        1.963388   -1.525760   -1.181070
     21          1           0        1.918155   -1.626086    0.575486
     22          1           0        3.974598   -3.077671    0.550543
     23          1           0        4.020088   -2.976774   -1.215993
     24          1           0        2.675913   -3.804244   -0.411133
     25          6           0        2.773065    0.916936   -0.138978
     26          6           0        3.699550    2.129759   -0.045849
     27          6           0        2.936573    3.453590    0.010114
     28          1           0        2.140916    1.014927   -1.032387
     29          1           0        2.094657    0.914544    0.725141
     30          1           0        4.375959    2.129158   -0.910192
     31          1           0        4.330726    2.028831    0.846365
     32          1           0        2.274026    3.479846    0.881288
     33          1           0        2.319516    3.580742   -0.885248
     34          1           0        3.618200    4.307315    0.076428
 ---------------------------------------------------------------------

 SCF Done:  E(RHF) =  -669.536321182     A.U. after   15 cycles
 E2 =    -0.2091557824D+01 EUMP2 =    -0.67162787900613D+03

 The electronic state is 1-A.
 Alpha  occ. eigenvalues --  -20.60918 -20.60912 -15.85941 -11.31256 -11.27820
 Alpha  occ. eigenvalues --  -11.27816 -11.27554 -11.26826 -11.26815 -11.21398
 Alpha  occ. eigenvalues --  -11.21080 -11.21011 -11.20714 -11.20457 -11.20056
 Alpha  occ. eigenvalues --   -1.59968  -1.39527  -1.19422  -1.08828  -1.07891
 Alpha  occ. eigenvalues --   -1.04819  -1.02940  -0.95672  -0.95441  -0.86468
 Alpha  occ. eigenvalues --   -0.86220  -0.82510  -0.79056  -0.77651  -0.77539
 Alpha  occ. eigenvalues --   -0.72169  -0.71272  -0.70534  -0.65081  -0.64824
 Alpha  occ. eigenvalues --   -0.64526  -0.62169  -0.60337  -0.58850  -0.57004
 Alpha  occ. eigenvalues --   -0.55325  -0.54757  -0.53148  -0.52913  -0.52129
 Alpha  occ. eigenvalues --   -0.51864  -0.49425  -0.48936  -0.48924  -0.47362
 Alpha  occ. eigenvalues --   -0.46118  -0.45403  -0.45142  -0.44551  -0.43201
 Alpha  occ. eigenvalues --   -0.37398  -0.36417
 Alpha virt. eigenvalues --    0.04931   0.11223   0.16406   0.21226   0.23267
 Alpha virt. eigenvalues --    0.24925   0.26426   0.27430   0.27672   0.28431
 Alpha virt. eigenvalues --    0.28893   0.31018   0.31925   0.32161   0.32444

 Mulliken charges:
               1
     1  C   -0.170634
     2  C   -0.218594
     3  C   -0.170940
     4  C    0.158710
     5  C   -0.170060
     6  C   -0.218274
     7  H    0.225930
     8  H    0.223644
     9  H    0.275652
    10  H    0.275302
    11  H    0.223903
    12  N    0.489126
    13  O   -0.460281
    14  O   -0.459091
    15  C   -0.297686
    16  C   -0.308823
    17  C   -0.475729
    18  H    0.146350
    19  H    0.148247
    20  H    0.146923
    21  H    0.175795
    22  H    0.152482
    23  H    0.149197
    24  H    0.166924
    25  C   -0.297449
    26  C   -0.298983
    27  C   -0.474665
    28  H    0.146879
    29  H    0.148171
    30  H    0.151994
    31  H    0.152238
    32  H    0.150643
    33  H    0.153488
    34  H    0.159611
 Sum of Mulliken charges =  -0.00000

 Dipole moment (field-independent basis, Debye):
    X=             -2.7118    Y=              4.3198    Z=             -0.9624  Tot=              5.1904
 Quadrupole moment (field-independent basis, Debye-Ang):
   XX=            -83.0483   YY=            -99.0203   ZZ=            -91.7356
   XY=             -8.0347   XZ=              4.4183   YZ=              2.9224

 Normal termination of Gaussian 16 at Thu May  6 20:40:26 2021.
