 Gaussian 16, Revision A.03,
 Gaussian 16:  EM64L-G16RevA.03 25-Dec-2016

 -------------
 #p 6-31g* mp2
 -------------

 ------------------------------------------------------
 Input file generated by CHIRIPA (05-May-2021 14:55:18)
 ------------------------------------------------------
 Symbolic Z-matrix:
 Charge =  0 Multiplicity = 1

                         Standard orientation:
 ---------------------------------------------------------------------
 Center     Atomic      Atomic             Coordinates (Angstroms)
 Number     Number       Type             X           Y           Z
 ---------------------------------------------------------------------
      1          6           0        1.462632   -1.668695   -2.104174
      2          6           0        0.772568   -2.133121   -0.979611
      3          6           0        0.967155   -1.536092    0.269484
      4          6           0        1.863293   -0.471975    0.358268
      5          6           0        2.565689    0.013460   -0.743676
      6          6           0        2.355417   -0.598773   -1.982831
      7          1           0        1.305380   -2.138387   -3.070640
      8          1           0        0.078606   -2.963863   -1.070878
      9          1           0        0.446049   -1.875591    1.156393
     10          1           0        3.250998    0.843411   -0.621402
     11          1           0        2.892705   -0.235993   -2.854471
     12          7           0        2.077597    0.168120    1.675368
     13          8           0        2.872554    1.104067    1.727165
     14          8           0        1.446553   -0.278240    2.630974
     15          6           0       -1.676655    0.979352   -0.473940
     16          6           0       -1.557381    2.502472   -0.536095
     17          6           0       -0.225213    2.967570   -1.124999
     18          1           0       -0.848670    0.577255    0.125813
     19          1           0       -1.558348    0.567672   -1.485828
     20          1           0       -1.677258    2.911255    0.475410
     21          1           0       -2.385855    2.901004   -1.135609
     22          1           0       -0.100853    2.587404   -2.144121
     23          1           0        0.611770    2.597713   -0.523948
     24          1           0       -0.161212    4.059602   -1.160099
     25          6           0       -3.002956    0.498974    0.112482
     26          6           0       -3.122232   -1.024146    0.174637
     27          6           0       -4.454398   -1.489245    0.763541
     28          1           0       -3.121264    0.910653    1.124371
     29          1           0       -3.830942    0.901070   -0.487271
     30          1           0       -2.293758   -1.422678    0.774151
     31          1           0       -3.002355   -1.432929   -0.836868
     32          1           0       -5.291383   -1.119387    0.162490
     33          1           0       -4.578760   -1.109078    1.782662
     34          1           0       -4.518401   -2.581276    0.798641
 ---------------------------------------------------------------------

 SCF Done:  E(RHF) =  -669.534196682     A.U. after   15 cycles
 E2 =    -0.2096003664D+01 EUMP2 =    -0.67163020034550D+03

 The electronic state is 1-A.
 Alpha  occ. eigenvalues --  -20.60887 -20.60882 -15.85919 -11.31197 -11.27811
 Alpha  occ. eigenvalues --  -11.27777 -11.27549 -11.26813 -11.26786 -11.21920
 Alpha  occ. eigenvalues --  -11.21479 -11.21429 -11.21284 -11.21246 -11.20977
 Alpha  occ. eigenvalues --   -1.59954  -1.39509  -1.19419  -1.08819  -1.08471
 Alpha  occ. eigenvalues --   -1.04809  -1.03597  -0.96025  -0.95660  -0.87053
 Alpha  occ. eigenvalues --   -0.86212  -0.82489  -0.79690  -0.78311  -0.77533
 Alpha  occ. eigenvalues --   -0.72140  -0.71288  -0.70533  -0.65128  -0.65067
 Alpha  occ. eigenvalues --   -0.64787  -0.62167  -0.60992  -0.59414  -0.57660
 Alpha  occ. eigenvalues --   -0.55324  -0.55310  -0.53303  -0.52898  -0.52709
 Alpha  occ. eigenvalues --   -0.52439  -0.49983  -0.48903  -0.48894  -0.47997
 Alpha  occ. eigenvalues --   -0.46728  -0.45760  -0.45732  -0.44896  -0.43826
 Alpha  occ. eigenvalues --   -0.37319  -0.36301
 Alpha virt. eigenvalues --    0.04945   0.11088   0.16400   0.20655   0.22924
 Alpha virt. eigenvalues --    0.23897   0.25571   0.26529   0.27605   0.28165
 Alpha virt. eigenvalues --    0.28733   0.30418   0.30800   0.31812   0.32017

 Mulliken charges:
               1
     1  C   -0.171653
     2  C   -0.212132
     3  C   -0.175814
     4  C    0.160703
     5  C   -0.170393
     6  C   -0.217391
     7  H    0.225775
     8  H    0.224632
     9  H    0.275556
    10  H    0.276004
    11  H    0.223868
    12  N    0.488577
    13  O   -0.460423
    14  O   -0.460628
    15  C   -0.301189
    16  C   -0.300306
    17  C   -0.476748
    18  H    0.155349
    19  H    0.145239
    20  H    0.156434
    21  H    0.149930
    22  H    0.149752
    23  H    0.157456
    24  H    0.161086
    25  C   -0.298022
    26  C   -0.299788
    27  C   -0.475634
    28  H    0.154253
    29  H    0.148922
    30  H    0.147057
    31  H    0.146572
    32  H    0.156012
    33  H    0.159124
    34  H    0.157817
 Sum of Mulliken charges =  -0.00000

 Dipole moment (field-independent basis, Debye):
    X=             -0.6953    Y=             -2.2501    Z=             -4.5961  Tot=              5.1644
 Quadrupole moment (field-independent basis, Debye-Ang):
   XX=            -96.5368   YY=            -91.3950   ZZ=            -97.0892
   XY=             -2.0678   XZ=            -10.0989   YZ=              0.3584

 Normal termination of Gaussian 16 at Wed May  5 17:19:35 2021.
