 Gaussian 16, Revision A.03,
 Gaussian 16:  EM64L-G16RevA.03 25-Dec-2016

 -------------
 #p 6-31g* mp2
 -------------

 ------------------------------------------------------
 Input file generated by CHIRIPA (05-May-2021 14:57:21)
 ------------------------------------------------------
 Symbolic Z-matrix:
 Charge =  0 Multiplicity = 1

                         Standard orientation:
 ---------------------------------------------------------------------
 Center     Atomic      Atomic             Coordinates (Angstroms)
 Number     Number       Type             X           Y           Z
 ---------------------------------------------------------------------
      1          6           0       -3.375001    2.157711   -1.068020
      2          6           0       -2.401148    1.400810   -0.408298
      3          6           0       -2.731028    0.175207    0.177897
      4          6           0       -4.050367   -0.265249    0.084991
      5          6           0       -5.043129    0.465933   -0.565461
      6          6           0       -4.690564    1.688683   -1.144361
      7          1           0       -3.109931    3.108681   -1.520557
      8          1           0       -1.378668    1.762580   -0.347452
      9          1           0       -1.996947   -0.430999    0.694673
     10          1           0       -6.053995    0.079137   -0.609698
     11          1           0       -5.448950    2.274381   -1.656077
     12          7           0       -4.411604   -1.561230    0.701708
     13          8           0       -5.581029   -1.927182    0.605998
     14          8           0       -3.518476   -2.186529    1.269124
     15          6           0        2.881462    2.015279    1.147760
     16          6           0        4.183377    1.646985    1.502579
     17          6           0        4.807913    0.560720    0.882475
     18          6           0        4.098081   -0.138181   -0.092700
     19          6           0        2.799945    0.204238   -0.468042
     20          6           0        2.195110    1.294001    0.165313
     21          1           0        2.403960    2.860475    1.634618
     22          1           0        4.718812    2.205315    2.265222
     23          1           0        5.814925    0.253963    1.137904
     24          1           0        2.291539   -0.371557   -1.231851
     25          1           0        1.183933    1.577755   -0.112265
     26          7           0        4.748820   -1.290013   -0.756191
     27          8           0        4.102061   -1.889514   -1.612309
     28          8           0        5.893307   -1.571508   -0.407554
 ---------------------------------------------------------------------

 SCF Done:  E(RHF) =  -868.336330573     A.U. after   16 cycles
 E2 =    -0.2599505727D+01 EUMP2 =    -0.87093583630063D+03

 The electronic state is 1-A.
 Alpha  occ. eigenvalues --  -20.61128 -20.61122 -20.61062 -20.61057 -15.86190
 Alpha  occ. eigenvalues --  -15.86124 -11.31696 -11.31628 -11.28347 -11.28279
 Alpha  occ. eigenvalues --  -11.28268 -11.28204 -11.28101 -11.28046 -11.27484
 Alpha  occ. eigenvalues --  -11.27423 -11.27292 -11.27230  -1.60201  -1.60135
 Alpha  occ. eigenvalues --   -1.39751  -1.39685  -1.19903  -1.19837  -1.09273
 Alpha  occ. eigenvalues --   -1.09210  -1.05348  -1.05275  -0.96075  -0.96013
 Alpha  occ. eigenvalues --   -0.86754  -0.86662  -0.82930  -0.82846  -0.77962
 Alpha  occ. eigenvalues --   -0.77851  -0.72404  -0.72340  -0.71527  -0.71460
 Alpha  occ. eigenvalues --   -0.71006  -0.70947  -0.65569  -0.65547  -0.65499
 Alpha  occ. eigenvalues --   -0.65183  -0.62797  -0.62524  -0.55851  -0.55769
 Alpha  occ. eigenvalues --   -0.53646  -0.53597  -0.53577  -0.53254  -0.49178
 Alpha  occ. eigenvalues --   -0.49149  -0.49110  -0.49084  -0.45125  -0.45059
 Alpha  occ. eigenvalues --   -0.37885  -0.37825  -0.36948  -0.36879
 Alpha virt. eigenvalues --    0.04627   0.04693   0.10703   0.10763   0.16065
 Alpha virt. eigenvalues --    0.16125   0.17672   0.21932   0.24289   0.27688
 Alpha virt. eigenvalues --    0.27903   0.28542   0.29475   0.31727   0.31803

 Mulliken charges:
               1
     1  C   -0.171284
     2  C   -0.222464
     3  C   -0.172072
     4  C    0.159130
     5  C   -0.169506
     6  C   -0.218335
     7  H    0.226450
     8  H    0.217827
     9  H    0.276312
    10  H    0.277819
    11  H    0.225527
    12  N    0.488096
    13  O   -0.458740
    14  O   -0.458809
    15  C   -0.171481
    16  C   -0.218280
    17  C   -0.169408
    18  C    0.159361
    19  C   -0.171518
    20  C   -0.223029
    21  H    0.225455
    22  H    0.225444
    23  H    0.277766
    24  H    0.277227
    25  H    0.218079
    26  N    0.488116
    27  O   -0.458841
    28  O   -0.458844
 Sum of Mulliken charges =  -0.00000

 Dipole moment (field-independent basis, Debye):
    X=             -1.0218    Y=              8.5177    Z=              0.1873  Tot=              8.5808
 Quadrupole moment (field-independent basis, Debye-Ang):
   XX=           -124.3393   YY=           -109.5700   ZZ=           -104.8212
   XY=             -1.9043   XZ=             23.3894   YZ=              0.5559

 Normal termination of Gaussian 16 at Thu May  6 04:54:03 2021.
