 Gaussian 16, Revision A.03,
 Gaussian 16:  EM64L-G16RevA.03 25-Dec-2016

 -------------
 #p 6-31g* mp2
 -------------

 ------------------------------------------------------
 Input file generated by CHIRIPA (05-May-2021 14:57:23)
 ------------------------------------------------------
 Symbolic Z-matrix:
 Charge =  0 Multiplicity = 1

                         Standard orientation:
 ---------------------------------------------------------------------
 Center     Atomic      Atomic             Coordinates (Angstroms)
 Number     Number       Type             X           Y           Z
 ---------------------------------------------------------------------
      1          6           0        4.755136   -2.006013    0.119870
      2          6           0        3.371798   -1.907418   -0.062278
      3          6           0        2.758922   -0.656681   -0.183063
      4          6           0        3.563314    0.479915   -0.116795
      5          6           0        4.944019    0.414426    0.063914
      6          6           0        5.535455   -0.846820    0.182275
      7          1           0        5.222905   -2.981697    0.212758
      8          1           0        2.763300   -2.805966   -0.111121
      9          1           0        1.690152   -0.551460   -0.324756
     10          1           0        5.524345    1.328013    0.108615
     11          1           0        6.610000   -0.920362    0.323663
     12          7           0        2.925838    1.809577   -0.243381
     13          8           0        3.656675    2.795834   -0.181632
     14          8           0        1.707419    1.840332   -0.401953
     15          6           0       -5.779764    1.102244   -0.128030
     16          6           0       -4.656488    1.649761    0.500456
     17          6           0       -3.481274    0.903708    0.630162
     18          6           0       -3.464257   -0.392542    0.117584
     19          6           0       -4.566919   -0.965979   -0.513763
     20          6           0       -5.731480   -0.201580   -0.632245
     21          1           0       -6.688562    1.688922   -0.224430
     22          1           0       -4.691111    2.662071    0.892980
     23          1           0       -2.597123    1.302931    1.112153
     24          1           0       -4.502104   -1.977811   -0.895094
     25          1           0       -6.602306   -0.629373   -1.120814
     26          7           0       -2.225749   -1.192067    0.248957
     27          8           0       -2.236337   -2.331775   -0.211032
     28          8           0       -1.267868   -0.663886    0.809428
 ---------------------------------------------------------------------

 SCF Done:  E(RHF) =  -868.340210707     A.U. after   16 cycles
 E2 =    -0.2598376799D+01 EUMP2 =    -0.87093858750567D+03

 The electronic state is 1-A.
 Alpha  occ. eigenvalues --  -20.60968 -20.60926 -20.59988 -20.59965 -15.85961
 Alpha  occ. eigenvalues --  -15.85026 -11.31084 -11.30216 -11.27672 -11.27573
 Alpha  occ. eigenvalues --  -11.27366 -11.26878 -11.26637 -11.26607 -11.26578
 Alpha  occ. eigenvalues --  -11.26568 -11.25876 -11.25685  -1.60012  -1.59061
 Alpha  occ. eigenvalues --   -1.39565  -1.38613  -1.19245  -1.18401  -1.08695
 Alpha  occ. eigenvalues --   -1.07849  -1.04610  -1.03760  -0.95565  -0.94696
 Alpha  occ. eigenvalues --   -0.86022  -0.85178  -0.82399  -0.81520  -0.77465
 Alpha  occ. eigenvalues --   -0.76565  -0.72197  -0.71312  -0.71246  -0.70380
 Alpha  occ. eigenvalues --   -0.70358  -0.69516  -0.64904  -0.64618  -0.64054
 Alpha  occ. eigenvalues --   -0.63765  -0.61951  -0.61075  -0.55143  -0.54325
 Alpha  occ. eigenvalues --   -0.52957  -0.52700  -0.52136  -0.51840  -0.48960
 Alpha  occ. eigenvalues --   -0.48952  -0.48016  -0.47993  -0.45011  -0.44057
 Alpha  occ. eigenvalues --   -0.37226  -0.36426  -0.36199  -0.35361
 Alpha virt. eigenvalues --    0.05025   0.05931   0.11458   0.12281   0.16543
 Alpha virt. eigenvalues --    0.17432   0.21591   0.22448   0.27537   0.28331
 Alpha virt. eigenvalues --    0.28527   0.29376   0.31158   0.31937   0.32740

 Mulliken charges:
               1
     1  C   -0.171111
     2  C   -0.221517
     3  C   -0.173344
     4  C    0.155367
     5  C   -0.172028
     6  C   -0.219828
     7  H    0.222750
     8  H    0.229052
     9  H    0.293276
    10  H    0.271898
    11  H    0.219482
    12  N    0.487663
    13  O   -0.465925
    14  O   -0.459022
    15  C   -0.170022
    16  C   -0.218913
    17  C   -0.168807
    18  C    0.157102
    19  C   -0.170892
    20  C   -0.218986
    21  H    0.225810
    22  H    0.225687
    23  H    0.282134
    24  H    0.273920
    25  H    0.222759
    26  N    0.489020
    27  O   -0.464657
    28  O   -0.460871
 Sum of Mulliken charges =  -0.00000

 Dipole moment (field-independent basis, Debye):
    X=             -2.4886    Y=             -1.8657    Z=              0.0217  Tot=              3.1104
 Quadrupole moment (field-independent basis, Debye-Ang):
   XX=            -55.6016   YY=           -108.6692   ZZ=           -105.4820
   XY=            -20.5222   XZ=              4.1464   YZ=              3.7090

 Normal termination of Gaussian 16 at Thu May  6 22:42:22 2021.
