 Gaussian 16, Revision A.03,
 Gaussian 16:  EM64L-G16RevA.03 25-Dec-2016

 -------------
 #p 6-31g* mp2
 -------------

 ------------------------------------------------------
 Input file generated by CHIRIPA (05-May-2021 14:55:21)
 ------------------------------------------------------
 Symbolic Z-matrix:
 Charge =  0 Multiplicity = 1

                         Standard orientation:
 ---------------------------------------------------------------------
 Center     Atomic      Atomic             Coordinates (Angstroms)
 Number     Number       Type             X           Y           Z
 ---------------------------------------------------------------------
      1          6           0       -2.377448   -2.163489   -1.040037
      2          6           0       -3.639285   -1.909261   -0.492629
      3          6           0       -3.979002   -0.624616   -0.058086
      4          6           0       -3.028316    0.386821   -0.186466
      5          6           0       -1.762899    0.165039   -0.727597
      6          6           0       -1.444926   -1.127354   -1.155570
      7          1           0       -2.121993   -3.164441   -1.375049
      8          1           0       -4.365491   -2.712005   -0.401676
      9          1           0       -4.948623   -0.399997    0.369464
     10          1           0       -1.060023    0.985613   -0.805328
     11          1           0       -0.464207   -1.321875   -1.580301
     12          7           0       -3.376449    1.750918    0.270087
     13          8           0       -2.521129    2.624807    0.146063
     14          8           0       -4.498045    1.920379    0.743313
     15          6           0        4.400325    0.265723    0.385881
     16          6           0        5.135317    0.459143   -0.940905
     17          6           0        6.328269    1.408222   -0.822966
     18          1           0        4.058455    1.242671    0.754176
     19          1           0        5.105349   -0.121305    1.134578
     20          1           0        4.428790    0.844382   -1.687247
     21          1           0        5.475310   -0.518403   -1.306180
     22          1           0        7.054771    1.025669   -0.098777
     23          1           0        6.002304    2.396197   -0.482009
     24          1           0        6.839154    1.532119   -1.782916
     25          6           0        3.205280   -0.680445    0.284102
     26          6           0        2.470289   -0.873864    1.610888
     27          6           0        1.277337   -1.822943    1.492948
     28          1           0        2.500256   -0.293417   -0.464594
     29          1           0        3.547150   -1.657394   -0.084194
     30          1           0        2.130295    0.103680    1.976163
     31          1           0        3.176815   -1.259105    2.357229
     32          1           0        1.603301   -2.810919    1.151991
     33          1           0        0.550835   -1.440391    0.768760
     34          1           0        0.766452   -1.946841    2.452900
 ---------------------------------------------------------------------

 SCF Done:  E(RHF) =  -669.534916640     A.U. after   15 cycles
 E2 =    -0.2092296190D+01 EUMP2 =    -0.67162721283022D+03

 The electronic state is 1-A.
 Alpha  occ. eigenvalues --  -20.60802 -20.60797 -15.85857 -11.31237 -11.27811
 Alpha  occ. eigenvalues --  -11.27797 -11.27536 -11.26819 -11.26806 -11.21946
 Alpha  occ. eigenvalues --  -11.21898 -11.21871 -11.21686 -11.21390 -11.21271
 Alpha  occ. eigenvalues --   -1.59877  -1.39430  -1.19416  -1.08813  -1.08784
 Alpha  occ. eigenvalues --   -1.04832  -1.03848  -0.96308  -0.95633  -0.87329
 Alpha  occ. eigenvalues --   -0.86213  -0.82474  -0.79918  -0.78623  -0.77515
 Alpha  occ. eigenvalues --   -0.72075  -0.71200  -0.70508  -0.65440  -0.65064
 Alpha  occ. eigenvalues --   -0.64826  -0.62194  -0.61235  -0.59671  -0.57928
 Alpha  occ. eigenvalues --   -0.55652  -0.55304  -0.53270  -0.52973  -0.52921
 Alpha  occ. eigenvalues --   -0.52611  -0.50230  -0.48836  -0.48829  -0.48228
 Alpha  occ. eigenvalues --   -0.46948  -0.46158  -0.46083  -0.44832  -0.44117
 Alpha  occ. eigenvalues --   -0.37370  -0.36354
 Alpha virt. eigenvalues --    0.05005   0.11188   0.16390   0.20199   0.22753
 Alpha virt. eigenvalues --    0.23977   0.25493   0.26822   0.27645   0.28351
 Alpha virt. eigenvalues --    0.28751   0.30500   0.31463   0.31652   0.32078

 Mulliken charges:
               1
     1  C   -0.170688
     2  C   -0.218389
     3  C   -0.170752
     4  C    0.159092
     5  C   -0.170800
     6  C   -0.219235
     7  H    0.226484
     8  H    0.223801
     9  H    0.275843
    10  H    0.275521
    11  H    0.226575
    12  N    0.488115
    13  O   -0.460506
    14  O   -0.460188
    15  C   -0.298829
    16  C   -0.299736
    17  C   -0.476058
    18  H    0.152728
    19  H    0.151199
    20  H    0.150713
    21  H    0.151161
    22  H    0.155780
    23  H    0.157024
    24  H    0.160802
    25  C   -0.296992
    26  C   -0.300203
    27  C   -0.482657
    28  H    0.140565
    29  H    0.148714
    30  H    0.155945
    31  H    0.153596
    32  H    0.150782
    33  H    0.157273
    34  H    0.163319
 Sum of Mulliken charges =  -0.00000

 Dipole moment (field-independent basis, Debye):
    X=              1.2170    Y=             -4.7835    Z=             -1.5747  Tot=              5.1810
 Quadrupole moment (field-independent basis, Debye-Ang):
   XX=            -98.1347   YY=            -98.3830   ZZ=            -94.4448
   XY=             16.1084   XZ=              3.6034   YZ=             -0.2407

 Normal termination of Gaussian 16 at Thu May  6 14:09:08 2021.
