 Gaussian 16, Revision A.03,
 Gaussian 16:  EM64L-G16RevA.03 25-Dec-2016

 -------------
 #p 6-31g* mp2
 -------------

 ------------------------------------------------------
 Input file generated by CHIRIPA (05-May-2021 14:57:26)
 ------------------------------------------------------
 Symbolic Z-matrix:
 Charge =  0 Multiplicity = 1

                         Standard orientation:
 ---------------------------------------------------------------------
 Center     Atomic      Atomic             Coordinates (Angstroms)
 Number     Number       Type             X           Y           Z
 ---------------------------------------------------------------------
      1          6           0       -4.646944    1.962768    0.489430
      2          6           0       -4.276209    1.673765   -0.827974
      3          6           0       -3.561251    0.509721   -1.125272
      4          6           0       -3.232111   -0.346965   -0.075965
      5          6           0       -3.587122   -0.086766    1.246742
      6          6           0       -4.301826    1.083130    1.520765
      7          1           0       -5.202242    2.869298    0.711338
      8          1           0       -4.542872    2.355079   -1.630936
      9          1           0       -3.261569    0.261507   -2.136211
     10          1           0       -3.306964   -0.785150    2.025966
     11          1           0       -4.588415    1.305008    2.544817
     12          7           0       -2.475352   -1.582384   -0.378380
     13          8           0       -2.197482   -2.320902    0.563966
     14          8           0       -2.174403   -1.788795   -1.552034
     15          6           0        2.864546   -2.323103    0.226542
     16          6           0        1.835904   -1.426769   -0.081681
     17          6           0        2.097127   -0.058041   -0.195234
     18          6           0        3.404427    0.381801    0.006747
     19          6           0        4.450664   -0.486330    0.315011
     20          6           0        4.166348   -1.850856    0.423558
     21          1           0        2.652651   -3.384731    0.312808
     22          1           0        0.823957   -1.790686   -0.235212
     23          1           0        1.319648    0.657850   -0.432814
     24          1           0        5.449402   -0.093669    0.462513
     25          1           0        4.967181   -2.544657    0.663036
     26          7           0        3.693196    1.828588   -0.110816
     27          8           0        4.853388    2.190854    0.071811
     28          8           0        2.753872    2.572917   -0.383362
 ---------------------------------------------------------------------

 SCF Done:  E(RHF) =  -868.340465337     A.U. after   16 cycles
 E2 =    -0.2598667623D+01 EUMP2 =    -0.87093913296063D+03

 The electronic state is 1-A.
 Alpha  occ. eigenvalues --  -20.61741 -20.61734 -20.60343 -20.60336 -15.86748
 Alpha  occ. eigenvalues --  -15.85385 -11.31751 -11.30547 -11.28276 -11.28264
 Alpha  occ. eigenvalues --  -11.27930 -11.27191 -11.27175 -11.27094 -11.27028
 Alpha  occ. eigenvalues --  -11.26683 -11.26079 -11.25835  -1.60822  -1.59421
 Alpha  occ. eigenvalues --   -1.40370  -1.38981  -1.19886  -1.18668  -1.09348
 Alpha  occ. eigenvalues --   -1.08086  -1.05225  -1.04026  -0.96239  -0.94969
 Alpha  occ. eigenvalues --   -0.86640  -0.85418  -0.83078  -0.81804  -0.78172
 Alpha  occ. eigenvalues --   -0.76892  -0.72953  -0.72146  -0.71610  -0.70977
 Alpha  occ. eigenvalues --   -0.70739  -0.69758  -0.65533  -0.65216  -0.64305
 Alpha  occ. eigenvalues --   -0.63973  -0.62574  -0.61364  -0.55731  -0.54494
 Alpha  occ. eigenvalues --   -0.53580  -0.53306  -0.52383  -0.52082  -0.49738
 Alpha  occ. eigenvalues --   -0.49696  -0.48378  -0.48340  -0.45847  -0.44432
 Alpha  occ. eigenvalues --   -0.37841  -0.36808  -0.36621  -0.35627
 Alpha virt. eigenvalues --    0.04272   0.05610   0.10851   0.12034   0.15861
 Alpha virt. eigenvalues --    0.17182   0.21039   0.22266   0.26988   0.27721
 Alpha virt. eigenvalues --    0.28210   0.29072   0.30654   0.31886   0.32106

 Mulliken charges:
               1
     1  C   -0.168681
     2  C   -0.217720
     3  C   -0.170932
     4  C    0.155993
     5  C   -0.170505
     6  C   -0.218100
     7  H    0.228952
     8  H    0.226790
     9  H    0.276502
    10  H    0.275657
    11  H    0.225916
    12  N    0.485348
    13  O   -0.463695
    14  O   -0.461560
    15  C   -0.172451
    16  C   -0.223869
    17  C   -0.173742
    18  C    0.158182
    19  C   -0.173106
    20  C   -0.218649
    21  H    0.228994
    22  H    0.243826
    23  H    0.270909
    24  H    0.272736
    25  H    0.221120
    26  N    0.488268
    27  O   -0.462319
    28  O   -0.463866
 Sum of Mulliken charges =  -0.00000

 Dipole moment (field-independent basis, Debye):
    X=             -4.1210    Y=             -0.7616    Z=              1.4876  Tot=              4.4470
 Quadrupole moment (field-independent basis, Debye-Ang):
   XX=            -90.4959   YY=           -112.2859   ZZ=           -100.7843
   XY=            -33.1491   XZ=             -0.9077   YZ=             -2.1134

 Normal termination of Gaussian 16 at Thu May  6 19:43:04 2021.
