 Gaussian 16, Revision A.03,
 Gaussian 16:  EM64L-G16RevA.03 25-Dec-2016

 -------------
 #p 6-31g* mp2
 -------------

 ------------------------------------------------------
 Input file generated by CHIRIPA (05-May-2021 14:57:25)
 ------------------------------------------------------
 Symbolic Z-matrix:
 Charge =  0 Multiplicity = 1

                         Standard orientation:
 ---------------------------------------------------------------------
 Center     Atomic      Atomic             Coordinates (Angstroms)
 Number     Number       Type             X           Y           Z
 ---------------------------------------------------------------------
      1          6           0        1.941471    2.479028   -0.795856
      2          6           0        1.736419    1.540596   -1.812626
      3          6           0        2.027572    0.189639   -1.601223
      4          6           0        2.524653   -0.189699   -0.355308
      5          6           0        2.739732    0.721443    0.677577
      6          6           0        2.441591    2.067183    0.443815
      7          1           0        1.712582    3.526458   -0.968764
      8          1           0        1.348130    1.857574   -2.776369
      9          1           0        1.878341   -0.557900   -2.370854
     10          1           0        3.127969    0.375258    1.627759
     11          1           0        2.601834    2.793776    1.235287
     12          7           0        2.836583   -1.617135   -0.119669
     13          8           0        3.273522   -1.925830    0.986870
     14          8           0        2.638227   -2.400236   -1.045976
     15          6           0       -0.534600    0.537059    1.900179
     16          6           0       -0.840238   -0.802714    1.639193
     17          6           0       -1.912111   -1.137210    0.806276
     18          6           0       -2.660664   -0.101886    0.248546
     19          6           0       -2.381146    1.242404    0.489473
     20          6           0       -1.304671    1.553550    1.325499
     21          1           0        0.299845    0.787834    2.548416
     22          1           0       -0.243919   -1.594222    2.084125
     23          1           0       -2.170783   -2.166087    0.587377
     24          1           0       -2.993799    2.009423    0.031483
     25          1           0       -1.069620    2.594909    1.526417
     26          7           0       -3.797843   -0.443641   -0.634872
     27          8           0       -4.441943    0.487050   -1.114024
     28          8           0       -4.023532   -1.635728   -0.831414
 ---------------------------------------------------------------------

 SCF Done:  E(RHF) =  -868.336586903     A.U. after   16 cycles
 E2 =    -0.2603909595D+01 EUMP2 =    -0.87094049649763D+03

 The electronic state is 1-A.
 Alpha  occ. eigenvalues --  -20.61518 -20.61479 -20.60827 -20.60807 -15.86545
 Alpha  occ. eigenvalues --  -15.85875 -11.31880 -11.31208 -11.28520 -11.28396
 Alpha  occ. eigenvalues --  -11.28200 -11.27858 -11.27745 -11.27569 -11.27532
 Alpha  occ. eigenvalues --  -11.27399 -11.26879 -11.26700  -1.60576  -1.59899
 Alpha  occ. eigenvalues --   -1.40130  -1.39453  -1.20068  -1.19401  -1.09461
 Alpha  occ. eigenvalues --   -1.08812  -1.05482  -1.04805  -0.96307  -0.95644
 Alpha  occ. eigenvalues --   -0.86883  -0.86205  -0.83147  -0.82472  -0.78195
 Alpha  occ. eigenvalues --   -0.77515  -0.72762  -0.72095  -0.71907  -0.71228
 Alpha  occ. eigenvalues --   -0.71202  -0.70545  -0.65728  -0.65489  -0.65059
 Alpha  occ. eigenvalues --   -0.64812  -0.62830  -0.62148  -0.55976  -0.55407
 Alpha  occ. eigenvalues --   -0.54195  -0.53573  -0.52897  -0.52679  -0.49533
 Alpha  occ. eigenvalues --   -0.49511  -0.48854  -0.48844  -0.45541  -0.44865
 Alpha  occ. eigenvalues --   -0.38210  -0.37848  -0.36511  -0.36243
 Alpha virt. eigenvalues --    0.04178   0.05146   0.10236   0.11487   0.15658
 Alpha virt. eigenvalues --    0.16662   0.19902   0.21891   0.25939   0.26638
 Alpha virt. eigenvalues --    0.27904   0.29117   0.30248   0.30788   0.32145

 Mulliken charges:
               1
     1  C   -0.169181
     2  C   -0.216178
     3  C   -0.168405
     4  C    0.164691
     5  C   -0.178154
     6  C   -0.221165
     7  H    0.226299
     8  H    0.228044
     9  H    0.279357
    10  H    0.271846
    11  H    0.220447
    12  N    0.486583
    13  O   -0.464854
    14  O   -0.455687
    15  C   -0.161674
    16  C   -0.226578
    17  C   -0.170070
    18  C    0.157153
    19  C   -0.172960
    20  C   -0.216104
    21  H    0.219266
    22  H    0.233069
    23  H    0.279062
    24  H    0.272903
    25  H    0.215807
    26  N    0.487850
    27  O   -0.462921
    28  O   -0.458443
 Sum of Mulliken charges =  -0.00000

 Dipole moment (field-independent basis, Debye):
    X=              2.9827    Y=              6.0848    Z=              2.0549  Tot=              7.0812
 Quadrupole moment (field-independent basis, Debye-Ang):
   XX=           -133.1208   YY=           -102.6154   ZZ=            -98.8972
   XY=              8.8364   XZ=             -7.7760   YZ=             -1.5011

 Normal termination of Gaussian 16 at Wed May  5 16:26:46 2021.
