 Gaussian 16, Revision A.03,
 Gaussian 16:  EM64L-G16RevA.03 25-Dec-2016

 -------------
 #p 6-31g* mp2
 -------------

 ------------------------------------------------------
 Input file generated by CHIRIPA (05-May-2021 14:57:22)
 ------------------------------------------------------
 Symbolic Z-matrix:
 Charge =  0 Multiplicity = 1

                         Standard orientation:
 ---------------------------------------------------------------------
 Center     Atomic      Atomic             Coordinates (Angstroms)
 Number     Number       Type             X           Y           Z
 ---------------------------------------------------------------------
      1          6           0       -3.682462    2.588858    0.478474
      2          6           0       -2.517399    1.861049    0.214952
      3          6           0       -2.585680    0.499630   -0.095572
      4          6           0       -3.841245   -0.104828   -0.134004
      5          6           0       -5.020029    0.593262    0.123733
      6          6           0       -4.927862    1.953762    0.432105
      7          1           0       -3.620142    3.646084    0.718861
      8          1           0       -1.548841    2.351655    0.250245
      9          1           0       -1.699614   -0.087679   -0.303833
     10          1           0       -5.971169    0.076617    0.080981
     11          1           0       -5.834330    2.516487    0.636314
     12          7           0       -3.926174   -1.545615   -0.461603
     13          8           0       -5.044457   -2.054856   -0.489070
     14          8           0       -2.872850   -2.138381   -0.684705
     15          6           0        1.650411   -1.047178    0.969343
     16          6           0        2.813549   -1.133728    1.741443
     17          6           0        4.025243   -0.630363    1.258773
     18          6           0        4.037696   -0.044215   -0.005966
     19          6           0        2.895762    0.056944   -0.799089
     20          6           0        1.695150   -0.453165   -0.296227
     21          1           0        0.713443   -1.440823    1.352135
     22          1           0        2.781775   -1.594522    2.724654
     23          1           0        4.940645   -0.684197    1.835454
     24          1           0        2.958741    0.521822   -1.775480
     25          1           0        0.793407   -0.384568   -0.898057
     26          7           0        5.314596    0.492244   -0.527635
     27          8           0        5.299136    1.003966   -1.645015
     28          8           0        6.306711    0.390841    0.190739
 ---------------------------------------------------------------------

 SCF Done:  E(RHF) =  -868.337716442     A.U. after   16 cycles
 E2 =    -0.2599508787D+01 EUMP2 =    -0.87093722522894D+03

 The electronic state is 1-A.
 Alpha  occ. eigenvalues --  -20.61595 -20.61555 -20.60920 -20.60914 -15.86628
 Alpha  occ. eigenvalues --  -15.85976 -11.31983 -11.31369 -11.28641 -11.28469
 Alpha  occ. eigenvalues --  -11.28194 -11.27983 -11.27939 -11.27675 -11.27541
 Alpha  occ. eigenvalues --  -11.27473 -11.27027 -11.26922  -1.60648  -1.59995
 Alpha  occ. eigenvalues --   -1.40207  -1.39548  -1.20129  -1.19554  -1.09509
 Alpha  occ. eigenvalues --   -1.08937  -1.05536  -1.04970  -0.96361  -0.95762
 Alpha  occ. eigenvalues --   -0.86930  -0.86366  -0.83197  -0.82598  -0.78273
 Alpha  occ. eigenvalues --   -0.77647  -0.72845  -0.72193  -0.71969  -0.71320
 Alpha  occ. eigenvalues --   -0.71241  -0.70626  -0.65779  -0.65558  -0.65204
 Alpha  occ. eigenvalues --   -0.64977  -0.62922  -0.62282  -0.55993  -0.55430
 Alpha  occ. eigenvalues --   -0.53848  -0.53644  -0.53288  -0.53039  -0.49617
 Alpha  occ. eigenvalues --   -0.49586  -0.48954  -0.48945  -0.45615  -0.44947
 Alpha  occ. eigenvalues --   -0.38072  -0.37526  -0.37134  -0.36581
 Alpha virt. eigenvalues --    0.04270   0.04904   0.10508   0.11021   0.15803
 Alpha virt. eigenvalues --    0.16384   0.18394   0.21891   0.24785   0.27134
 Alpha virt. eigenvalues --    0.27843   0.29056   0.30571   0.30858   0.31547

 Mulliken charges:
               1
     1  C   -0.170329
     2  C   -0.219782
     3  C   -0.178437
     4  C    0.160356
     5  C   -0.169762
     6  C   -0.217995
     7  H    0.228975
     8  H    0.225750
     9  H    0.270496
    10  H    0.277733
    11  H    0.226514
    12  N    0.487578
    13  O   -0.455940
    14  O   -0.465598
    15  C   -0.172154
    16  C   -0.218906
    17  C   -0.170472
    18  C    0.158473
    19  C   -0.170906
    20  C   -0.225696
    21  H    0.231191
    22  H    0.225254
    23  H    0.276423
    24  H    0.276084
    25  H    0.223346
    26  N    0.487967
    27  O   -0.460410
    28  O   -0.459752
 Sum of Mulliken charges =  -0.00000

 Dipole moment (field-independent basis, Debye):
    X=             -4.3688    Y=              3.2471    Z=              3.0828  Tot=              6.2557
 Quadrupole moment (field-independent basis, Debye-Ang):
   XX=           -136.4587   YY=           -106.2699   ZZ=           -102.5561
   XY=            -28.6368   XZ=              4.7021   YZ=             -2.2528

 Normal termination of Gaussian 16 at Fri May  7 04:52:42 2021.
