 Gaussian 16, Revision A.03,
 Gaussian 16:  EM64L-G16RevA.03 25-Dec-2016

 -------------
 #p 6-31g* mp2
 -------------

 ------------------------------------------------------
 Input file generated by CHIRIPA (05-May-2021 14:53:13)
 ------------------------------------------------------
 Symbolic Z-matrix:
 Charge =  0 Multiplicity = 1

                         Standard orientation:
 ---------------------------------------------------------------------
 Center     Atomic      Atomic             Coordinates (Angstroms)
 Number     Number       Type             X           Y           Z
 ---------------------------------------------------------------------
      1          6           0        2.919402    0.735259   -0.602436
      2          6           0        2.538545    2.214536   -0.534083
      3          6           0        1.426288    2.584575   -1.515790
      4          1           0        3.235666    0.491525   -1.625919
      5          1           0        2.029288    0.124751   -0.396588
      6          1           0        3.429419    2.822086   -0.738635
      7          1           0        2.223334    2.454821    0.489402
      8          1           0        0.521556    2.003534   -1.309755
      9          1           0        1.734493    2.372886   -2.544770
     10          1           0        1.169762    3.646528   -1.450136
     11          6           0        4.030051    0.349935    0.373121
     12          6           0        4.410908   -1.129342    0.304768
     13          6           0        5.523165   -1.499382    1.286475
     14          1           0        4.920165    0.960442    0.167273
     15          1           0        3.713787    0.593669    1.396604
     16          1           0        4.726119   -1.369628   -0.718717
     17          1           0        3.520034   -1.736893    0.509320
     18          1           0        5.214960   -1.287692    2.315454
     19          1           0        6.427897   -0.918341    1.080440
     20          1           0        5.779691   -2.561335    1.220821
     21          6           0       -4.399289    1.140183    1.129519
     22          6           0       -3.053322    1.212198    1.503293
     23          6           0       -2.111171    0.350574    0.933639
     24          6           0       -2.551764   -0.575114   -0.010962
     25          6           0       -3.885738   -0.671360   -0.404076
     26          6           0       -4.810476    0.200291    0.178704
     27          1           0       -5.124411    1.813407    1.577138
     28          1           0       -2.731129    1.941135    2.241457
     29          1           0       -1.062952    0.384711    1.204725
     30          1           0       -4.176786   -1.408477   -1.142565
     31          1           0       -5.855121    0.142097   -0.113490
     32          7           0       -1.563567   -1.492584   -0.620976
     33          8           0       -1.977167   -2.299271   -1.450933
     34          8           0       -0.394131   -1.387636   -0.257599
 ---------------------------------------------------------------------

 SCF Done:  E(RHF) =  -669.536302348     A.U. after   15 cycles
 E2 =    -0.2091584174D+01 EUMP2 =    -0.67162788652104D+03

 The electronic state is 1-A.
 Alpha  occ. eigenvalues --  -20.60990 -20.60975 -15.86018 -11.31325 -11.27888
 Alpha  occ. eigenvalues --  -11.27874 -11.27610 -11.26887 -11.26877 -11.21129
 Alpha  occ. eigenvalues --  -11.20779 -11.20699 -11.20669 -11.20446 -11.20424
 Alpha  occ. eigenvalues --   -1.60042  -1.39600  -1.19487  -1.08893  -1.07713
 Alpha  occ. eigenvalues --   -1.04881  -1.02920  -0.95739  -0.95366  -0.86392
 Alpha  occ. eigenvalues --   -0.86282  -0.82576  -0.78968  -0.77667  -0.77446
 Alpha  occ. eigenvalues --   -0.72245  -0.71352  -0.70595  -0.65148  -0.64885
 Alpha  occ. eigenvalues --   -0.64340  -0.62231  -0.60329  -0.58739  -0.56966
 Alpha  occ. eigenvalues --   -0.55384  -0.54658  -0.53210  -0.52972  -0.52108
 Alpha  occ. eigenvalues --   -0.51789  -0.49329  -0.49005  -0.48986  -0.47292
 Alpha  occ. eigenvalues --   -0.46010  -0.45208  -0.45054  -0.44663  -0.43130
 Alpha  occ. eigenvalues --   -0.37461  -0.36478
 Alpha virt. eigenvalues --    0.04868   0.11124   0.16358   0.20863   0.23150
 Alpha virt. eigenvalues --    0.24627   0.26705   0.27466   0.27942   0.28457
 Alpha virt. eigenvalues --    0.29012   0.30873   0.31609   0.32188   0.32464

 Mulliken charges:
               1
     1  C   -0.311596
     2  C   -0.298130
     3  C   -0.475112
     4  H    0.149154
     5  H    0.176141
     6  H    0.149846
     7  H    0.143876
     8  H    0.153858
     9  H    0.157341
    10  H    0.155115
    11  C   -0.296701
    12  C   -0.301234
    13  C   -0.475276
    14  H    0.145530
    15  H    0.144473
    16  H    0.151872
    17  H    0.161830
    18  H    0.152585
    19  H    0.152510
    20  H    0.159715
    21  C   -0.170551
    22  C   -0.218268
    23  C   -0.171171
    24  C    0.158021
    25  C   -0.170770
    26  C   -0.218353
    27  H    0.226194
    28  H    0.224207
    29  H    0.275692
    30  H    0.275950
    31  H    0.224000
    32  N    0.493155
    33  O   -0.458184
    34  O   -0.465718
 Sum of Mulliken charges =  -0.00000

 Dipole moment (field-independent basis, Debye):
    X=             -3.7218    Y=              3.0366    Z=              2.0874  Tot=              5.2373
 Quadrupole moment (field-independent basis, Debye-Ang):
   XX=            -75.3416   YY=            -98.7962   ZZ=            -93.8537
   XY=             -4.5599   XZ=             -4.5799   YZ=              0.4031

 Normal termination of Gaussian 16 at Wed May  5 18:33:06 2021.
