 Gaussian 16, Revision A.03,
 Gaussian 16:  EM64L-G16RevA.03 25-Dec-2016

 -------------
 #p 6-31g* mp2
 -------------

 ------------------------------------------------------
 Input file generated by CHIRIPA (05-May-2021 14:57:26)
 ------------------------------------------------------
 Symbolic Z-matrix:
 Charge =  0 Multiplicity = 1

                         Standard orientation:
 ---------------------------------------------------------------------
 Center     Atomic      Atomic             Coordinates (Angstroms)
 Number     Number       Type             X           Y           Z
 ---------------------------------------------------------------------
      1          6           0        5.780998    1.178151    0.530293
      2          6           0        4.709512    1.970337    0.104994
      3          6           0        3.500101    1.382677   -0.277795
      4          6           0        3.396447   -0.006393   -0.222740
      5          6           0        4.445858   -0.822669    0.196449
      6          6           0        5.645990   -0.213370    0.574585
      7          1           0        6.716894    1.643065    0.825846
      8          1           0        4.811507    3.051257    0.069586
      9          1           0        2.654588    1.972135   -0.611060
     10          1           0        4.314110   -1.897589    0.221097
     11          1           0        6.476443   -0.831089    0.904458
     12          7           0        2.121010   -0.639976   -0.625519
     13          8           0        2.055081   -1.865939   -0.568026
     14          8           0        1.211401    0.101381   -0.991085
     15          6           0       -5.651763    1.331911   -0.216098
     16          6           0       -5.210356    1.066841    1.084447
     17          6           0       -4.078442    0.275837    1.302683
     18          6           0       -3.408941   -0.236271    0.192366
     19          6           0       -3.823972    0.009926   -1.115468
     20          6           0       -4.958385    0.803539   -1.309977
     21          1           0       -6.532032    1.947396   -0.376414
     22          1           0       -5.746871    1.475858    1.935860
     23          1           0       -3.714877    0.054835    2.298875
     24          1           0       -3.268359   -0.411761   -1.944259
     25          1           0       -5.298898    1.007740   -2.321114
     26          7           0       -2.209311   -1.075053    0.410842
     27          8           0       -1.637032   -1.514436   -0.584183
     28          8           0       -1.864035   -1.277225    1.572973
 ---------------------------------------------------------------------

 SCF Done:  E(RHF) =  -868.334935977     A.U. after   16 cycles
 E2 =    -0.2600777934D+01 EUMP2 =    -0.87093571391095D+03

 The electronic state is 1-A.
 Alpha  occ. eigenvalues --  -20.59627 -20.59571 -20.59440 -20.59251 -15.84690
 Alpha  occ. eigenvalues --  -15.84403 -11.30437 -11.30214 -11.27073 -11.27033
 Alpha  occ. eigenvalues --  -11.26874 -11.26868 -11.26803 -11.26689 -11.26172
 Alpha  occ. eigenvalues --  -11.26143 -11.25983 -11.25948  -1.58652  -1.58404
 Alpha  occ. eigenvalues --   -1.38212  -1.37949  -1.18644  -1.18434  -1.07965
 Alpha  occ. eigenvalues --   -1.07750  -1.04109  -1.03905  -0.94739  -0.94504
 Alpha  occ. eigenvalues --   -0.85490  -0.85283  -0.81580  -0.81342  -0.76555
 Alpha  occ. eigenvalues --   -0.76311  -0.70921  -0.70613  -0.70034  -0.69759
 Alpha  occ. eigenvalues --   -0.69696  -0.69549  -0.64294  -0.64124  -0.64073
 Alpha  occ. eigenvalues --   -0.63921  -0.61457  -0.61248  -0.54602  -0.54408
 Alpha  occ. eigenvalues --   -0.52414  -0.52217  -0.52206  -0.52008  -0.47811
 Alpha  occ. eigenvalues --   -0.47604  -0.47381  -0.47211  -0.43578  -0.43170
 Alpha  occ. eigenvalues --   -0.36647  -0.36443  -0.35730  -0.35530
 Alpha virt. eigenvalues --    0.05989   0.06255   0.11918   0.12119   0.17416
 Alpha virt. eigenvalues --    0.17652   0.21987   0.22172   0.27866   0.28050
 Alpha virt. eigenvalues --    0.28911   0.29115   0.31501   0.31682   0.33165

 Mulliken charges:
               1
     1  C   -0.172141
     2  C   -0.218462
     3  C   -0.171577
     4  C    0.160363
     5  C   -0.170897
     6  C   -0.218474
     7  H    0.222749
     8  H    0.220269
     9  H    0.273019
    10  H    0.276343
    11  H    0.221473
    12  N    0.488754
    13  O   -0.450665
    14  O   -0.460474
    15  C   -0.172541
    16  C   -0.218834
    17  C   -0.172332
    18  C    0.160476
    19  C   -0.170014
    20  C   -0.219018
    21  H    0.221736
    22  H    0.219599
    23  H    0.273290
    24  H    0.278600
    25  H    0.220649
    26  N    0.487492
    27  O   -0.440045
    28  O   -0.469338
 Sum of Mulliken charges =  -0.00000

 Dipole moment (field-independent basis, Debye):
    X=              0.3772    Y=              4.8928    Z=              0.4674  Tot=              4.9296
 Quadrupole moment (field-independent basis, Debye-Ang):
   XX=            -48.7779   YY=           -103.0737   ZZ=           -101.7593
   XY=             -3.7711   XZ=              5.9354   YZ=              0.0724

 Normal termination of Gaussian 16 at Thu May  6 06:47:52 2021.
