 Gaussian 16, Revision A.03,
 Gaussian 16:  EM64L-G16RevA.03 25-Dec-2016

 -------------
 #p 6-31g* mp2
 -------------

 ------------------------------------------------------
 Input file generated by CHIRIPA (05-May-2021 14:57:25)
 ------------------------------------------------------
 Symbolic Z-matrix:
 Charge =  0 Multiplicity = 1

                         Standard orientation:
 ---------------------------------------------------------------------
 Center     Atomic      Atomic             Coordinates (Angstroms)
 Number     Number       Type             X           Y           Z
 ---------------------------------------------------------------------
      1          6           0       -5.507796   -0.428314   -0.927499
      2          6           0       -4.650775   -1.521444   -0.762876
      3          6           0       -3.425501   -1.370534   -0.106767
      4          6           0       -3.087465   -0.106588    0.374337
      5          6           0       -3.919795    1.001786    0.225931
      6          6           0       -5.140219    0.827598   -0.433441
      7          1           0       -6.457734   -0.554585   -1.438448
      8          1           0       -4.933633   -2.497972   -1.145537
      9          1           0       -2.743016   -2.199804    0.034454
     10          1           0       -3.610354    1.962909    0.618241
     11          1           0       -5.803800    1.678320   -0.559846
     12          7           0       -1.792889    0.065495    1.070658
     13          8           0       -1.518274    1.189441    1.485348
     14          8           0       -1.077329   -0.926831    1.188558
     15          6           0        4.804903   -1.860326    0.090504
     16          6           0        5.329994   -0.566074    0.166077
     17          6           0        4.505946    0.546818   -0.026186
     18          6           0        3.155418    0.327845   -0.293419
     19          6           0        2.602508   -0.949231   -0.375005
     20          6           0        3.445233   -2.047444   -0.179320
     21          1           0        5.452297   -2.719145    0.241187
     22          1           0        6.385549   -0.417745    0.375479
     23          1           0        4.886205    1.559743    0.026770
     24          1           0        1.546240   -1.065378   -0.585305
     25          1           0        3.034689   -3.051428   -0.238593
     26          7           0        2.273149    1.498243   -0.498771
     27          8           0        1.086742    1.278553   -0.732890
     28          8           0        2.784739    2.613132   -0.421719
 ---------------------------------------------------------------------

 SCF Done:  E(RHF) =  -868.338308729     A.U. after   16 cycles
 E2 =    -0.2600156155D+01 EUMP2 =    -0.87093846488395D+03

 The electronic state is 1-A.
 Alpha  occ. eigenvalues --  -20.60305 -20.60153 -20.59736 -20.59674 -15.85271
 Alpha  occ. eigenvalues --  -15.84763 -11.30745 -11.30161 -11.27383 -11.27282
 Alpha  occ. eigenvalues --  -11.27112 -11.26822 -11.26674 -11.26602 -11.26415
 Alpha  occ. eigenvalues --  -11.26353 -11.25862 -11.25790  -1.59256  -1.58762
 Alpha  occ. eigenvalues --   -1.38825  -1.38319  -1.18928  -1.18368  -1.08304
 Alpha  occ. eigenvalues --   -1.07771  -1.04359  -1.03784  -0.95127  -0.94590
 Alpha  occ. eigenvalues --   -0.85753  -0.85186  -0.81971  -0.81435  -0.76993
 Alpha  occ. eigenvalues --   -0.76454  -0.71522  -0.71101  -0.70475  -0.70058
 Alpha  occ. eigenvalues --   -0.70023  -0.69503  -0.64594  -0.64376  -0.64036
 Alpha  occ. eigenvalues --   -0.63812  -0.61712  -0.61122  -0.54868  -0.54334
 Alpha  occ. eigenvalues --   -0.52668  -0.52463  -0.52111  -0.51891  -0.48290
 Alpha  occ. eigenvalues --   -0.48244  -0.47758  -0.47728  -0.44218  -0.43665
 Alpha  occ. eigenvalues --   -0.36910  -0.36382  -0.35964  -0.35379
 Alpha virt. eigenvalues --    0.05523   0.06134   0.11690   0.12271   0.16992
 Alpha virt. eigenvalues --    0.17552   0.21740   0.22325   0.27641   0.28154
 Alpha virt. eigenvalues --    0.28621   0.29283   0.31212   0.31852   0.32840

 Mulliken charges:
               1
     1  C   -0.171230
     2  C   -0.218448
     3  C   -0.171465
     4  C    0.161812
     5  C   -0.168467
     6  C   -0.218548
     7  H    0.224000
     8  H    0.220721
     9  H    0.270348
    10  H    0.278520
    11  H    0.223101
    12  N    0.494025
    13  O   -0.447825
    14  O   -0.474135
    15  C   -0.171112
    16  C   -0.219535
    17  C   -0.171172
    18  C    0.157647
    19  C   -0.164255
    20  C   -0.219921
    21  H    0.221710
    22  H    0.219656
    23  H    0.273081
    24  H    0.282976
    25  H    0.220658
    26  N    0.490160
    27  O   -0.457189
    28  O   -0.465113
 Sum of Mulliken charges =  -0.00000

 Dipole moment (field-independent basis, Debye):
    X=             -1.6807    Y=             -4.4960    Z=             -1.6570  Tot=              5.0778
 Quadrupole moment (field-independent basis, Debye-Ang):
   XX=            -56.3609   YY=           -101.5493   ZZ=           -108.6987
   XY=             -8.6128   XZ=              7.9907   YZ=              2.9830

 Normal termination of Gaussian 16 at Fri May  7 11:09:04 2021.
