 Gaussian 16, Revision A.03,
 Gaussian 16:  EM64L-G16RevA.03 25-Dec-2016

 -------------
 #p 6-31g* mp2
 -------------

 ------------------------------------------------------
 Input file generated by CHIRIPA (05-May-2021 14:57:24)
 ------------------------------------------------------
 Symbolic Z-matrix:
 Charge =  0 Multiplicity = 1

                         Standard orientation:
 ---------------------------------------------------------------------
 Center     Atomic      Atomic             Coordinates (Angstroms)
 Number     Number       Type             X           Y           Z
 ---------------------------------------------------------------------
      1          6           0       -2.101123   -0.837544    1.856126
      2          6           0       -1.655662    0.038115    0.860483
      3          6           0       -2.524855    0.470623   -0.145494
      4          6           0       -3.838837    0.005509   -0.125262
      5          6           0       -4.312537   -0.867269    0.853082
      6          6           0       -3.425804   -1.286649    1.849260
      7          1           0       -1.419100   -1.168428    2.633787
      8          1           0       -0.627437    0.388530    0.863311
      9          1           0       -2.206355    1.148232   -0.928323
     10          1           0       -5.343204   -1.199369    0.823879
     11          1           0       -3.774518   -1.966729    2.621229
     12          7           0       -4.768297    0.456438   -1.185058
     13          8           0       -5.921121    0.032141   -1.144959
     14          8           0       -4.326386    1.225633   -2.035757
     15          6           0        4.339999   -2.111966   -1.136590
     16          6           0        3.241187   -2.062582   -0.272475
     17          6           0        2.869533   -0.859753    0.335492
     18          6           0        3.622391    0.279638    0.055700
     19          6           0        4.722253    0.262554   -0.800631
     20          6           0        5.075727   -0.951287   -1.397451
     21          1           0        4.621646   -3.050630   -1.604544
     22          1           0        2.667976   -2.962406   -0.068048
     23          1           0        2.023360   -0.793180    1.008527
     24          1           0        5.274329    1.176133   -0.985030
     25          1           0        5.929549   -0.986669   -2.068108
     26          7           0        3.238561    1.558849    0.693427
     27          8           0        3.918147    2.548647    0.430564
     28          8           0        2.265395    1.547474    1.444064
 ---------------------------------------------------------------------

 SCF Done:  E(RHF) =  -868.338898003     A.U. after   16 cycles
 E2 =    -0.2599217645D+01 EUMP2 =    -0.87093811564868D+03

 The electronic state is 1-A.
 Alpha  occ. eigenvalues --  -20.61711 -20.61643 -20.60578 -20.60571 -15.86706
 Alpha  occ. eigenvalues --  -15.85627 -11.31940 -11.30965 -11.28562 -11.28430
 Alpha  occ. eigenvalues --  -11.28149 -11.27541 -11.27478 -11.27472 -11.27412
 Alpha  occ. eigenvalues --  -11.27269 -11.26576 -11.26423  -1.60731  -1.59653
 Alpha  occ. eigenvalues --   -1.40296  -1.39207  -1.20085  -1.19126  -1.09493
 Alpha  occ. eigenvalues --   -1.08534  -1.05471  -1.04509  -0.96358  -0.95375
 Alpha  occ. eigenvalues --   -0.86875  -0.85912  -0.83199  -0.82194  -0.78283
 Alpha  occ. eigenvalues --   -0.77239  -0.72927  -0.72039  -0.71846  -0.71189
 Alpha  occ. eigenvalues --   -0.70975  -0.70252  -0.65740  -0.65473  -0.64774
 Alpha  occ. eigenvalues --   -0.64487  -0.62837  -0.61833  -0.55949  -0.55039
 Alpha  occ. eigenvalues --   -0.53795  -0.53566  -0.52861  -0.52576  -0.49697
 Alpha  occ. eigenvalues --   -0.49655  -0.48603  -0.48600  -0.45719  -0.44618
 Alpha  occ. eigenvalues --   -0.38033  -0.37133  -0.37060  -0.36112
 Alpha virt. eigenvalues --    0.04219   0.05269   0.10557   0.11510   0.15758
 Alpha virt. eigenvalues --    0.16769   0.19706   0.21832   0.25432   0.27088
 Alpha virt. eigenvalues --    0.28268   0.28820   0.30426   0.31106   0.31932

 Mulliken charges:
               1
     1  C   -0.173456
     2  C   -0.228857
     3  C   -0.171864
     4  C    0.158708
     5  C   -0.172065
     6  C   -0.218489
     7  H    0.223418
     8  H    0.239455
     9  H    0.277211
    10  H    0.274579
    11  H    0.221895
    12  N    0.487964
    13  O   -0.461498
    14  O   -0.460015
    15  C   -0.169920
    16  C   -0.217552
    17  C   -0.172107
    18  C    0.158892
    19  C   -0.170057
    20  C   -0.217823
    21  H    0.228575
    22  H    0.224703
    23  H    0.267764
    24  H    0.277734
    25  H    0.226541
    26  N    0.489841
    27  O   -0.453493
    28  O   -0.470083
 Sum of Mulliken charges =  -0.00000

 Dipole moment (field-independent basis, Debye):
    X=              4.9952    Y=             -6.0519    Z=              1.3521  Tot=              7.9628
 Quadrupole moment (field-independent basis, Debye-Ang):
   XX=           -114.2649   YY=           -105.5858   ZZ=           -105.3657
   XY=             -5.8496   XZ=            -27.1872   YZ=             -3.0248

 Normal termination of Gaussian 16 at Thu May  6 12:59:29 2021.
