 Gaussian 16, Revision A.03,
 Gaussian 16:  EM64L-G16RevA.03 25-Dec-2016

 -------------
 #p 6-31g* mp2
 -------------

 ------------------------------------------------------
 Input file generated by CHIRIPA (05-May-2021 14:51:14)
 ------------------------------------------------------
 Symbolic Z-matrix:
 Charge =  0 Multiplicity = 1

                         Standard orientation:
 ---------------------------------------------------------------------
 Center     Atomic      Atomic             Coordinates (Angstroms)
 Number     Number       Type             X           Y           Z
 ---------------------------------------------------------------------
      1          6           0        2.949214    0.892787   -0.180489
      2          6           0        4.125808    1.715085    0.346235
      3          6           0        3.777675    3.191983    0.534305
      4          1           0        2.613003    1.316381   -1.136771
      5          1           0        2.104863    0.985550    0.516549
      6          1           0        4.968150    1.619684   -0.350883
      7          1           0        4.459380    1.289368    1.301281
      8          1           0        2.953693    3.305934    1.246112
      9          1           0        3.465354    3.638126   -0.415438
     10          1           0        4.633003    3.761192    0.911498
     11          6           0        3.281689   -0.585678   -0.373693
     12          6           0        2.105095   -1.407976   -0.900417
     13          6           0        2.453229   -2.884874   -1.088487
     14          1           0        4.126040   -0.678442   -1.070731
     15          1           0        3.617900   -1.009272    0.582589
     16          1           0        1.771524   -0.982260   -1.855462
     17          1           0        1.262753   -1.312575   -0.203299
     18          1           0        2.765549   -3.331018   -0.138744
     19          1           0        3.277211   -2.998826   -1.800294
     20          1           0        1.597900   -3.454083   -1.465680
     21          6           0       -2.703587   -0.402210    0.870361
     22          6           0       -1.780787   -1.570233    0.520863
     23          6           0       -0.963394   -2.056535    1.718016
     24          1           0       -2.101241    0.426983    1.266041
     25          1           0       -3.382028   -0.709091    1.678407
     26          1           0       -1.105214   -1.261686   -0.287232
     27          1           0       -2.385379   -2.396672    0.125789
     28          1           0       -1.623491   -2.390698    2.524991
     29          1           0       -0.336053   -1.249264    2.109623
     30          1           0       -0.310668   -2.891819    1.445786
     31          6           0       -3.527316    0.095102   -0.316179
     32          6           0       -4.450117    1.263124    0.033319
     33          6           0       -5.267509    1.749427   -1.163834
     34          1           0       -2.848876    0.401983   -1.124225
     35          1           0       -4.129662   -0.734091   -0.711859
     36          1           0       -3.845524    2.089563    0.428393
     37          1           0       -5.125690    0.954578    0.841414
     38          1           0       -5.894850    0.942156   -1.555441
     39          1           0       -4.607413    2.083590   -1.970809
     40          1           0       -5.920235    2.584710   -0.891604
 ---------------------------------------------------------------------

 SCF Done:  E(RHF) =  -470.732952613     A.U. after   11 cycles
 E2 =    -0.1583468764D+01 EUMP2 =    -0.47231642137739D+03

 The electronic state is 1-A.
 Alpha  occ. eigenvalues --  -11.21621 -11.21599 -11.21583 -11.21544 -11.21421
 Alpha  occ. eigenvalues --  -11.21406 -11.21352 -11.21346 -11.21119 -11.21094
 Alpha  occ. eigenvalues --  -11.21071 -11.21068  -1.08464  -1.08411  -1.03597
 Alpha  occ. eigenvalues --   -1.03485  -0.96025  -0.95962  -0.87012  -0.87003
 Alpha  occ. eigenvalues --   -0.79665  -0.79549  -0.78313  -0.78191  -0.65215
 Alpha  occ. eigenvalues --   -0.64951  -0.61193  -0.60740  -0.59458  -0.59245
 Alpha  occ. eigenvalues --   -0.57704  -0.57484  -0.55349  -0.55215  -0.52699
 Alpha  occ. eigenvalues --   -0.52663  -0.52426  -0.52403  -0.49956  -0.49914
 Alpha  occ. eigenvalues --   -0.48038  -0.47835  -0.46754  -0.46523  -0.45930
 Alpha  occ. eigenvalues --   -0.45767  -0.45738  -0.45468  -0.43799  -0.43781
 Alpha virt. eigenvalues --    0.20749   0.23228   0.23505   0.24805   0.26207
 Alpha virt. eigenvalues --    0.26534   0.26960   0.27722   0.27894   0.29250
 Alpha virt. eigenvalues --    0.30848   0.31486   0.31597   0.31886   0.32431

 Mulliken charges:
               1
     1  C   -0.298328
     2  C   -0.299640
     3  C   -0.475708
     4  H    0.149466
     5  H    0.148471
     6  H    0.152128
     7  H    0.152111
     8  H    0.154983
     9  H    0.155121
    10  H    0.160405
    11  C   -0.297375
    12  C   -0.310438
    13  C   -0.475842
    14  H    0.149376
    15  H    0.149708
    16  H    0.150758
    17  H    0.165265
    18  H    0.155041
    19  H    0.155233
    20  H    0.160315
    21  C   -0.297618
    22  C   -0.305861
    23  C   -0.478687
    24  H    0.149227
    25  H    0.149457
    26  H    0.157717
    27  H    0.152090
    28  H    0.156449
    29  H    0.153974
    30  H    0.161965
    31  C   -0.298432
    32  C   -0.299670
    33  C   -0.475717
    34  H    0.149928
    35  H    0.149623
    36  H    0.151997
    37  H    0.151877
    38  H    0.155149
    39  H    0.155228
    40  H    0.160253
 Sum of Mulliken charges =  -0.00000

 Dipole moment (field-independent basis, Debye):
    X=             -0.0068    Y=             -0.0111    Z=             -0.0001  Tot=              0.0130
 Quadrupole moment (field-independent basis, Debye-Ang):
   XX=            -84.6299   YY=            -85.7238   ZZ=            -84.4582
   XY=              0.9873   XZ=             -0.9181   YZ=             -0.2184

 Normal termination of Gaussian 16 at Wed May  5 16:55:02 2021.
