 Gaussian 16, Revision A.03,
 Gaussian 16:  EM64L-G16RevA.03 25-Dec-2016

 -------------
 #p 6-31g* mp2
 -------------

 ------------------------------------------------------
 Input file generated by CHIRIPA (05-May-2021 14:55:22)
 ------------------------------------------------------
 Symbolic Z-matrix:
 Charge =  0 Multiplicity = 1

                         Standard orientation:
 ---------------------------------------------------------------------
 Center     Atomic      Atomic             Coordinates (Angstroms)
 Number     Number       Type             X           Y           Z
 ---------------------------------------------------------------------
      1          6           0        0.033571   -2.262192    1.182870
      2          6           0       -1.012786   -1.633536    1.865841
      3          6           0       -1.931111   -0.834840    1.177865
      4          6           0       -1.772469   -0.685876   -0.199063
      5          6           0       -0.740504   -1.299149   -0.907750
      6          6           0        0.166138   -2.093290   -0.199309
      7          1           0        0.742410   -2.880869    1.725255
      8          1           0       -1.118197   -1.762922    2.939244
      9          1           0       -2.750472   -0.336622    1.681694
     10          1           0       -0.661313   -1.151345   -1.977937
     11          1           0        0.977777   -2.580303   -0.732325
     12          7           0       -2.738474    0.157257   -0.938225
     13          8           0       -2.576855    0.272600   -2.151161
     14          8           0       -3.638958    0.686796   -0.290649
     15          6           0        2.514800    0.777587   -0.452213
     16          6           0        3.643205   -0.108851    0.075909
     17          6           0        4.534523   -0.657878   -1.038503
     18          1           0        1.904905    0.200606   -1.160780
     19          1           0        2.948761    1.611922   -1.020508
     20          1           0        3.207300   -0.940500    0.644208
     21          1           0        4.250371    0.470249    0.783446
     22          1           0        4.996409    0.160194   -1.600661
     23          1           0        3.947411   -1.258572   -1.740691
     24          1           0        5.334477   -1.288806   -0.638674
     25          6           0        1.615143    1.333989    0.649949
     26          6           0        0.486738    2.220427    0.121827
     27          6           0       -0.404580    2.769454    1.236239
     28          1           0        1.181183    0.499654    1.218245
     29          1           0        2.225038    1.910970    1.358516
     30          1           0       -0.120428    1.641327   -0.585710
     31          1           0        0.922644    3.052076   -0.446472
     32          1           0        0.182532    3.370147    1.938427
     33          1           0       -0.866466    1.951383    1.798397
     34          1           0       -1.204533    3.400382    0.836410
 ---------------------------------------------------------------------

 SCF Done:  E(RHF) =  -669.532994902     A.U. after   15 cycles
 E2 =    -0.2099640382D+01 EUMP2 =    -0.67163263528348D+03

 The electronic state is 1-A.
 Alpha  occ. eigenvalues --  -20.60946 -20.60941 -15.85975 -11.31368 -11.27944
 Alpha  occ. eigenvalues --  -11.27933 -11.27678 -11.26975 -11.26961 -11.22050
 Alpha  occ. eigenvalues --  -11.21605 -11.21549 -11.21416 -11.21277 -11.20839
 Alpha  occ. eigenvalues --   -1.60008  -1.39560  -1.19590  -1.08967  -1.08554
 Alpha  occ. eigenvalues --   -1.04987  -1.03675  -0.96111  -0.95784  -0.87144
 Alpha  occ. eigenvalues --   -0.86361  -0.82615  -0.79764  -0.78351  -0.77647
 Alpha  occ. eigenvalues --   -0.72200  -0.71370  -0.70667  -0.65344  -0.65219
 Alpha  occ. eigenvalues --   -0.64941  -0.62333  -0.61121  -0.59497  -0.57701
 Alpha  occ. eigenvalues --   -0.55527  -0.55415  -0.53193  -0.53055  -0.52802
 Alpha  occ. eigenvalues --   -0.52535  -0.50096  -0.48966  -0.48958  -0.48073
 Alpha  occ. eigenvalues --   -0.46862  -0.45973  -0.45768  -0.44881  -0.43872
 Alpha  occ. eigenvalues --   -0.37416  -0.36469
 Alpha virt. eigenvalues --    0.04806   0.10884   0.16219   0.19941   0.23297
 Alpha virt. eigenvalues --    0.23584   0.25851   0.26655   0.27548   0.28076
 Alpha virt. eigenvalues --    0.28796   0.29937   0.31390   0.31857   0.32139

 Mulliken charges:
               1
     1  C   -0.173523
     2  C   -0.218595
     3  C   -0.171883
     4  C    0.159754
     5  C   -0.172896
     6  C   -0.213122
     7  H    0.227172
     8  H    0.225051
     9  H    0.277119
    10  H    0.276471
    11  H    0.226063
    12  N    0.491204
    13  O   -0.459709
    14  O   -0.458570
    15  C   -0.296484
    16  C   -0.300050
    17  C   -0.475079
    18  H    0.144959
    19  H    0.151357
    20  H    0.142576
    21  H    0.154222
    22  H    0.159393
    23  H    0.148863
    24  H    0.159861
    25  C   -0.303915
    26  C   -0.301604
    27  C   -0.479145
    28  H    0.154966
    29  H    0.147675
    30  H    0.152056
    31  H    0.153450
    32  H    0.152973
    33  H    0.150312
    34  H    0.169077
 Sum of Mulliken charges =  -0.00000

 Dipole moment (field-independent basis, Debye):
    X=              3.2200    Y=             -2.9953    Z=              2.5981  Tot=              5.1079
 Quadrupole moment (field-independent basis, Debye-Ang):
   XX=           -106.4652   YY=            -90.6062   ZZ=            -92.8891
   XY=              3.3217   XZ=             -7.2013   YZ=             -0.7673

 Normal termination of Gaussian 16 at Thu May  6 01:29:48 2021.
