 Gaussian 16, Revision A.03,
 Gaussian 16:  EM64L-G16RevA.03 25-Dec-2016

 -------------
 #p 6-31g* mp2
 -------------

 ------------------------------------------------------
 Input file generated by CHIRIPA (05-May-2021 14:51:13)
 ------------------------------------------------------
 Symbolic Z-matrix:
 Charge =  0 Multiplicity = 1

                         Standard orientation:
 ---------------------------------------------------------------------
 Center     Atomic      Atomic             Coordinates (Angstroms)
 Number     Number       Type             X           Y           Z
 ---------------------------------------------------------------------
      1          6           0       -2.761524    0.704470    0.036376
      2          6           0       -4.022035    1.508555    0.356602
      3          6           0       -3.717311    2.955536    0.745426
      4          1           0       -2.093918    0.718405    0.908760
      5          1           0       -2.217961    1.198090   -0.781104
      6          1           0       -4.563777    1.012810    1.172304
      7          1           0       -4.686803    1.492544   -0.516578
      8          1           0       -3.197361    3.471711   -0.068096
      9          1           0       -3.073635    2.989251    1.630381
     10          1           0       -4.632509    3.512092    0.970185
     11          6           0       -3.049846   -0.744028   -0.354073
     12          6           0       -1.789335   -1.548114   -0.674299
     13          6           0       -2.094060   -2.995095   -1.063122
     14          1           0       -3.593409   -1.237648    0.463407
     15          1           0       -3.717452   -0.757964   -1.226456
     16          1           0       -1.124567   -1.532103    0.198881
     17          1           0       -1.247594   -1.052368   -1.490000
     18          1           0       -2.737735   -3.028810   -1.948078
     19          1           0       -2.614009   -3.511269   -0.249601
     20          1           0       -1.178861   -3.551650   -1.287882
     21          6           0        2.394944   -0.446089    0.483720
     22          6           0        2.833316   -1.910880    0.498043
     23          6           0        1.801081   -2.830497    1.151179
     24          1           0        2.207854   -0.115864    1.514688
     25          1           0        1.438063   -0.362173   -0.049881
     26          1           0        3.789774   -1.991814    1.030259
     27          1           0        3.019569   -2.237601   -0.533063
     28          1           0        0.846850   -2.779361    0.616923
     29          1           0        1.621432   -2.532177    2.189126
     30          1           0        2.134742   -3.872865    1.150676
     31          6           0        3.416427    0.485648   -0.166024
     32          6           0        2.978055    1.950438   -0.180347
     33          6           0        4.010290    2.870056   -0.833483
     34          1           0        4.373308    0.401731    0.367578
     35          1           0        3.603517    0.155422   -1.196991
     36          1           0        2.791801    2.277159    0.850759
     37          1           0        2.021596    2.031372   -0.712561
     38          1           0        4.189938    2.571735   -1.871429
     39          1           0        4.964519    2.818919   -0.299226
     40          1           0        3.676628    3.912423   -0.832980
 ---------------------------------------------------------------------

 SCF Done:  E(RHF) =  -470.733078470     A.U. after   11 cycles
 E2 =    -0.1583451170D+01 EUMP2 =    -0.47231652963964D+03

 The electronic state is 1-A.
 Alpha  occ. eigenvalues --  -11.21636 -11.21612 -11.21573 -11.21567 -11.21428
 Alpha  occ. eigenvalues --  -11.21367 -11.21362 -11.21296 -11.21119 -11.21075
 Alpha  occ. eigenvalues --  -11.21052 -11.21018  -1.08465  -1.08388  -1.03581
 Alpha  occ. eigenvalues --   -1.03484  -0.96021  -0.95937  -0.87023  -0.86966
 Alpha  occ. eigenvalues --   -0.79688  -0.79519  -0.78344  -0.78132  -0.65125
 Alpha  occ. eigenvalues --   -0.64999  -0.61076  -0.60823  -0.59421  -0.59271
 Alpha  occ. eigenvalues --   -0.57699  -0.57490  -0.55352  -0.55167  -0.52706
 Alpha  occ. eigenvalues --   -0.52644  -0.52455  -0.52348  -0.49973  -0.49865
 Alpha  occ. eigenvalues --   -0.48098  -0.47800  -0.46779  -0.46487  -0.46040
 Alpha  occ. eigenvalues --   -0.45760  -0.45694  -0.45320  -0.43813  -0.43747
 Alpha virt. eigenvalues --    0.21181   0.23213   0.23288   0.24990   0.25583
 Alpha virt. eigenvalues --    0.26464   0.26803   0.27201   0.28577   0.29380
 Alpha virt. eigenvalues --    0.30874   0.31121   0.31560   0.31817   0.32097

 Mulliken charges:
               1
     1  C   -0.298737
     2  C   -0.299660
     3  C   -0.475704
     4  H    0.150626
     5  H    0.149040
     6  H    0.152015
     7  H    0.151917
     8  H    0.155171
     9  H    0.155370
    10  H    0.160256
    11  C   -0.297563
    12  C   -0.307199
    13  C   -0.477245
    14  H    0.149805
    15  H    0.149620
    16  H    0.158693
    17  H    0.151477
    18  H    0.155596
    19  H    0.155906
    20  H    0.161143
    21  C   -0.302562
    22  C   -0.298887
    23  C   -0.484139
    24  H    0.148748
    25  H    0.154638
    26  H    0.151694
    27  H    0.151510
    28  H    0.164509
    29  H    0.154268
    30  H    0.160063
    31  C   -0.298154
    32  C   -0.299553
    33  C   -0.475697
    34  H    0.149375
    35  H    0.149403
    36  H    0.151857
    37  H    0.152060
    38  H    0.155027
    39  H    0.155128
    40  H    0.160187
 Sum of Mulliken charges =  -0.00000

 Dipole moment (field-independent basis, Debye):
    X=             -0.0429    Y=             -0.0033    Z=             -0.0005  Tot=              0.0430
 Quadrupole moment (field-independent basis, Debye-Ang):
   XX=            -85.0940   YY=            -86.4870   ZZ=            -83.2799
   XY=             -0.4657   XZ=              0.7021   YZ=             -0.0810

 Normal termination of Gaussian 16 at Thu May  6 00:48:09 2021.
