 Gaussian 16, Revision A.03,
 Gaussian 16:  EM64L-G16RevA.03 25-Dec-2016

 -------------
 #p 6-31g* mp2
 -------------

 ------------------------------------------------------
 Input file generated by CHIRIPA (05-May-2021 14:57:27)
 ------------------------------------------------------
 Symbolic Z-matrix:
 Charge =  0 Multiplicity = 1

                         Standard orientation:
 ---------------------------------------------------------------------
 Center     Atomic      Atomic             Coordinates (Angstroms)
 Number     Number       Type             X           Y           Z
 ---------------------------------------------------------------------
      1          6           0        3.006032    2.141779    1.151892
      2          6           0        2.486041    2.114062   -0.146324
      3          6           0        2.242581    0.895956   -0.787799
      4          6           0        2.532008   -0.280642   -0.098495
      5          6           0        3.050652   -0.285863    1.195441
      6          6           0        3.286184    0.943840    1.817457
      7          1           0        3.192078    3.092538    1.642647
      8          1           0        2.267519    3.042831   -0.665632
      9          1           0        1.840520    0.845525   -1.792399
     10          1           0        3.258444   -1.228214    1.687595
     11          1           0        3.690067    0.962328    2.825714
     12          7           0        2.278464   -1.576335   -0.767296
     13          8           0        2.541928   -2.598982   -0.138474
     14          8           0        1.821073   -1.544719   -1.907660
     15          6           0       -2.811374   -2.271246    0.905674
     16          6           0       -3.540699   -1.220049    1.470999
     17          6           0       -3.416939    0.079580    0.970802
     18          6           0       -2.550826    0.293159   -0.100423
     19          6           0       -1.810703   -0.733297   -0.685143
     20          6           0       -1.950222   -2.024950   -0.168698
     21          1           0       -2.913635   -3.277731    1.300550
     22          1           0       -4.210232   -1.408384    2.305444
     23          1           0       -3.969664    0.911804    1.389509
     24          1           0       -1.151198   -0.514551   -1.516180
     25          1           0       -1.382572   -2.839392   -0.609722
     26          7           0       -2.411466    1.664796   -0.638560
     27          8           0       -1.641733    1.826783   -1.582969
     28          8           0       -3.074607    2.551924   -0.105752
 ---------------------------------------------------------------------

 SCF Done:  E(RHF) =  -868.341406207     A.U. after   16 cycles
 E2 =    -0.2599552158D+01 EUMP2 =    -0.87094095836476D+03

 The electronic state is 1-A.
 Alpha  occ. eigenvalues --  -20.61224 -20.61194 -20.60796 -20.60775 -15.86220
 Alpha  occ. eigenvalues --  -15.85824 -11.31174 -11.30904 -11.27741 -11.27614
 Alpha  occ. eigenvalues --  -11.27490 -11.27362 -11.27316 -11.27121 -11.26677
 Alpha  occ. eigenvalues --  -11.26522 -11.26462 -11.26253  -1.60280  -1.59861
 Alpha  occ. eigenvalues --   -1.39843  -1.39424  -1.19311  -1.19048  -1.08787
 Alpha  occ. eigenvalues --   -1.08499  -1.04632  -1.04387  -0.95685  -0.95379
 Alpha  occ. eigenvalues --   -0.86060  -0.85800  -0.82525  -0.82208  -0.77620
 Alpha  occ. eigenvalues --   -0.77280  -0.72449  -0.72059  -0.71594  -0.71173
 Alpha  occ. eigenvalues --   -0.70410  -0.70138  -0.64959  -0.64692  -0.64624
 Alpha  occ. eigenvalues --   -0.64354  -0.61981  -0.61700  -0.55167  -0.54909
 Alpha  occ. eigenvalues --   -0.53014  -0.52760  -0.52711  -0.52442  -0.49224
 Alpha  occ. eigenvalues --   -0.49171  -0.48817  -0.48782  -0.45329  -0.44893
 Alpha  occ. eigenvalues --   -0.37298  -0.37025  -0.36217  -0.35976
 Alpha virt. eigenvalues --    0.04829   0.05186   0.11289   0.11771   0.16403
 Alpha virt. eigenvalues --    0.16754   0.21375   0.22058   0.26919   0.27817
 Alpha virt. eigenvalues --    0.28276   0.29127   0.31089   0.31442   0.32010

 Mulliken charges:
               1
     1  C   -0.170271
     2  C   -0.217281
     3  C   -0.170189
     4  C    0.155798
     5  C   -0.171634
     6  C   -0.219059
     7  H    0.227252
     8  H    0.232018
     9  H    0.280874
    10  H    0.272977
    11  H    0.222615
    12  N    0.487815
    13  O   -0.461430
    14  O   -0.466666
    15  C   -0.170776
    16  C   -0.219215
    17  C   -0.172285
    18  C    0.158634
    19  C   -0.179202
    20  C   -0.223006
    21  H    0.226556
    22  H    0.221667
    23  H    0.272906
    24  H    0.283668
    25  H    0.237793
    26  N    0.488723
    27  O   -0.466283
    28  O   -0.462000
 Sum of Mulliken charges =  -0.00000

 Dipole moment (field-independent basis, Debye):
    X=              0.5256    Y=             -0.2277    Z=              4.2084  Tot=              4.2472
 Quadrupole moment (field-independent basis, Debye-Ang):
   XX=            -96.6043   YY=           -108.9775   ZZ=           -100.8588
   XY=             22.3673   XZ=              0.1279   YZ=             -1.0161

 Normal termination of Gaussian 16 at Thu May  6 05:16:18 2021.
