 Gaussian 16, Revision A.03,
 Gaussian 16:  EM64L-G16RevA.03 25-Dec-2016

 -------------
 #p 6-31g* mp2
 -------------

 ------------------------------------------------------
 Input file generated by CHIRIPA (05-May-2021 14:51:13)
 ------------------------------------------------------
 Symbolic Z-matrix:
 Charge =  0 Multiplicity = 1

                         Standard orientation:
 ---------------------------------------------------------------------
 Center     Atomic      Atomic             Coordinates (Angstroms)
 Number     Number       Type             X           Y           Z
 ---------------------------------------------------------------------
      1          6           0        2.833028   -0.008381    0.117944
      2          6           0        1.984819   -0.460516    1.307105
      3          6           0        0.498624   -0.151022    1.124814
      4          1           0        2.697553    1.071568   -0.031395
      5          1           0        2.464589   -0.498650   -0.793803
      6          1           0        2.355627    0.029395    2.216558
      7          1           0        2.122478   -1.539479    1.453750
      8          1           0        0.107173   -0.652424    0.233768
      9          1           0        0.341647    0.925364    1.000910
     10          1           0       -0.089140   -0.482620    1.986462
     11          6           0        4.321044   -0.310900    0.285333
     12          6           0        5.169252    0.141234   -0.903827
     13          6           0        6.655448   -0.168260   -0.721537
     14          1           0        4.689483    0.179369    1.197081
     15          1           0        4.456519   -1.390849    0.434673
     16          1           0        5.031594    1.220197   -1.050472
     17          1           0        4.798445   -0.348677   -1.813280
     18          1           0        6.812425   -1.244646   -0.597632
     19          1           0        7.046898    0.333142    0.169510
     20          1           0        7.243211    0.163338   -1.583184
     21          6           0       -3.922104   -0.432335   -0.539168
     22          6           0       -3.680434   -1.762685    0.174798
     23          6           0       -4.377194   -2.937479   -0.512355
     24          1           0       -5.002823   -0.241269   -0.589030
     25          1           0       -3.570571   -0.512098   -1.577174
     26          1           0       -4.031053   -1.679993    1.211545
     27          1           0       -2.600157   -1.950513    0.223136
     28          1           0       -4.020494   -3.048482   -1.541453
     29          1           0       -5.459522   -2.776426   -0.547429
     30          1           0       -4.191130   -3.878539    0.014567
     31          6           0       -3.231968    0.751615    0.135890
     32          6           0       -3.473638    2.081966   -0.578076
     33          6           0       -2.776878    3.256761    0.109077
     34          1           0       -3.583501    0.831379    1.173896
     35          1           0       -2.151249    0.560551    0.185753
     36          1           0       -4.553916    2.269793   -0.626414
     37          1           0       -3.123018    1.999274   -1.614823
     38          1           0       -1.694550    3.095708    0.144151
     39          1           0       -3.133578    3.367764    1.138175
     40          1           0       -2.962942    4.197821   -0.417845
 ---------------------------------------------------------------------

 SCF Done:  E(RHF) =  -470.733027654     A.U. after   11 cycles
 E2 =    -0.1583212325D+01 EUMP2 =    -0.47231623997875D+03

 The electronic state is 1-A.
 Alpha  occ. eigenvalues --  -11.21652 -11.21631 -11.21531 -11.21511 -11.21451
 Alpha  occ. eigenvalues --  -11.21390 -11.21292 -11.21168 -11.21163 -11.21094
 Alpha  occ. eigenvalues --  -11.21028 -11.21026  -1.08479  -1.08330  -1.03584
 Alpha  occ. eigenvalues --   -1.03456  -0.96048  -0.95896  -0.87075  -0.86913
 Alpha  occ. eigenvalues --   -0.79685  -0.79507  -0.78318  -0.78090  -0.65110
 Alpha  occ. eigenvalues --   -0.64969  -0.61003  -0.60839  -0.59399  -0.59272
 Alpha  occ. eigenvalues --   -0.57653  -0.57511  -0.55344  -0.55184  -0.52780
 Alpha  occ. eigenvalues --   -0.52597  -0.52502  -0.52289  -0.49989  -0.49848
 Alpha  occ. eigenvalues --   -0.48053  -0.47804  -0.46716  -0.46506  -0.45978
 Alpha  occ. eigenvalues --   -0.45754  -0.45654  -0.45375  -0.43803  -0.43689
 Alpha virt. eigenvalues --    0.21336   0.22984   0.23610   0.24367   0.25506
 Alpha virt. eigenvalues --    0.26338   0.27056   0.27467   0.27725   0.29679
 Alpha virt. eigenvalues --    0.30021   0.31602   0.31787   0.31918   0.32260

 Mulliken charges:
               1
     1  C   -0.298461
     2  C   -0.300723
     3  C   -0.479395
     4  H    0.149602
     5  H    0.149326
     6  H    0.152362
     7  H    0.152220
     8  H    0.155147
     9  H    0.156372
    10  H    0.162916
    11  C   -0.298321
    12  C   -0.299671
    13  C   -0.475739
    14  H    0.149714
    15  H    0.149762
    16  H    0.152014
    17  H    0.151905
    18  H    0.155225
    19  H    0.155266
    20  H    0.160355
    21  C   -0.297489
    22  C   -0.301614
    23  C   -0.475572
    24  H    0.149097
    25  H    0.148538
    26  H    0.151606
    27  H    0.153725
    28  H    0.154805
    29  H    0.155140
    30  H    0.159887
    31  C   -0.310128
    32  C   -0.298822
    33  C   -0.476605
    34  H    0.148133
    35  H    0.166479
    36  H    0.151385
    37  H    0.151271
    38  H    0.155263
    39  H    0.155111
    40  H    0.159917
 Sum of Mulliken charges =  -0.00000

 Dipole moment (field-independent basis, Debye):
    X=              0.0637    Y=             -0.0068    Z=              0.0276  Tot=              0.0697
 Quadrupole moment (field-independent basis, Debye-Ang):
   XX=            -85.7279   YY=            -84.9604   ZZ=            -84.4003
   XY=             -0.2397   XZ=             -0.6102   YZ=              0.1377

 Normal termination of Gaussian 16 at Wed May  5 15:22:04 2021.
