 Gaussian 16, Revision A.03,
 Gaussian 16:  EM64L-G16RevA.03 25-Dec-2016

 -------------
 #p 6-31g* mp2
 -------------

 ------------------------------------------------------
 Input file generated by CHIRIPA (05-May-2021 14:57:27)
 ------------------------------------------------------
 Symbolic Z-matrix:
 Charge =  0 Multiplicity = 1

                         Standard orientation:
 ---------------------------------------------------------------------
 Center     Atomic      Atomic             Coordinates (Angstroms)
 Number     Number       Type             X           Y           Z
 ---------------------------------------------------------------------
      1          6           0       -3.649507    2.399603   -0.736874
      2          6           0       -2.512986    1.584774   -0.766809
      3          6           0       -2.600839    0.231002   -0.428978
      4          6           0       -3.846660   -0.277160   -0.064296
      5          6           0       -4.997146    0.509043   -0.024843
      6          6           0       -4.885780    1.860088   -0.366639
      7          1           0       -3.572127    3.450186   -1.000849
      8          1           0       -1.551577    2.001052   -1.053950
      9          1           0       -1.736991   -0.422427   -0.443658
     10          1           0       -5.941793    0.065454    0.265479
     11          1           0       -5.770094    2.490524   -0.342500
     12          7           0       -3.952112   -1.708895    0.295449
     13          8           0       -5.061275   -2.132420    0.613286
     14          8           0       -2.923606   -2.380452    0.252769
     15          6           0        1.528201    0.657083    0.955236
     16          6           0        1.678839   -0.343029   -0.010996
     17          6           0        2.948999   -0.692502   -0.479089
     18          6           0        4.051740   -0.018349    0.043186
     19          6           0        3.934208    0.982414    1.006487
     20          6           0        2.654381    1.315452    1.460003
     21          1           0        0.537756    0.922179    1.313200
     22          1           0        0.806018   -0.856010   -0.404796
     23          1           0        3.094341   -1.462938   -1.226565
     24          1           0        4.823089    1.476038    1.380178
     25          1           0        2.540405    2.092553    2.210450
     26          7           0        5.401518   -0.379621   -0.444648
     27          8           0        6.357154    0.229286    0.031407
     28          8           0        5.478280   -1.264853   -1.293829
 ---------------------------------------------------------------------

 SCF Done:  E(RHF) =  -868.337272978     A.U. after   16 cycles
 E2 =    -0.2600029776D+01 EUMP2 =    -0.87093730275348D+03

 The electronic state is 1-A.
 Alpha  occ. eigenvalues --  -20.61573 -20.61550 -20.60955 -20.60949 -15.86621
 Alpha  occ. eigenvalues --  -15.86012 -11.32083 -11.31466 -11.28766 -11.28584
 Alpha  occ. eigenvalues --  -11.28340 -11.28046 -11.28043 -11.27853 -11.27708
 Alpha  occ. eigenvalues --  -11.27602 -11.27140 -11.27089  -1.60635  -1.60028
 Alpha  occ. eigenvalues --   -1.40189  -1.39579  -1.20246  -1.19658  -1.09605
 Alpha  occ. eigenvalues --   -1.09052  -1.05674  -1.05072  -0.96437  -0.95863
 Alpha  occ. eigenvalues --   -0.87055  -0.86481  -0.83273  -0.82687  -0.78330
 Alpha  occ. eigenvalues --   -0.77709  -0.72835  -0.72229  -0.71959  -0.71356
 Alpha  occ. eigenvalues --   -0.71352  -0.70776  -0.65896  -0.65684  -0.65317
 Alpha  occ. eigenvalues --   -0.65095  -0.63043  -0.62377  -0.56120  -0.55612
 Alpha  occ. eigenvalues --   -0.53971  -0.53777  -0.53398  -0.53145  -0.49604
 Alpha  occ. eigenvalues --   -0.49583  -0.48996  -0.48976  -0.45574  -0.44964
 Alpha  occ. eigenvalues --   -0.38193  -0.37671  -0.37279  -0.36670
 Alpha virt. eigenvalues --    0.04202   0.04819   0.10377   0.10942   0.15629
 Alpha virt. eigenvalues --    0.16268   0.18214   0.21904   0.24535   0.26682
 Alpha virt. eigenvalues --    0.27736   0.29281   0.29639   0.30898   0.31702

 Mulliken charges:
               1
     1  C   -0.170344
     2  C   -0.223501
     3  C   -0.179927
     4  C    0.160462
     5  C   -0.169260
     6  C   -0.217993
     7  H    0.228707
     8  H    0.224880
     9  H    0.273678
    10  H    0.278492
    11  H    0.226895
    12  N    0.487331
    13  O   -0.456217
    14  O   -0.462630
    15  C   -0.175999
    16  C   -0.224524
    17  C   -0.170170
    18  C    0.159083
    19  C   -0.170580
    20  C   -0.218428
    21  H    0.224553
    22  H    0.227029
    23  H    0.278697
    24  H    0.276582
    25  H    0.223940
    26  N    0.487870
    27  O   -0.459842
    28  O   -0.458781
 Sum of Mulliken charges =  -0.00000

 Dipole moment (field-independent basis, Debye):
    X=             -4.5325    Y=              6.3505    Z=              0.4461  Tot=              7.8148
 Quadrupole moment (field-independent basis, Debye-Ang):
   XX=           -139.1620   YY=           -105.9997   ZZ=           -103.8090
   XY=            -13.8270   XZ=             12.1965   YZ=              2.5199

 Normal termination of Gaussian 16 at Thu May  6 05:13:05 2021.
