 Gaussian 16, Revision A.03,
 Gaussian 16:  EM64L-G16RevA.03 25-Dec-2016

 -------------
 #p 6-31g* mp2
 -------------

 ------------------------------------------------------
 Input file generated by CHIRIPA (05-May-2021 14:53:13)
 ------------------------------------------------------
 Symbolic Z-matrix:
 Charge =  0 Multiplicity = 1

                         Standard orientation:
 ---------------------------------------------------------------------
 Center     Atomic      Atomic             Coordinates (Angstroms)
 Number     Number       Type             X           Y           Z
 ---------------------------------------------------------------------
      1          6           0       -4.267223    0.572883    0.487041
      2          6           0       -3.257218    1.504704   -0.183469
      3          6           0       -2.315265    2.174164    0.817703
      4          1           0       -4.854038    1.144435    1.219108
      5          1           0       -3.725358   -0.197122    1.053494
      6          1           0       -3.800818    2.271900   -0.749618
      7          1           0       -2.672869    0.930909   -0.914161
      8          1           0       -1.747385    1.421947    1.374733
      9          1           0       -2.881744    2.770557    1.540211
     10          1           0       -1.601641    2.835860    0.316944
     11          6           0       -5.215854   -0.103826   -0.500832
     12          6           0       -6.225859   -1.035648    0.169678
     13          6           0       -7.167811   -1.705107   -0.831493
     14          1           0       -5.757719    0.666179   -1.067285
     15          1           0       -4.629039   -0.675378   -1.232898
     16          1           0       -6.810208   -0.461853    0.900370
     17          1           0       -5.682258   -1.802843    0.735827
     18          1           0       -6.601333   -2.301500   -1.554002
     19          1           0       -7.735692   -0.952891   -1.388524
     20          1           0       -7.881435   -2.366804   -0.330735
     21          6           0        1.241675    0.054375    0.500174
     22          6           0        1.901116    1.029436   -0.255415
     23          6           0        3.265399    0.908101   -0.535696
     24          6           0        3.942407   -0.206195   -0.042447
     25          6           0        3.313459   -1.194491    0.713190
     26          6           0        1.948705   -1.052525    0.981217
     27          1           0        0.181684    0.156644    0.713144
     28          1           0        1.354563    1.890129   -0.630291
     29          1           0        3.800683    1.648121   -1.118155
     30          1           0        3.885016   -2.041300    1.073265
     31          1           0        1.439171   -1.811326    1.568278
     32          7           0        5.386962   -0.345568   -0.332682
     33          8           0        5.960844   -1.336697    0.113369
     34          8           0        5.917969    0.538959   -1.000722
 ---------------------------------------------------------------------

 SCF Done:  E(RHF) =  -669.535454388     A.U. after   15 cycles
 E2 =    -0.2091016367D+01 EUMP2 =    -0.67162647075427D+03

 The electronic state is 1-A.
 Alpha  occ. eigenvalues --  -20.60726 -20.60721 -15.85780 -11.31137 -11.27709
 Alpha  occ. eigenvalues --  -11.27704 -11.27409 -11.26718 -11.26703 -11.22695
 Alpha  occ. eigenvalues --  -11.22421 -11.22305 -11.22216 -11.22098 -11.21575
 Alpha  occ. eigenvalues --   -1.59802  -1.39356  -1.19308  -1.09291  -1.08700
 Alpha  occ. eigenvalues --   -1.04712  -1.04413  -0.96874  -0.95537  -0.87887
 Alpha  occ. eigenvalues --   -0.86106  -0.82375  -0.80479  -0.79054  -0.77423
 Alpha  occ. eigenvalues --   -0.71998  -0.71125  -0.70438  -0.65927  -0.64958
 Alpha  occ. eigenvalues --   -0.64718  -0.62066  -0.61820  -0.60263  -0.58457
 Alpha  occ. eigenvalues --   -0.56285  -0.55110  -0.53570  -0.53275  -0.53039
 Alpha  occ. eigenvalues --   -0.52798  -0.50798  -0.48801  -0.48753  -0.48739
 Alpha  occ. eigenvalues --   -0.47513  -0.46602  -0.46506  -0.44763  -0.44646
 Alpha  occ. eigenvalues --   -0.37281  -0.36319
 Alpha virt. eigenvalues --    0.05108   0.11334   0.16586   0.18920   0.22516
 Alpha virt. eigenvalues --    0.23894   0.25157   0.25966   0.26533   0.27244
 Alpha virt. eigenvalues --    0.29110   0.29847   0.31188   0.31360   0.32470

 Mulliken charges:
               1
     1  C   -0.297913
     2  C   -0.302202
     3  C   -0.480277
     4  H    0.152630
     5  H    0.146180
     6  H    0.157190
     7  H    0.150193
     8  H    0.147885
     9  H    0.163625
    10  H    0.158595
    11  C   -0.298964
    12  C   -0.300122
    13  C   -0.476178
    14  H    0.151581
    15  H    0.150136
    16  H    0.153128
    17  H    0.151598
    18  H    0.155826
    19  H    0.156289
    20  H    0.161982
    21  C   -0.175738
    22  C   -0.221786
    23  C   -0.170927
    24  C    0.158318
    25  C   -0.170717
    26  C   -0.220234
    27  H    0.234892
    28  H    0.224103
    29  H    0.275441
    30  H    0.275336
    31  H    0.223272
    32  N    0.488033
    33  O   -0.460603
    34  O   -0.460572
 Sum of Mulliken charges =  -0.00000

 Dipole moment (field-independent basis, Debye):
    X=             -5.3674    Y=              0.5364    Z=              1.0083  Tot=              5.4875
 Quadrupole moment (field-independent basis, Debye-Ang):
   XX=           -134.6600   YY=            -90.9681   ZZ=            -94.5457
   XY=              1.7883   XZ=              3.8293   YZ=             -3.0253

 Normal termination of Gaussian 16 at Thu May  6 20:16:45 2021.
