 Gaussian 16, Revision A.03,
 Gaussian 16:  EM64L-G16RevA.03 25-Dec-2016

 -------------
 #p 6-31g* mp2
 -------------

 ------------------------------------------------------
 Input file generated by CHIRIPA (05-May-2021 14:57:25)
 ------------------------------------------------------
 Symbolic Z-matrix:
 Charge =  0 Multiplicity = 1

                         Standard orientation:
 ---------------------------------------------------------------------
 Center     Atomic      Atomic             Coordinates (Angstroms)
 Number     Number       Type             X           Y           Z
 ---------------------------------------------------------------------
      1          6           0       -4.247439    1.983828    1.275070
      2          6           0       -3.345444    2.071565    0.209599
      3          6           0       -2.928440    0.919835   -0.464324
      4          6           0       -3.435744   -0.308837   -0.044446
      5          6           0       -4.335549   -0.428877    1.013492
      6          6           0       -4.738746    0.736087    1.672915
      7          1           0       -4.566015    2.883660    1.792958
      8          1           0       -2.962242    3.039238   -0.101545
      9          1           0       -2.231138    0.958970   -1.292367
     10          1           0       -4.700194   -1.407616    1.300758
     11          1           0       -5.439351    0.664932    2.500039
     12          7           0       -3.001589   -1.535128   -0.750223
     13          8           0       -3.463172   -2.605673   -0.360979
     14          8           0       -2.207935   -1.402529   -1.679292
     15          6           0        1.964995    1.162711   -1.766610
     16          6           0        3.055423    1.883034   -1.267989
     17          6           0        3.916556    1.307971   -0.328680
     18          6           0        3.656403    0.004641    0.091967
     19          6           0        2.578358   -0.738696   -0.386114
     20          6           0        1.730357   -0.143553   -1.324860
     21          1           0        1.301147    1.617233   -2.496069
     22          1           0        3.240087    2.897666   -1.609256
     23          1           0        4.768120    1.842976    0.073844
     24          1           0        2.419984   -1.748313   -0.026937
     25          1           0        0.884291   -0.705338   -1.710365
     26          7           0        4.561095   -0.614781    1.086073
     27          8           0        4.310196   -1.764552    1.440635
     28          8           0        5.503959    0.061215    1.491870
 ---------------------------------------------------------------------

 SCF Done:  E(RHF) =  -868.339266591     A.U. after   16 cycles
 E2 =    -0.2598903483D+01 EUMP2 =    -0.87093817007478D+03

 The electronic state is 1-A.
 Alpha  occ. eigenvalues --  -20.61643 -20.61565 -20.60520 -20.60507 -15.86640
 Alpha  occ. eigenvalues --  -15.85564 -11.31824 -11.30895 -11.28430 -11.28330
 Alpha  occ. eigenvalues --  -11.28056 -11.27478 -11.27365 -11.27355 -11.27303
 Alpha  occ. eigenvalues --  -11.27198 -11.26536 -11.26277  -1.60662  -1.59592
 Alpha  occ. eigenvalues --   -1.40226  -1.39146  -1.19974  -1.19048  -1.09396
 Alpha  occ. eigenvalues --   -1.08463  -1.05356  -1.04419  -0.96265  -0.95307
 Alpha  occ. eigenvalues --   -0.86762  -0.85823  -0.83111  -0.82118  -0.78188
 Alpha  occ. eigenvalues --   -0.77160  -0.72867  -0.71967  -0.71783  -0.71083
 Alpha  occ. eigenvalues --   -0.70915  -0.70187  -0.65635  -0.65358  -0.64693
 Alpha  occ. eigenvalues --   -0.64381  -0.62718  -0.61737  -0.55849  -0.54969
 Alpha  occ. eigenvalues --   -0.53682  -0.53451  -0.52788  -0.52476  -0.49633
 Alpha  occ. eigenvalues --   -0.49590  -0.48542  -0.48536  -0.45663  -0.44558
 Alpha  occ. eigenvalues --   -0.37928  -0.37073  -0.36940  -0.36023
 Alpha virt. eigenvalues --    0.04318   0.05327   0.10702   0.11607   0.15827
 Alpha virt. eigenvalues --    0.16830   0.20390   0.21873   0.26163   0.27170
 Alpha virt. eigenvalues --    0.28197   0.28831   0.30662   0.31397   0.31872

 Mulliken charges:
               1
     1  C   -0.169766
     2  C   -0.217443
     3  C   -0.169030
     4  C    0.158783
     5  C   -0.169954
     6  C   -0.218053
     7  H    0.227938
     8  H    0.223204
     9  H    0.267963
    10  H    0.277488
    11  H    0.226155
    12  N    0.490109
    13  O   -0.454063
    14  O   -0.470987
    15  C   -0.175179
    16  C   -0.218544
    17  C   -0.172688
    18  C    0.158743
    19  C   -0.172795
    20  C   -0.228006
    21  H    0.221700
    22  H    0.220400
    23  H    0.273895
    24  H    0.278591
    25  H    0.245215
    26  N    0.487890
    27  O   -0.459377
    28  O   -0.462190
 Sum of Mulliken charges =  -0.00000

 Dipole moment (field-independent basis, Debye):
    X=             -5.0547    Y=              6.3719    Z=             -0.8849  Tot=              8.1813
 Quadrupole moment (field-independent basis, Debye-Ang):
   XX=           -115.1083   YY=           -102.9192   ZZ=           -105.1355
   XY=             -2.3581   XZ=            -24.2085   YZ=             -2.3836

 Normal termination of Gaussian 16 at Thu May  6 14:42:14 2021.
