 Gaussian 16, Revision A.03,
 Gaussian 16:  EM64L-G16RevA.03 25-Dec-2016

 -------------
 #p 6-31g* mp2
 -------------

 ------------------------------------------------------
 Input file generated by CHIRIPA (05-May-2021 14:53:12)
 ------------------------------------------------------
 Symbolic Z-matrix:
 Charge =  0 Multiplicity = 1

                         Standard orientation:
 ---------------------------------------------------------------------
 Center     Atomic      Atomic             Coordinates (Angstroms)
 Number     Number       Type             X           Y           Z
 ---------------------------------------------------------------------
      1          6           0        4.050612    1.061119    0.222309
      2          6           0        2.799895    1.922703    0.045205
      3          6           0        2.985462    3.348242    0.565971
      4          1           0        4.320253    1.031906    1.286915
      5          1           0        4.892052    1.536770   -0.300310
      6          1           0        1.960741    1.444860    0.566841
      7          1           0        2.533089    1.949711   -1.019079
      8          1           0        3.804581    3.847538    0.038386
      9          1           0        3.228982    3.339819    1.633317
     10          1           0        2.079313    3.946669    0.429448
     11          6           0        3.880683   -0.366727   -0.293548
     12          6           0        5.131401   -1.228310   -0.116444
     13          6           0        4.945834   -2.653849   -0.637210
     14          1           0        3.039243   -0.842378    0.229071
     15          1           0        3.611042   -0.337514   -1.358153
     16          1           0        5.398207   -1.255319    0.947841
     17          1           0        5.970554   -0.750468   -0.638080
     18          1           0        4.702313   -2.645426   -1.704556
     19          1           0        4.126714   -3.153146   -0.109624
     20          1           0        5.851982   -3.252277   -0.500687
     21          6           0       -0.755516   -1.089669    0.484027
     22          6           0       -0.956120    0.143052   -0.145799
     23          6           0       -2.249693    0.606492   -0.403558
     24          6           0       -3.324640   -0.192124   -0.016276
     25          6           0       -3.157273   -1.424755    0.612931
     26          6           0       -1.854794   -1.868265    0.860718
     27          1           0        0.252821   -1.441939    0.680388
     28          1           0       -0.104282    0.749836   -0.439448
     29          1           0       -2.433669    1.556905   -0.889651
     30          1           0       -4.026201   -2.007327    0.893984
     31          1           0       -1.702009   -2.826022    1.350005
     32          7           0       -4.698802    0.287948   -0.283876
     33          8           0       -5.629137   -0.434461    0.067174
     34          8           0       -4.819514    1.377550   -0.839604
 ---------------------------------------------------------------------

 SCF Done:  E(RHF) =  -669.535557544     A.U. after   15 cycles
 E2 =    -0.2091763939D+01 EUMP2 =    -0.67162732148249D+03

 The electronic state is 1-A.
 Alpha  occ. eigenvalues --  -20.60709 -20.60704 -15.85761 -11.31113 -11.27682
 Alpha  occ. eigenvalues --  -11.27662 -11.27411 -11.26700 -11.26614 -11.22778
 Alpha  occ. eigenvalues --  -11.22525 -11.22458 -11.22378 -11.21941 -11.21877
 Alpha  occ. eigenvalues --   -1.59785  -1.39339  -1.19279  -1.09462  -1.08677
 Alpha  occ. eigenvalues --   -1.04681  -1.04488  -0.96908  -0.95517  -0.87923
 Alpha  occ. eigenvalues --   -0.86080  -0.82349  -0.80587  -0.79313  -0.77392
 Alpha  occ. eigenvalues --   -0.71980  -0.71108  -0.70395  -0.66099  -0.64928
 Alpha  occ. eigenvalues --   -0.64683  -0.62086  -0.61833  -0.60275  -0.58538
 Alpha  occ. eigenvalues --   -0.56190  -0.55179  -0.53589  -0.53333  -0.53011
 Alpha  occ. eigenvalues --   -0.52773  -0.50841  -0.48903  -0.48737  -0.48694
 Alpha  occ. eigenvalues --   -0.47606  -0.46810  -0.46747  -0.44756  -0.44747
 Alpha  occ. eigenvalues --   -0.37260  -0.36279
 Alpha virt. eigenvalues --    0.05132   0.11306   0.16629   0.18917   0.22477
 Alpha virt. eigenvalues --    0.23021   0.24628   0.25549   0.26801   0.27771
 Alpha virt. eigenvalues --    0.29614   0.30354   0.30666   0.31171   0.31751

 Mulliken charges:
               1
     1  C   -0.297896
     2  C   -0.307853
     3  C   -0.475474
     4  H    0.152608
     5  H    0.154338
     6  H    0.147476
     7  H    0.151778
     8  H    0.159063
     9  H    0.158401
    10  H    0.162024
    11  C   -0.300448
    12  C   -0.300309
    13  C   -0.475836
    14  H    0.140642
    15  H    0.151784
    16  H    0.153694
    17  H    0.155593
    18  H    0.156999
    19  H    0.151852
    20  H    0.163803
    21  C   -0.175633
    22  C   -0.225694
    23  C   -0.172307
    24  C    0.158761
    25  C   -0.171170
    26  C   -0.218844
    27  H    0.228363
    28  H    0.233643
    29  H    0.275507
    30  H    0.275247
    31  H    0.223152
    32  N    0.488012
    33  O   -0.460683
    34  O   -0.460595
 Sum of Mulliken charges =  -0.00000

 Dipole moment (field-independent basis, Debye):
    X=              5.1476    Y=             -1.6070    Z=              0.9286  Tot=              5.4720
 Quadrupole moment (field-independent basis, Debye-Ang):
   XX=           -125.5074   YY=            -91.5057   ZZ=            -93.8721
   XY=              6.8361   XZ=             -4.4725   YZ=             -2.7177

 Normal termination of Gaussian 16 at Thu May  6 07:18:14 2021.
