 Gaussian 16, Revision A.03,
 Gaussian 16:  EM64L-G16RevA.03 25-Dec-2016

 -------------
 #p 6-31g* mp2
 -------------

 ------------------------------------------------------
 Input file generated by CHIRIPA (05-May-2021 14:55:21)
 ------------------------------------------------------
 Symbolic Z-matrix:
 Charge =  0 Multiplicity = 1

                         Standard orientation:
 ---------------------------------------------------------------------
 Center     Atomic      Atomic             Coordinates (Angstroms)
 Number     Number       Type             X           Y           Z
 ---------------------------------------------------------------------
      1          6           0        1.799057    1.659562    0.273228
      2          6           0        2.965922    1.951416   -0.440752
      3          6           0        3.976265    0.994043   -0.571864
      4          6           0        3.785757   -0.250527    0.026504
      5          6           0        2.634567   -0.571461    0.744176
      6          6           0        1.637388    0.401274    0.862375
      7          1           0        1.019311    2.409239    0.370063
      8          1           0        3.094198    2.927779   -0.899345
      9          1           0        4.889661    1.193380   -1.119030
     10          1           0        2.535381   -1.553611    1.190227
     11          1           0        0.732238    0.171827    1.417445
     12          7           0        4.848393   -1.272186   -0.105463
     13          8           0        4.656336   -2.361170    0.431068
     14          8           0        5.853224   -0.964634   -0.742930
     15          6           0       -4.855198   -0.606137   -0.213223
     16          6           0       -6.358467   -0.805354   -0.017070
     17          6           0       -6.810555   -2.233371   -0.323954
     18          1           0       -4.589851   -0.861839   -1.248188
     19          1           0       -4.311803   -1.310381    0.431878
     20          1           0       -6.898857   -0.099994   -0.661323
     21          1           0       -6.620298   -0.548963    1.017495
     22          1           0       -6.297624   -2.948241    0.327554
     23          1           0       -6.577766   -2.496721   -1.360803
     24          1           0       -7.888470   -2.353503   -0.177228
     25          6           0       -4.387992    0.816428    0.089695
     26          6           0       -2.884723    1.015645   -0.106459
     27          6           0       -2.432635    2.443662    0.200425
     28          1           0       -4.931388    1.520673   -0.555407
     29          1           0       -4.653340    1.072131    1.124660
     30          1           0       -2.622892    0.759254   -1.141024
     31          1           0       -2.344333    0.310285    0.537795
     32          1           0       -2.665425    2.707013    1.237275
     33          1           0       -2.945567    3.158533   -0.451083
     34          1           0       -1.354720    2.563794    0.053699
 ---------------------------------------------------------------------

 SCF Done:  E(RHF) =  -669.535475536     A.U. after   15 cycles
 E2 =    -0.2091047989D+01 EUMP2 =    -0.67162652352493D+03

 The electronic state is 1-A.
 Alpha  occ. eigenvalues --  -20.60743 -20.60738 -15.85797 -11.31162 -11.27729
 Alpha  occ. eigenvalues --  -11.27725 -11.27454 -11.26745 -11.26735 -11.22560
 Alpha  occ. eigenvalues --  -11.22247 -11.22111 -11.22059 -11.21937 -11.21433
 Alpha  occ. eigenvalues --   -1.59819  -1.39372  -1.19332  -1.09119  -1.08727
 Alpha  occ. eigenvalues --   -1.04735  -1.04250  -0.96708  -0.95563  -0.87727
 Alpha  occ. eigenvalues --   -0.86131  -0.82397  -0.80321  -0.78886  -0.77442
 Alpha  occ. eigenvalues --   -0.72015  -0.71142  -0.70467  -0.65746  -0.64985
 Alpha  occ. eigenvalues --   -0.64743  -0.62088  -0.61633  -0.60146  -0.58313
 Alpha  occ. eigenvalues --   -0.55974  -0.55285  -0.53397  -0.53128  -0.53029
 Alpha  occ. eigenvalues --   -0.52826  -0.50630  -0.48781  -0.48770  -0.48622
 Alpha  occ. eigenvalues --   -0.47343  -0.46436  -0.46334  -0.44778  -0.44497
 Alpha  occ. eigenvalues --   -0.37307  -0.36338
 Alpha virt. eigenvalues --    0.05078   0.11292   0.16524   0.19270   0.22521
 Alpha virt. eigenvalues --    0.23962   0.25173   0.26001   0.26445   0.27560
 Alpha virt. eigenvalues --    0.28612   0.29605   0.30867   0.31614   0.32136

 Mulliken charges:
               1
     1  C   -0.175170
     2  C   -0.219362
     3  C   -0.170887
     4  C    0.158552
     5  C   -0.171035
     6  C   -0.221003
     7  H    0.232243
     8  H    0.223711
     9  H    0.275476
    10  H    0.275519
    11  H    0.224765
    12  N    0.488033
    13  O   -0.460509
    14  O   -0.460481
    15  C   -0.298769
    16  C   -0.300198
    17  C   -0.476113
    18  H    0.151317
    19  H    0.149447
    20  H    0.152739
    21  H    0.152352
    22  H    0.155767
    23  H    0.156157
    24  H    0.161689
    25  C   -0.299161
    26  C   -0.299211
    27  C   -0.480289
    28  H    0.151667
    29  H    0.150480
    30  H    0.156122
    31  H    0.147087
    32  H    0.157564
    33  H    0.160953
    34  H    0.150550
 Sum of Mulliken charges =  -0.00000

 Dipole moment (field-independent basis, Debye):
    X=             -3.9616    Y=              3.5798    Z=              0.4216  Tot=              5.3560
 Quadrupole moment (field-independent basis, Debye-Ang):
   XX=           -121.4218   YY=            -95.8039   ZZ=            -92.9715
   XY=             16.1632   XZ=              0.1365   YZ=             -2.5288

 Normal termination of Gaussian 16 at Thu May  6 03:00:47 2021.
