 Gaussian 16, Revision A.03,
 Gaussian 16:  EM64L-G16RevA.03 25-Dec-2016

 -------------
 #p 6-31g* mp2
 -------------

 ------------------------------------------------------
 Input file generated by CHIRIPA (05-May-2021 14:51:13)
 ------------------------------------------------------
 Symbolic Z-matrix:
 Charge =  0 Multiplicity = 1

                         Standard orientation:
 ---------------------------------------------------------------------
 Center     Atomic      Atomic             Coordinates (Angstroms)
 Number     Number       Type             X           Y           Z
 ---------------------------------------------------------------------
      1          6           0        3.916263   -0.448559   -0.396740
      2          6           0        5.261234    0.023545    0.156574
      3          6           0        6.325394    0.180085   -0.930096
      4          1           0        4.056381   -1.406799   -0.915478
      5          1           0        3.566848    0.268048   -1.152900
      6          1           0        5.607344   -0.693016    0.912460
      7          1           0        5.117863    0.980678    0.674221
      8          1           0        6.005334    0.910320   -1.680375
      9          1           0        6.497596   -0.772883   -1.440782
     10          1           0        7.278847    0.518364   -0.512538
     11          6           0        2.842172   -0.609767    0.677536
     12          6           0        1.497201   -1.081872    0.124223
     13          6           0        0.433041   -1.238411    1.210892
     14          1           0        3.191587   -1.326374    1.433696
     15          1           0        2.702054    0.348472    1.196275
     16          1           0        1.640572   -2.039004   -0.393424
     17          1           0        1.151091   -0.365311   -0.631664
     18          1           0        0.260839   -0.285444    1.721578
     19          1           0        0.753101   -1.968647    1.961171
     20          1           0       -0.520412   -1.576691    0.793335
     21          6           0       -2.703612    0.829046   -0.332905
     22          6           0       -2.362601    2.102499    0.441700
     23          6           0       -1.007995    2.690576    0.045466
     24          1           0       -1.915003    0.082894   -0.164682
     25          1           0       -2.699738    1.050718   -1.409122
     26          1           0       -2.368475    1.878815    1.516198
     27          1           0       -3.152210    2.845639    0.271766
     28          1           0       -0.993829    2.941610   -1.020077
     29          1           0       -0.205642    1.969294    0.231426
     30          1           0       -0.784264    3.600296    0.611342
     31          6           0       -4.054823    0.229280    0.052109
     32          6           0       -4.395834   -1.044173   -0.722496
     33          6           0       -5.750440   -1.632249   -0.326263
     34          1           0       -4.058697    0.007609    1.128325
     35          1           0       -4.843432    0.975433   -0.116114
     36          1           0       -3.606225   -1.787312   -0.552562
     37          1           0       -4.389960   -0.820489   -1.796995
     38          1           0       -6.552793   -0.910967   -0.512222
     39          1           0       -5.764606   -1.883284    0.739281
     40          1           0       -5.974171   -2.541969   -0.892138
 ---------------------------------------------------------------------

 SCF Done:  E(RHF) =  -470.732849404     A.U. after   11 cycles
 E2 =    -0.1583815348D+01 EUMP2 =    -0.47231666475214D+03

 The electronic state is 1-A.
 Alpha  occ. eigenvalues --  -11.21664 -11.21610 -11.21597 -11.21580 -11.21439
 Alpha  occ. eigenvalues --  -11.21373 -11.21352 -11.21264 -11.21168 -11.21085
 Alpha  occ. eigenvalues --  -11.21074 -11.21060  -1.08477  -1.08391  -1.03599
 Alpha  occ. eigenvalues --   -1.03498  -0.96036  -0.95963  -0.87065  -0.86969
 Alpha  occ. eigenvalues --   -0.79639  -0.79579  -0.78276  -0.78214  -0.65224
 Alpha  occ. eigenvalues --   -0.64948  -0.61183  -0.60723  -0.59433  -0.59310
 Alpha  occ. eigenvalues --   -0.57700  -0.57530  -0.55339  -0.55233  -0.52772
 Alpha  occ. eigenvalues --   -0.52660  -0.52501  -0.52318  -0.49995  -0.49883
 Alpha  occ. eigenvalues --   -0.47977  -0.47863  -0.46667  -0.46607  -0.45835
 Alpha  occ. eigenvalues --   -0.45759  -0.45703  -0.45629  -0.43801  -0.43753
 Alpha virt. eigenvalues --    0.19784   0.22600   0.23685   0.24607   0.26048
 Alpha virt. eigenvalues --    0.26388   0.26885   0.27561   0.28268   0.29392
 Alpha virt. eigenvalues --    0.30779   0.31064   0.31786   0.32075   0.32342

 Mulliken charges:
               1
     1  C   -0.298367
     2  C   -0.299736
     3  C   -0.475755
     4  H    0.149689
     5  H    0.150049
     6  H    0.151873
     7  H    0.152172
     8  H    0.155359
     9  H    0.155155
    10  H    0.160303
    11  C   -0.298922
    12  C   -0.303460
    13  C   -0.480847
    14  H    0.149809
    15  H    0.149996
    16  H    0.152678
    17  H    0.155018
    18  H    0.156741
    19  H    0.156525
    20  H    0.161782
    21  C   -0.307458
    22  C   -0.298831
    23  C   -0.480963
    24  H    0.160961
    25  H    0.148648
    26  H    0.151754
    27  H    0.151913
    28  H    0.155119
    29  H    0.159315
    30  H    0.160089
    31  C   -0.297973
    32  C   -0.299970
    33  C   -0.475677
    34  H    0.149599
    35  H    0.149474
    36  H    0.151189
    37  H    0.152030
    38  H    0.155254
    39  H    0.155299
    40  H    0.160164
 Sum of Mulliken charges =  -0.00000

 Dipole moment (field-independent basis, Debye):
    X=              0.0332    Y=             -0.0202    Z=              0.0045  Tot=              0.0391
 Quadrupole moment (field-independent basis, Debye-Ang):
   XX=            -86.2068   YY=            -83.8916   ZZ=            -84.7322
   XY=             -1.1787   XZ=              1.0948   YZ=             -0.3450

 Normal termination of Gaussian 16 at Wed May  5 16:51:59 2021.
