 Gaussian 16, Revision A.03,
 Gaussian 16:  EM64L-G16RevA.03 25-Dec-2016

 -------------
 #p 6-31g* mp2
 -------------

 ------------------------------------------------------
 Input file generated by CHIRIPA (05-May-2021 14:57:26)
 ------------------------------------------------------
 Symbolic Z-matrix:
 Charge =  0 Multiplicity = 1

                         Standard orientation:
 ---------------------------------------------------------------------
 Center     Atomic      Atomic             Coordinates (Angstroms)
 Number     Number       Type             X           Y           Z
 ---------------------------------------------------------------------
      1          6           0       -2.982768    2.424816    0.186111
      2          6           0       -4.295162    2.174849    0.600428
      3          6           0       -4.862323    0.907586    0.436350
      4          6           0       -4.085053   -0.091002   -0.148426
      5          6           0       -2.774766    0.126949   -0.571435
      6          6           0       -2.228089    1.401872   -0.397469
      7          1           0       -2.550140    3.412231    0.317412
      8          1           0       -4.883602    2.967375    1.053953
      9          1           0       -5.875938    0.686630    0.748087
     10          1           0       -2.212900   -0.683154   -1.020276
     11          1           0       -1.208615    1.593123   -0.720178
     12          7           0       -4.674638   -1.436652   -0.327362
     13          8           0       -3.968993   -2.299462   -0.845300
     14          8           0       -5.831236   -1.603081    0.053714
     15          6           0        6.340124    0.133138   -0.754696
     16          6           0        5.251886    0.505725   -1.550584
     17          6           0        3.944227    0.363911   -1.076806
     18          6           0        3.760476   -0.156291    0.203395
     19          6           0        4.824130   -0.536538    1.020305
     20          6           0        6.123155   -0.385890    0.525951
     21          1           0        7.352591    0.246733   -1.130730
     22          1           0        5.417389    0.909093   -2.545545
     23          1           0        3.083586    0.644388   -1.671826
     24          1           0        4.627553   -0.935632    2.007979
     25          1           0        6.966391   -0.676081    1.146263
     26          7           0        2.380686   -0.311099    0.715854
     27          8           0        2.245476   -0.771934    1.847219
     28          8           0        1.460543    0.031329   -0.023549
 ---------------------------------------------------------------------

 SCF Done:  E(RHF) =  -868.339377533     A.U. after   16 cycles
 E2 =    -0.2598431142D+01 EUMP2 =    -0.87093780867477D+03

 The electronic state is 1-A.
 Alpha  occ. eigenvalues --  -20.61493 -20.61424 -20.59884 -20.59870 -15.86508
 Alpha  occ. eigenvalues --  -15.84925 -11.31698 -11.30132 -11.28271 -11.28221
 Alpha  occ. eigenvalues --  -11.27945 -11.27227 -11.27200 -11.26737 -11.26571
 Alpha  occ. eigenvalues --  -11.26421 -11.25767 -11.25520  -1.60520  -1.58957
 Alpha  occ. eigenvalues --   -1.40084  -1.38514  -1.19851  -1.18285  -1.09274
 Alpha  occ. eigenvalues --   -1.07726  -1.05230  -1.03640  -0.96141  -0.94586
 Alpha  occ. eigenvalues --   -0.86636  -0.85064  -0.82987  -0.81403  -0.78054
 Alpha  occ. eigenvalues --   -0.76462  -0.72742  -0.71828  -0.71152  -0.70957
 Alpha  occ. eigenvalues --   -0.70274  -0.69426  -0.65510  -0.65229  -0.63936
 Alpha  occ. eigenvalues --   -0.63635  -0.62583  -0.60977  -0.55729  -0.54207
 Alpha  occ. eigenvalues --   -0.53565  -0.53320  -0.52008  -0.51723  -0.49496
 Alpha  occ. eigenvalues --   -0.49450  -0.47911  -0.47893  -0.45526  -0.43954
 Alpha  occ. eigenvalues --   -0.37816  -0.36825  -0.36294  -0.35223
 Alpha virt. eigenvalues --    0.04471   0.06037   0.10832   0.12411   0.15996
 Alpha virt. eigenvalues --    0.17563   0.20956   0.22493   0.26891   0.27621
 Alpha virt. eigenvalues --    0.28590   0.29303   0.30556   0.31774   0.32362

 Mulliken charges:
               1
     1  C   -0.172258
     2  C   -0.218713
     3  C   -0.172855
     4  C    0.157556
     5  C   -0.168966
     6  C   -0.216412
     7  H    0.221636
     8  H    0.219040
     9  H    0.271981
    10  H    0.278963
    11  H    0.235106
    12  N    0.488228
    13  O   -0.460711
    14  O   -0.464186
    15  C   -0.170129
    16  C   -0.218299
    17  C   -0.170591
    18  C    0.158221
    19  C   -0.170297
    20  C   -0.218398
    21  H    0.227394
    22  H    0.224488
    23  H    0.272257
    24  H    0.277058
    25  H    0.225362
    26  N    0.491772
    27  O   -0.454392
    28  O   -0.472858
 Sum of Mulliken charges =  -0.00000

 Dipole moment (field-independent basis, Debye):
    X=              7.4665    Y=              5.2113    Z=             -1.1466  Tot=              9.1772
 Quadrupole moment (field-independent basis, Debye-Ang):
   XX=            -82.0991   YY=           -106.3242   ZZ=           -101.9949
   XY=            -20.5640   XZ=             -8.8607   YZ=             -1.5941

 Normal termination of Gaussian 16 at Wed May  5 16:29:24 2021.
