 Gaussian 16, Revision A.03,
 Gaussian 16:  EM64L-G16RevA.03 25-Dec-2016

 -------------
 #p 6-31g* mp2
 -------------

 ------------------------------------------------------
 Input file generated by CHIRIPA (05-May-2021 14:53:14)
 ------------------------------------------------------
 Symbolic Z-matrix:
 Charge =  0 Multiplicity = 1

                         Standard orientation:
 ---------------------------------------------------------------------
 Center     Atomic      Atomic             Coordinates (Angstroms)
 Number     Number       Type             X           Y           Z
 ---------------------------------------------------------------------
      1          6           0       -3.647745   -0.140962    0.303405
      2          6           0       -3.083334   -1.455169    0.844040
      3          6           0       -4.171888   -2.402761    1.348928
      4          1           0       -4.228905    0.353760    1.093625
      5          1           0       -4.351461   -0.359932   -0.511599
      6          1           0       -2.379845   -1.233713    1.656860
      7          1           0       -2.503290   -1.946727    0.052499
      8          1           0       -4.869252   -2.652751    0.542834
      9          1           0       -4.745105   -1.935686    2.156310
     10          1           0       -3.746286   -3.335936    1.730905
     11          6           0       -2.571725    0.816835   -0.205055
     12          6           0       -3.136136    2.131042   -0.745689
     13          6           0       -2.047582    3.078634   -1.250578
     14          1           0       -1.868009    1.035805    0.609950
     15          1           0       -1.990565    0.322113   -0.995275
     16          1           0       -3.716180    2.622600    0.045851
     17          1           0       -3.839625    1.909586   -1.558510
     18          1           0       -1.474365    2.611560   -2.057960
     19          1           0       -1.350218    3.328624   -0.444483
     20          1           0       -2.473184    4.011809   -1.632555
     21          6           0        3.547642    1.461596    1.423743
     22          6           0        4.315962    0.487018    0.778450
     23          6           0        3.707094   -0.474029   -0.034086
     24          6           0        2.321381   -0.430838   -0.179775
     25          6           0        1.528634    0.527451    0.449928
     26          6           0        2.158878    1.478672    1.257714
     27          1           0        4.028928    2.204343    2.053095
     28          1           0        5.394684    0.471336    0.905564
     29          1           0        4.277858   -1.239727   -0.545314
     30          1           0        0.455312    0.517572    0.303986
     31          1           0        1.559670    2.234367    1.757635
     32          7           0        1.665484   -1.443054   -1.037456
     33          8           0        0.442980   -1.383465   -1.149575
     34          8           0        2.386315   -2.276854   -1.581348
 ---------------------------------------------------------------------

 SCF Done:  E(RHF) =  -669.535932556     A.U. after   15 cycles
 E2 =    -0.2092846542D+01 EUMP2 =    -0.67162877909806D+03

 The electronic state is 1-A.
 Alpha  occ. eigenvalues --  -20.60852 -20.60840 -15.85886 -11.31156 -11.27745
 Alpha  occ. eigenvalues --  -11.27656 -11.27483 -11.26745 -11.26723 -11.21558
 Alpha  occ. eigenvalues --  -11.21226 -11.21199 -11.21064 -11.20976 -11.20598
 Alpha  occ. eigenvalues --   -1.59912  -1.39468  -1.19335  -1.08753  -1.08188
 Alpha  occ. eigenvalues --   -1.04727  -1.03279  -0.95774  -0.95594  -0.86789
 Alpha  occ. eigenvalues --   -0.86131  -0.82436  -0.79360  -0.78092  -0.77383
 Alpha  occ. eigenvalues --   -0.72110  -0.71224  -0.70453  -0.65022  -0.64813
 Alpha  occ. eigenvalues --   -0.64709  -0.62084  -0.60668  -0.59145  -0.57362
 Alpha  occ. eigenvalues --   -0.55256  -0.55060  -0.53065  -0.52864  -0.52443
 Alpha  occ. eigenvalues --   -0.52169  -0.49725  -0.48879  -0.48863  -0.47663
 Alpha  occ. eigenvalues --   -0.46380  -0.45538  -0.45315  -0.44874  -0.43537
 Alpha  occ. eigenvalues --   -0.37325  -0.36326
 Alpha virt. eigenvalues --    0.05016   0.11314   0.16507   0.20408   0.23261
 Alpha virt. eigenvalues --    0.24313   0.25587   0.26928   0.27705   0.28275
 Alpha virt. eigenvalues --    0.29713   0.30775   0.31759   0.31960   0.32382

 Mulliken charges:
               1
     1  C   -0.296714
     2  C   -0.304298
     3  C   -0.475720
     4  H    0.145658
     5  H    0.151233
     6  H    0.145027
     7  H    0.172446
     8  H    0.155332
     9  H    0.151318
    10  H    0.160860
    11  C   -0.310616
    12  C   -0.298279
    13  C   -0.476247
    14  H    0.133516
    15  H    0.174858
    16  H    0.149854
    17  H    0.155104
    18  H    0.159999
    19  H    0.145224
    20  H    0.161247
    21  C   -0.170124
    22  C   -0.219445
    23  C   -0.169742
    24  C    0.155387
    25  C   -0.178810
    26  C   -0.223181
    27  H    0.225521
    28  H    0.223289
    29  H    0.275318
    30  H    0.292999
    31  H    0.223158
    32  N    0.490880
    33  O   -0.465363
    34  O   -0.459688
 Sum of Mulliken charges =  -0.00000

 Dipole moment (field-independent basis, Debye):
    X=              2.3084    Y=              3.4020    Z=              2.8153  Tot=              4.9828
 Quadrupole moment (field-independent basis, Debye-Ang):
   XX=            -80.7056   YY=            -98.2618   ZZ=            -95.7523
   XY=              5.0445   XZ=              6.6510   YZ=             -0.6792

 Normal termination of Gaussian 16 at Thu May  6 08:58:27 2021.
