 Gaussian 16, Revision A.03,
 Gaussian 16:  EM64L-G16RevA.03 25-Dec-2016

 -------------
 #p 6-31g* mp2
 -------------

 ------------------------------------------------------
 Input file generated by CHIRIPA (05-May-2021 14:51:07)
 ------------------------------------------------------
 Symbolic Z-matrix:
 Charge =  0 Multiplicity = 1

                         Standard orientation:
 ---------------------------------------------------------------------
 Center     Atomic      Atomic             Coordinates (Angstroms)
 Number     Number       Type             X           Y           Z
 ---------------------------------------------------------------------
      1          6           0        3.657689    0.259003   -0.674520
      2          6           0        4.560260   -0.867007   -0.169097
      3          6           0        5.431603   -1.466845   -1.273067
      4          1           0        3.017723   -0.126263   -1.480099
      5          1           0        4.280703    1.046909   -1.120001
      6          1           0        3.935818   -1.651924    0.276542
      7          1           0        5.198018   -0.479065    0.635504
      8          1           0        6.078560   -0.700613   -1.712312
      9          1           0        4.809189   -1.880137   -2.073313
     10          1           0        6.068827   -2.269909   -0.889801
     11          6           0        2.780540    0.868740    0.417523
     12          6           0        1.877969    1.994750   -0.087901
     13          6           0        1.006626    2.594587    1.016070
     14          1           0        2.157526    0.080834    0.863003
     15          1           0        3.420506    1.254006    1.223102
     16          1           0        1.240211    1.606807   -0.892501
     17          1           0        2.502410    2.779667   -0.533539
     18          1           0        1.629040    3.007879    1.816315
     19          1           0        0.359669    1.828355    1.455314
     20          1           0        0.369402    3.397652    0.632804
     21          6           0       -2.497240   -0.456160    0.353726
     22          6           0       -1.896938   -1.668718    1.065993
     23          6           0       -0.452336   -1.437855    1.510541
     24          1           0       -1.878481   -0.208460   -0.519616
     25          1           0       -2.453497    0.413100    1.024451
     26          1           0       -1.943062   -2.535758    0.394629
     27          1           0       -2.517306   -1.913677    1.937632
     28          1           0       -0.392413   -0.589879    2.200430
     29          1           0        0.185094   -1.215495    0.648659
     30          1           0       -0.042881   -2.317204    2.017445
     31          6           0       -3.940988   -0.671583   -0.096729
     32          6           0       -4.541291    0.540976   -0.808996
     33          6           0       -5.985893    0.310112   -1.253544
     34          1           0       -3.984732   -1.540841   -0.767453
     35          1           0       -4.559748   -0.919282    0.776614
     36          1           0       -3.920923    0.785934   -1.680635
     37          1           0       -4.495167    1.408015   -0.137632
     38          1           0       -6.623322    0.087752   -0.391662
     39          1           0       -6.045815   -0.537864   -1.943433
     40          1           0       -6.395348    1.189461   -1.760448
 ---------------------------------------------------------------------

 SCF Done:  E(RHF) =  -470.732840216     A.U. after   11 cycles
 E2 =    -0.1583705547D+01 EUMP2 =    -0.47231654576261D+03

 The electronic state is 1-A.
 Alpha  occ. eigenvalues --  -11.21684 -11.21628 -11.21555 -11.21527 -11.21461
 Alpha  occ. eigenvalues --  -11.21398 -11.21328 -11.21218 -11.21185 -11.21091
 Alpha  occ. eigenvalues --  -11.21040 -11.20972  -1.08492  -1.08355  -1.03604
 Alpha  occ. eigenvalues --   -1.03457  -0.96053  -0.95911  -0.87079  -0.86926
 Alpha  occ. eigenvalues --   -0.79700  -0.79505  -0.78322  -0.78139  -0.65141
 Alpha  occ. eigenvalues --   -0.64991  -0.60998  -0.60886  -0.59414  -0.59277
 Alpha  occ. eigenvalues --   -0.57652  -0.57525  -0.55448  -0.55108  -0.52750
 Alpha  occ. eigenvalues --   -0.52618  -0.52498  -0.52330  -0.50097  -0.49754
 Alpha  occ. eigenvalues --   -0.48146  -0.47763  -0.46697  -0.46546  -0.45970
 Alpha  occ. eigenvalues --   -0.45749  -0.45686  -0.45356  -0.43845  -0.43712
 Alpha virt. eigenvalues --    0.20547   0.22975   0.23453   0.25081   0.25557
 Alpha virt. eigenvalues --    0.25915   0.26898   0.27795   0.28174   0.29367
 Alpha virt. eigenvalues --    0.30776   0.31472   0.31774   0.31829   0.32115

 Mulliken charges:
               1
     1  C   -0.298054
     2  C   -0.299614
     3  C   -0.475610
     4  H    0.148406
     5  H    0.149354
     6  H    0.151996
     7  H    0.151969
     8  H    0.155111
     9  H    0.154880
    10  H    0.160104
    11  C   -0.306846
    12  C   -0.298860
    13  C   -0.480233
    14  H    0.159715
    15  H    0.149129
    16  H    0.150831
    17  H    0.151611
    18  H    0.154465
    19  H    0.160105
    20  H    0.159695
    21  C   -0.299456
    22  C   -0.300201
    23  C   -0.481164
    24  H    0.149634
    25  H    0.150819
    26  H    0.152140
    27  H    0.152375
    28  H    0.158072
    29  H    0.157912
    30  H    0.161009
    31  C   -0.298369
    32  C   -0.299707
    33  C   -0.475757
    34  H    0.149609
    35  H    0.149844
    36  H    0.151987
    37  H    0.152277
    38  H    0.155239
    39  H    0.155174
    40  H    0.160409
 Sum of Mulliken charges =  -0.00000

 Dipole moment (field-independent basis, Debye):
    X=             -0.0544    Y=             -0.0372    Z=              0.0326  Tot=              0.0735
 Quadrupole moment (field-independent basis, Debye-Ang):
   XX=            -85.7779   YY=            -84.5619   ZZ=            -84.5333
   XY=              0.6920   XZ=             -0.0378   YZ=              0.0668

 Normal termination of Gaussian 16 at Wed May  5 22:53:38 2021.
