 Gaussian 16, Revision A.03,
 Gaussian 16:  EM64L-G16RevA.03 25-Dec-2016

 -------------
 #p 6-31g* mp2
 -------------

 ------------------------------------------------------
 Input file generated by CHIRIPA (05-May-2021 14:53:15)
 ------------------------------------------------------
 Symbolic Z-matrix:
 Charge =  0 Multiplicity = 1

                         Standard orientation:
 ---------------------------------------------------------------------
 Center     Atomic      Atomic             Coordinates (Angstroms)
 Number     Number       Type             X           Y           Z
 ---------------------------------------------------------------------
      1          6           0        5.478561    0.485989   -0.167299
      2          6           0        6.899021    0.346446    0.381157
      3          6           0        7.836403    1.446091   -0.118733
      4          1           0        5.512980    0.469335   -1.265244
      5          1           0        5.077705    1.468496    0.117990
      6          1           0        7.296568   -0.636057    0.096097
      7          1           0        6.861196    0.363241    1.477926
      8          1           0        7.465987    2.432558    0.178376
      9          1           0        7.903833    1.427582   -1.211305
     10          1           0        8.846468    1.327077    0.285574
     11          6           0        4.529675   -0.606031    0.323452
     12          6           0        3.109214   -0.466488   -0.225004
     13          6           0        2.171832   -1.566133    0.274886
     14          1           0        4.930530   -1.588538    0.038163
     15          1           0        4.495255   -0.589377    1.421397
     16          1           0        3.147039   -0.483283   -1.321774
     17          1           0        2.711667    0.516015    0.060056
     18          1           0        2.104402   -1.547624    1.367457
     19          1           0        2.542248   -2.552600   -0.022224
     20          1           0        1.161767   -1.447119   -0.129421
     21          6           0       -5.765809    1.718604    0.292971
     22          6           0       -6.009896    0.353056    0.472480
     23          6           0       -4.988846   -0.582150    0.279104
     24          6           0       -3.730002   -0.114724   -0.095218
     25          6           0       -3.455586    1.239220   -0.281828
     26          6           0       -4.491680    2.156555   -0.082947
     27          1           0       -6.564828    2.438154    0.445329
     28          1           0       -6.998420    0.010063    0.764403
     29          1           0       -5.150255   -1.645121    0.411225
     30          1           0       -2.459842    1.550838   -0.573040
     31          1           0       -4.299231    3.216448   -0.223074
     32          7           0       -2.641100   -1.095325   -0.302850
     33          8           0       -1.540782   -0.657945   -0.632450
     34          8           0       -2.908554   -2.282732   -0.132061
 ---------------------------------------------------------------------

 SCF Done:  E(RHF) =  -669.536357288     A.U. after   15 cycles
 E2 =    -0.2090740322D+01 EUMP2 =    -0.67162709760956D+03

 The electronic state is 1-A.
 Alpha  occ. eigenvalues --  -20.60985 -20.60969 -15.86006 -11.31311 -11.27870
 Alpha  occ. eigenvalues --  -11.27867 -11.27606 -11.26874 -11.26865 -11.21103
 Alpha  occ. eigenvalues --  -11.20756 -11.20676 -11.20556 -11.20484 -11.19461
 Alpha  occ. eigenvalues --   -1.60033  -1.39590  -1.19476  -1.08884  -1.07668
 Alpha  occ. eigenvalues --   -1.04870  -1.02670  -0.95730  -0.95093  -0.86272
 Alpha  occ. eigenvalues --   -0.86108  -0.82563  -0.78773  -0.77617  -0.77452
 Alpha  occ. eigenvalues --   -0.72231  -0.71344  -0.70585  -0.65133  -0.64873
 Alpha  occ. eigenvalues --   -0.64315  -0.62217  -0.60087  -0.58506  -0.56672
 Alpha  occ. eigenvalues --   -0.55375  -0.54412  -0.53203  -0.52962  -0.51731
 Alpha  occ. eigenvalues --   -0.51526  -0.49080  -0.48979  -0.48958  -0.47049
 Alpha  occ. eigenvalues --   -0.45848  -0.45015  -0.44976  -0.44918  -0.42873
 Alpha  occ. eigenvalues --   -0.37454  -0.36470
 Alpha virt. eigenvalues --    0.04906   0.11185   0.16402   0.21318   0.23557
 Alpha virt. eigenvalues --    0.25246   0.27240   0.27348   0.28131   0.28242
 Alpha virt. eigenvalues --    0.28994   0.30882   0.32194   0.32385   0.32467

 Mulliken charges:
               1
     1  C   -0.297300
     2  C   -0.298974
     3  C   -0.475203
     4  H    0.148689
     5  H    0.147299
     6  H    0.151567
     7  H    0.150941
     8  H    0.153911
     9  H    0.154592
    10  H    0.158717
    11  C   -0.297145
    12  C   -0.297872
    13  C   -0.488437
    14  H    0.148390
    15  H    0.147445
    16  H    0.150305
    17  H    0.147938
    18  H    0.148100
    19  H    0.149982
    20  H    0.192137
    21  C   -0.170536
    22  C   -0.218618
    23  C   -0.170465
    24  C    0.157673
    25  C   -0.170774
    26  C   -0.218569
    27  H    0.226051
    28  H    0.223879
    29  H    0.275964
    30  H    0.275919
    31  H    0.223903
    32  N    0.490866
    33  O   -0.462044
    34  O   -0.458331
 Sum of Mulliken charges =  -0.00000

 Dipole moment (field-independent basis, Debye):
    X=             -4.2307    Y=              3.4238    Z=              0.6837  Tot=              5.4853
 Quadrupole moment (field-independent basis, Debye-Ang):
   XX=            -66.2608   YY=            -93.2580   ZZ=            -95.0405
   XY=            -10.7549   XZ=             -3.4290   YZ=             -0.6486

 Normal termination of Gaussian 16 at Wed May  5 23:28:43 2021.
