 Gaussian 16, Revision A.03,
 Gaussian 16:  EM64L-G16RevA.03 25-Dec-2016

 -------------
 #p 6-31g* mp2
 -------------

 ------------------------------------------------------
 Input file generated by CHIRIPA (05-May-2021 14:57:23)
 ------------------------------------------------------
 Symbolic Z-matrix:
 Charge =  0 Multiplicity = 1

                         Standard orientation:
 ---------------------------------------------------------------------
 Center     Atomic      Atomic             Coordinates (Angstroms)
 Number     Number       Type             X           Y           Z
 ---------------------------------------------------------------------
      1          6           0       -1.623575   -2.513254   -0.001285
      2          6           0       -1.150093   -1.674903   -1.015930
      3          6           0       -1.607382   -0.357852   -1.119907
      4          6           0       -2.542513    0.090002   -0.188109
      5          6           0       -3.033285   -0.720965    0.834029
      6          6           0       -2.562005   -2.034453    0.918834
      7          1           0       -1.262908   -3.534987    0.072040
      8          1           0       -0.421282   -2.044047   -1.731900
      9          1           0       -1.257620    0.312615   -1.895509
     10          1           0       -3.759655   -0.324539    1.533065
     11          1           0       -2.931478   -2.683279    1.707858
     12          7           0       -3.034030    1.482419   -0.288037
     13          8           0       -3.858004    1.852964    0.545270
     14          8           0       -2.586000    2.176885   -1.197775
     15          6           0        2.616523    2.639984    0.470637
     16          6           0        2.098002    1.843125    1.496636
     17          6           0        2.007397    0.456614    1.341954
     18          6           0        2.446518   -0.102254    0.142734
     19          6           0        2.967846    0.664905   -0.897927
     20          6           0        3.049027    2.049372   -0.721268
     21          1           0        2.683247    3.716265    0.599333
     22          1           0        1.761355    2.299067    2.423367
     23          1           0        1.610134   -0.183910    2.119983
     24          1           0        3.295436    0.181578   -1.810340
     25          1           0        3.452153    2.665747   -1.519777
     26          7           0        2.355587   -1.569008   -0.032653
     27          8           0        2.749205   -2.037039   -1.098791
     28          8           0        1.892419   -2.222848    0.899338
 ---------------------------------------------------------------------

 SCF Done:  E(RHF) =  -868.340530272     A.U. after   16 cycles
 E2 =    -0.2600785734D+01 EUMP2 =    -0.87094131600616D+03

 The electronic state is 1-A.
 Alpha  occ. eigenvalues --  -20.61475 -20.61448 -20.60624 -20.60619 -15.86462
 Alpha  occ. eigenvalues --  -15.85672 -11.31492 -11.30792 -11.28037 -11.28001
 Alpha  occ. eigenvalues --  -11.27657 -11.27388 -11.27355 -11.26947 -11.26917
 Alpha  occ. eigenvalues --  -11.26904 -11.26258 -11.26144  -1.60529  -1.59709
 Alpha  occ. eigenvalues --   -1.40090  -1.39268  -1.19626  -1.18942  -1.09076
 Alpha  occ. eigenvalues --   -1.08333  -1.04978  -1.04319  -0.95973  -0.95216
 Alpha  occ. eigenvalues --   -0.86387  -0.85696  -0.82824  -0.82073  -0.77917
 Alpha  occ. eigenvalues --   -0.77186  -0.72711  -0.71916  -0.71832  -0.71034
 Alpha  occ. eigenvalues --   -0.70715  -0.69952  -0.65278  -0.64970  -0.64569
 Alpha  occ. eigenvalues --   -0.64261  -0.62335  -0.61664  -0.55465  -0.54688
 Alpha  occ. eigenvalues --   -0.53339  -0.53062  -0.52636  -0.52369  -0.49485
 Alpha  occ. eigenvalues --   -0.49442  -0.48663  -0.48625  -0.45573  -0.44730
 Alpha  occ. eigenvalues --   -0.37591  -0.36802  -0.36558  -0.35920
 Alpha virt. eigenvalues --    0.04488   0.05428   0.11091   0.11713   0.16132
 Alpha virt. eigenvalues --    0.16951   0.21278   0.22084   0.27193   0.27779
 Alpha virt. eigenvalues --    0.28227   0.28976   0.30879   0.31684   0.32336

 Mulliken charges:
               1
     1  C   -0.158516
     2  C   -0.231608
     3  C   -0.173121
     4  C    0.156147
     5  C   -0.173277
     6  C   -0.221627
     7  H    0.235567
     8  H    0.234985
     9  H    0.272462
    10  H    0.272698
    11  H    0.222714
    12  N    0.488111
    13  O   -0.463165
    14  O   -0.463651
    15  C   -0.167334
    16  C   -0.217971
    17  C   -0.169202
    18  C    0.157312
    19  C   -0.174264
    20  C   -0.217518
    21  H    0.229644
    22  H    0.226464
    23  H    0.274961
    24  H    0.273746
    25  H    0.225485
    26  N    0.488198
    27  O   -0.465813
    28  O   -0.461428
 Sum of Mulliken charges =  -0.00000

 Dipole moment (field-independent basis, Debye):
    X=              2.2398    Y=              0.2038    Z=              1.0597  Tot=              2.4862
 Quadrupole moment (field-independent basis, Debye-Ang):
   XX=           -111.4531   YY=           -106.9036   ZZ=            -97.8115
   XY=             27.0496   XZ=             -4.3024   YZ=              0.6155

 Normal termination of Gaussian 16 at Fri May  7 03:21:21 2021.
