 Gaussian 16, Revision A.03,
 Gaussian 16:  EM64L-G16RevA.03 25-Dec-2016

 -------------
 #p 6-31g* mp2
 -------------

 ------------------------------------------------------
 Input file generated by CHIRIPA (05-May-2021 14:51:11)
 ------------------------------------------------------
 Symbolic Z-matrix:
 Charge =  0 Multiplicity = 1

                         Standard orientation:
 ---------------------------------------------------------------------
 Center     Atomic      Atomic             Coordinates (Angstroms)
 Number     Number       Type             X           Y           Z
 ---------------------------------------------------------------------
      1          6           0       -3.356206   -0.102485   -0.165577
      2          6           0       -3.608720   -1.563961    0.206323
      3          6           0       -4.862104   -1.748030    1.062442
      4          1           0       -3.264922    0.492581    0.753394
      5          1           0       -4.230387    0.287636   -0.705029
      6          1           0       -2.733754   -1.951616    0.743701
      7          1           0       -3.699222   -2.155650   -0.713639
      8          1           0       -5.748422   -1.387580    0.530356
      9          1           0       -4.777469   -1.182387    1.995977
     10          1           0       -5.023617   -2.800217    1.316754
     11          6           0       -2.106700    0.097672   -1.021381
     12          6           0       -1.854187    1.559149   -1.393281
     13          6           0       -0.600803    1.743217   -2.249401
     14          1           0       -1.232519   -0.292449   -0.481929
     15          1           0       -2.197984   -0.497394   -1.940352
     16          1           0       -1.763684    2.150837   -0.473319
     17          1           0       -2.729152    1.946803   -1.930660
     18          1           0       -0.685438    1.177574   -3.182935
     19          1           0        0.285516    1.382767   -1.717314
     20          1           0       -0.439289    2.795405   -2.503712
     21          6           0        2.459887    0.698944    0.750065
     22          6           0        1.361221    0.696469    1.813509
     23          6           0        0.828031    2.097207    2.115893
     24          1           0        3.284771    1.342276    1.085676
     25          1           0        2.067135    1.149709   -0.171863
     26          1           0        1.755511    0.244582    2.732722
     27          1           0        0.538941    0.052915    1.475414
     28          1           0        0.408974    2.553103    1.213036
     29          1           0        1.632456    2.745859    2.477487
     30          1           0        0.043604    2.072162    2.878722
     31          6           0        3.003019   -0.694131    0.436893
     32          6           0        4.101685   -0.691657   -0.626551
     33          6           0        4.634875   -2.092394   -0.928935
     34          1           0        3.395771   -1.144897    1.358821
     35          1           0        2.178136   -1.337464    0.101282
     36          1           0        4.923966   -0.048103   -0.288456
     37          1           0        3.707396   -0.239770   -1.545764
     38          1           0        3.830450   -2.741046   -1.290529
     39          1           0        5.053932   -2.548290   -0.026077
     40          1           0        5.419302   -2.067349   -1.691764
 ---------------------------------------------------------------------

 SCF Done:  E(RHF) =  -470.733075067     A.U. after   11 cycles
 E2 =    -0.1584303237D+01 EUMP2 =    -0.47231737830386D+03

 The electronic state is 1-A.
 Alpha  occ. eigenvalues --  -11.21668 -11.21647 -11.21628 -11.21613 -11.21446
 Alpha  occ. eigenvalues --  -11.21440 -11.21383 -11.21380 -11.21128 -11.21127
 Alpha  occ. eigenvalues --  -11.21087 -11.21074  -1.08504  -1.08441  -1.03604
 Alpha  occ. eigenvalues --   -1.03535  -0.96030  -0.96010  -0.87057  -0.87016
 Alpha  occ. eigenvalues --   -0.79641  -0.79625  -0.78299  -0.78274  -0.65395
 Alpha  occ. eigenvalues --   -0.64866  -0.61209  -0.60703  -0.59388  -0.59384
 Alpha  occ. eigenvalues --   -0.57671  -0.57593  -0.55401  -0.55242  -0.52713
 Alpha  occ. eigenvalues --   -0.52709  -0.52502  -0.52396  -0.50105  -0.49869
 Alpha  occ. eigenvalues --   -0.48045  -0.47879  -0.46727  -0.46626  -0.46000
 Alpha  occ. eigenvalues --   -0.45801  -0.45644  -0.45533  -0.43824  -0.43821
 Alpha virt. eigenvalues --    0.18632   0.22932   0.23572   0.24921   0.25427
 Alpha virt. eigenvalues --    0.25907   0.26394   0.28604   0.28757   0.29251
 Alpha virt. eigenvalues --    0.30639   0.31587   0.31736   0.31861   0.32035

 Mulliken charges:
               1
     1  C   -0.298405
     2  C   -0.299728
     3  C   -0.475726
     4  H    0.150212
     5  H    0.149747
     6  H    0.151686
     7  H    0.151959
     8  H    0.155243
     9  H    0.155325
    10  H    0.160361
    11  C   -0.302567
    12  C   -0.301970
    13  C   -0.483200
    14  H    0.152751
    15  H    0.149829
    16  H    0.154626
    17  H    0.152476
    18  H    0.155616
    19  H    0.160929
    20  H    0.160671
    21  C   -0.305751
    22  C   -0.303302
    23  C   -0.479133
    24  H    0.150435
    25  H    0.156112
    26  H    0.152564
    27  H    0.154415
    28  H    0.158643
    29  H    0.155743
    30  H    0.159940
    31  C   -0.298426
    32  C   -0.299811
    33  C   -0.475773
    34  H    0.149754
    35  H    0.149514
    36  H    0.152052
    37  H    0.152291
    38  H    0.155394
    39  H    0.155120
    40  H    0.160385
 Sum of Mulliken charges =  -0.00000

 Dipole moment (field-independent basis, Debye):
    X=              0.0032    Y=              0.0081    Z=             -0.0014  Tot=              0.0088
 Quadrupole moment (field-independent basis, Debye-Ang):
   XX=            -84.8664   YY=            -85.7221   ZZ=            -84.0145
   XY=              0.3599   XZ=              1.7075   YZ=              0.0703

 Normal termination of Gaussian 16 at Thu May  6 05:28:59 2021.
