 Gaussian 16, Revision A.03,
 Gaussian 16:  EM64L-G16RevA.03 25-Dec-2016

 -------------
 #p 6-31g* mp2
 -------------

 ------------------------------------------------------
 Input file generated by CHIRIPA (05-May-2021 14:55:19)
 ------------------------------------------------------
 Symbolic Z-matrix:
 Charge =  0 Multiplicity = 1

                         Standard orientation:
 ---------------------------------------------------------------------
 Center     Atomic      Atomic             Coordinates (Angstroms)
 Number     Number       Type             X           Y           Z
 ---------------------------------------------------------------------
      1          6           0        1.105301    1.369477    0.477639
      2          6           0        1.592302    0.513880    1.471272
      3          6           0        2.738745   -0.254300    1.247408
      4          6           0        3.376122   -0.141665    0.012760
      5          6           0        2.915429    0.701691   -0.997093
      6          6           0        1.767252    1.460491   -0.751206
      7          1           0        0.214043    1.962574    0.660095
      8          1           0        1.080270    0.441167    2.426563
      9          1           0        3.137399   -0.924699    1.999111
     10          1           0        3.447427    0.752779   -1.939317
     11          1           0        1.391309    2.124117   -1.524712
     12          7           0        4.590728   -0.949938   -0.235892
     13          8           0        5.134040   -0.832643   -1.332109
     14          8           0        4.976426   -1.685452    0.670140
     15          6           0       -4.110008   -0.715955    0.161918
     16          6           0       -5.225230   -1.503162   -0.526972
     17          6           0       -5.302216   -2.955417   -0.054930
     18          1           0       -3.149013   -1.214845   -0.023934
     19          1           0       -4.270280   -0.741225    1.248688
     20          1           0       -5.063670   -1.475249   -1.612207
     21          1           0       -6.183658   -1.002233   -0.339619
     22          1           0       -5.487067   -3.000770    1.023204
     23          1           0       -4.360715   -3.476473   -0.256615
     24          1           0       -6.106173   -3.499700   -0.560174
     25          6           0       -4.020398    0.737592   -0.299495
     26          6           0       -2.905178    1.524800    0.389395
     27          6           0       -2.828191    2.977055   -0.082646
     28          1           0       -3.860126    0.762863   -1.386265
     29          1           0       -4.981394    1.236483   -0.113643
     30          1           0       -1.946749    1.023871    0.202042
     31          1           0       -3.066738    1.496886    1.474630
     32          1           0       -3.769692    3.498111    0.119039
     33          1           0       -2.643340    3.022409   -1.160781
     34          1           0       -2.024235    3.521337    0.422597
 ---------------------------------------------------------------------

 SCF Done:  E(RHF) =  -669.535385459     A.U. after   15 cycles
 E2 =    -0.2091629544D+01 EUMP2 =    -0.67162701500332D+03

 The electronic state is 1-A.
 Alpha  occ. eigenvalues --  -20.60754 -20.60749 -15.85808 -11.31174 -11.27740
 Alpha  occ. eigenvalues --  -11.27735 -11.27426 -11.26751 -11.26740 -11.22678
 Alpha  occ. eigenvalues --  -11.22270 -11.22187 -11.22096 -11.21994 -11.21460
 Alpha  occ. eigenvalues --   -1.59830  -1.39383  -1.19344  -1.09198  -1.08734
 Alpha  occ. eigenvalues --   -1.04745  -1.04323  -0.96760  -0.95569  -0.87769
 Alpha  occ. eigenvalues --   -0.86138  -0.82409  -0.80413  -0.78965  -0.77452
 Alpha  occ. eigenvalues --   -0.72025  -0.71153  -0.70473  -0.65820  -0.64991
 Alpha  occ. eigenvalues --   -0.64745  -0.62091  -0.61713  -0.60204  -0.58387
 Alpha  occ. eigenvalues --   -0.56046  -0.55161  -0.53467  -0.53185  -0.53069
 Alpha  occ. eigenvalues --   -0.52832  -0.50682  -0.48788  -0.48781  -0.48708
 Alpha  occ. eigenvalues --   -0.47422  -0.46506  -0.46395  -0.44789  -0.44554
 Alpha  occ. eigenvalues --   -0.37298  -0.36354
 Alpha virt. eigenvalues --    0.05041   0.11300   0.16425   0.19799   0.22486
 Alpha virt. eigenvalues --    0.23814   0.25966   0.25990   0.26645   0.27474
 Alpha virt. eigenvalues --    0.29342   0.30038   0.30769   0.31357   0.32467

 Mulliken charges:
               1
     1  C   -0.174907
     2  C   -0.221171
     3  C   -0.170753
     4  C    0.158494
     5  C   -0.170811
     6  C   -0.221644
     7  H    0.236036
     8  H    0.224112
     9  H    0.275517
    10  H    0.275467
    11  H    0.223751
    12  N    0.488021
    13  O   -0.460498
    14  O   -0.460442
    15  C   -0.299473
    16  C   -0.300264
    17  C   -0.476266
    18  H    0.151282
    19  H    0.149532
    20  H    0.153038
    21  H    0.152672
    22  H    0.155411
    23  H    0.156495
    24  H    0.162053
    25  C   -0.297734
    26  C   -0.307635
    27  C   -0.479535
    28  H    0.151234
    29  H    0.152103
    30  H    0.150092
    31  H    0.152832
    32  H    0.162531
    33  H    0.157048
    34  H    0.153415
 Sum of Mulliken charges =  -0.00000

 Dipole moment (field-independent basis, Debye):
    X=             -4.4742    Y=              2.8001    Z=              0.8474  Tot=              5.3458
 Quadrupole moment (field-independent basis, Debye-Ang):
   XX=           -123.2514   YY=            -96.4723   ZZ=            -90.1347
   XY=             10.0754   XZ=              2.2002   YZ=             -1.7614

 Normal termination of Gaussian 16 at Thu May  6 17:24:31 2021.
