 Gaussian 16, Revision A.03,
 Gaussian 16:  EM64L-G16RevA.03 25-Dec-2016

 -------------
 #p 6-31g* mp2
 -------------

 ------------------------------------------------------
 Input file generated by CHIRIPA (05-May-2021 14:57:22)
 ------------------------------------------------------
 Symbolic Z-matrix:
 Charge =  0 Multiplicity = 1

                         Standard orientation:
 ---------------------------------------------------------------------
 Center     Atomic      Atomic             Coordinates (Angstroms)
 Number     Number       Type             X           Y           Z
 ---------------------------------------------------------------------
      1          6           0       -1.963073   -2.356255   -0.122821
      2          6           0       -3.305287   -2.276980    0.262794
      3          6           0       -3.973846   -1.049152    0.258765
      4          6           0       -3.266465    0.084485   -0.138436
      5          6           0       -1.928821    0.037887   -0.528086
      6          6           0       -1.280328   -1.200606   -0.516336
      7          1           0       -1.451514   -3.314204   -0.116692
      8          1           0       -3.838027   -3.172829    0.568878
      9          1           0       -5.012622   -0.959203    0.552484
     10          1           0       -1.424214    0.948227   -0.828204
     11          1           0       -0.237913   -1.259177   -0.816314
     12          7           0       -3.963617    1.389977   -0.146788
     13          8           0       -3.318079    2.374097   -0.500944
     14          8           0       -5.142382    1.404383    0.200981
     15          6           0        3.231099    2.649712    0.255613
     16          6           0        4.048571    1.965395   -0.649910
     17          6           0        4.012822    0.569779   -0.724246
     18          6           0        3.143876   -0.112856    0.125598
     19          6           0        2.317109    0.540366    1.038311
     20          6           0        2.369497    1.936271    1.095353
     21          1           0        3.265333    3.733971    0.306641
     22          1           0        4.718675    2.516855   -1.303284
     23          1           0        4.634826    0.014786   -1.415991
     24          1           0        1.659357   -0.036824    1.676772
     25          1           0        1.733500    2.465077    1.799567
     26          7           0        3.097223   -1.590485    0.056056
     27          8           0        2.323035   -2.168697    0.815623
     28          8           0        3.835727   -2.142459   -0.756700
 ---------------------------------------------------------------------

 SCF Done:  E(RHF) =  -868.339945025     A.U. after   16 cycles
 E2 =    -0.2599290581D+01 EUMP2 =    -0.87093923560555D+03

 The electronic state is 1-A.
 Alpha  occ. eigenvalues --  -20.61690 -20.61658 -20.60731 -20.60715 -15.86698
 Alpha  occ. eigenvalues --  -15.85774 -11.31840 -11.30973 -11.28357 -11.28352
 Alpha  occ. eigenvalues --  -11.28006 -11.27524 -11.27520 -11.27295 -11.27272
 Alpha  occ. eigenvalues --  -11.27097 -11.26459 -11.26396  -1.60753  -1.59806
 Alpha  occ. eigenvalues --   -1.40307  -1.39364  -1.19978  -1.19113  -1.09405
 Alpha  occ. eigenvalues --   -1.08505  -1.05327  -1.04493  -0.96276  -0.95376
 Alpha  occ. eigenvalues --   -0.86729  -0.85872  -0.83104  -0.82224  -0.78194
 Alpha  occ. eigenvalues --   -0.77319  -0.72911  -0.72093  -0.71989  -0.71130
 Alpha  occ. eigenvalues --   -0.71038  -0.70146  -0.65612  -0.65295  -0.64745
 Alpha  occ. eigenvalues --   -0.64452  -0.62664  -0.61842  -0.55797  -0.54893
 Alpha  occ. eigenvalues --   -0.53690  -0.53391  -0.52827  -0.52562  -0.49688
 Alpha  occ. eigenvalues --   -0.49652  -0.48761  -0.48732  -0.45741  -0.44808
 Alpha  occ. eigenvalues --   -0.37936  -0.37035  -0.36943  -0.36097
 Alpha virt. eigenvalues --    0.04285   0.05209   0.10666   0.11565   0.15835
 Alpha virt. eigenvalues --    0.16754   0.20985   0.21766   0.26874   0.27276
 Alpha virt. eigenvalues --    0.27941   0.28730   0.30423   0.31295   0.32046

 Mulliken charges:
               1
     1  C   -0.169905
     2  C   -0.219402
     3  C   -0.171853
     4  C    0.157908
     5  C   -0.175938
     6  C   -0.219132
     7  H    0.235166
     8  H    0.223672
     9  H    0.274310
    10  H    0.271739
    11  H    0.227160
    12  N    0.488205
    13  O   -0.464325
    14  O   -0.460683
    15  C   -0.169588
    16  C   -0.218431
    17  C   -0.171259
    18  C    0.153464
    19  C   -0.176556
    20  C   -0.219160
    21  H    0.230301
    22  H    0.226310
    23  H    0.276517
    24  H    0.277111
    25  H    0.229431
    26  N    0.486339
    27  O   -0.464802
    28  O   -0.456600
 Sum of Mulliken charges =  -0.00000

 Dipole moment (field-independent basis, Debye):
    X=              2.8853    Y=              0.5924    Z=              0.3004  Tot=              2.9607
 Quadrupole moment (field-independent basis, Debye-Ang):
   XX=           -114.4194   YY=           -106.0983   ZZ=           -102.7631
   XY=             34.8695   XZ=             -4.1998   YZ=              0.5605

 Normal termination of Gaussian 16 at Fri May  7 00:11:43 2021.
