 Gaussian 16, Revision A.03,
 Gaussian 16:  EM64L-G16RevA.03 25-Dec-2016

 -------------
 #p 6-31g* mp2
 -------------

 ------------------------------------------------------
 Input file generated by CHIRIPA (05-May-2021 14:53:17)
 ------------------------------------------------------
 Symbolic Z-matrix:
 Charge =  0 Multiplicity = 1

                         Standard orientation:
 ---------------------------------------------------------------------
 Center     Atomic      Atomic             Coordinates (Angstroms)
 Number     Number       Type             X           Y           Z
 ---------------------------------------------------------------------
      1          6           0        4.500086   -0.582359   -0.297467
      2          6           0        5.872205   -1.088870    0.148316
      3          6           0        6.121555   -2.544950   -0.245955
      4          1           0        3.720611   -1.220896    0.140293
      5          1           0        4.414577   -0.687743   -1.387869
      6          1           0        5.955627   -0.981277    1.237389
      7          1           0        6.648496   -0.448937   -0.290402
      8          1           0        6.065350   -2.664828   -1.332726
      9          1           0        5.368544   -3.200194    0.203746
     10          1           0        7.108139   -2.886494    0.082465
     11          6           0        4.236048    0.871709    0.089442
     12          6           0        2.863929    1.378220   -0.356341
     13          6           0        2.614579    2.834300    0.037930
     14          1           0        4.321557    0.977093    1.179844
     15          1           0        5.015523    1.510246   -0.348319
     16          1           0        2.087638    0.738287    0.082377
     17          1           0        2.780508    1.270627   -1.445414
     18          1           0        3.367591    3.489544   -0.411771
     19          1           0        2.670784    2.954178    1.124701
     20          1           0        1.627995    3.175844   -0.290490
     21          6           0       -1.098987    0.640684    0.748538
     22          6           0       -1.528281    0.786632   -0.574688
     23          6           0       -2.808086    0.372530   -0.955695
     24          6           0       -3.636220   -0.185893    0.016750
     25          6           0       -3.237458   -0.344620    1.343055
     26          6           0       -1.953441    0.076518    1.701507
     27          1           0       -0.103168    0.965101    1.035752
     28          1           0       -0.866845    1.224431   -1.316901
     29          1           0       -3.165979    0.473769   -1.973084
     30          1           0       -3.919400   -0.784616    2.060535
     31          1           0       -1.622723   -0.038059    2.729876
     32          7           0       -4.993322   -0.628009   -0.374666
     33          8           0       -5.703837   -1.116963    0.500966
     34          8           0       -5.320807   -0.477214   -1.549677
 ---------------------------------------------------------------------

 SCF Done:  E(RHF) =  -669.535507503     A.U. after   15 cycles
 E2 =    -0.2091365835D+01 EUMP2 =    -0.67162687333737D+03

 The electronic state is 1-A.
 Alpha  occ. eigenvalues --  -20.60733 -20.60728 -15.85787 -11.31148 -11.27717
 Alpha  occ. eigenvalues --  -11.27711 -11.27419 -11.26727 -11.26713 -11.22841
 Alpha  occ. eigenvalues --  -11.22316 -11.22282 -11.22209 -11.22113 -11.21561
 Alpha  occ. eigenvalues --   -1.59809  -1.39363  -1.19317  -1.09317  -1.08710
 Alpha  occ. eigenvalues --   -1.04721  -1.04422  -0.96846  -0.95547  -0.87855
 Alpha  occ. eigenvalues --   -0.86115  -0.82384  -0.80514  -0.79081  -0.77430
 Alpha  occ. eigenvalues --   -0.72004  -0.71132  -0.70450  -0.65951  -0.64968
 Alpha  occ. eigenvalues --   -0.64727  -0.62074  -0.61823  -0.60252  -0.58452
 Alpha  occ. eigenvalues --   -0.56144  -0.55175  -0.53553  -0.53265  -0.53045
 Alpha  occ. eigenvalues --   -0.52807  -0.50780  -0.48812  -0.48761  -0.48758
 Alpha  occ. eigenvalues --   -0.47546  -0.46622  -0.46519  -0.44769  -0.44653
 Alpha  occ. eigenvalues --   -0.37287  -0.36326
 Alpha virt. eigenvalues --    0.05089   0.11310   0.16539   0.19025   0.22463
 Alpha virt. eigenvalues --    0.23879   0.25445   0.25872   0.26757   0.27386
 Alpha virt. eigenvalues --    0.29468   0.29487   0.30784   0.31399   0.31690

 Mulliken charges:
               1
     1  C   -0.299064
     2  C   -0.300319
     3  C   -0.476197
     4  H    0.149486
     5  H    0.151167
     6  H    0.152305
     7  H    0.153265
     8  H    0.156298
     9  H    0.155794
    10  H    0.162147
    11  C   -0.297932
    12  C   -0.306526
    13  C   -0.478666
    14  H    0.150132
    15  H    0.153305
    16  H    0.144986
    17  H    0.154882
    18  H    0.162373
    19  H    0.156185
    20  H    0.156599
    21  C   -0.175827
    22  C   -0.220978
    23  C   -0.170988
    24  C    0.158426
    25  C   -0.170816
    26  C   -0.219268
    27  H    0.233491
    28  H    0.224630
    29  H    0.275471
    30  H    0.275372
    31  H    0.223295
    32  N    0.488056
    33  O   -0.460550
    34  O   -0.460532
 Sum of Mulliken charges =  -0.00000

 Dipole moment (field-independent basis, Debye):
    X=              5.0356    Y=              1.5603    Z=              1.3496  Tot=              5.4418
 Quadrupole moment (field-independent basis, Debye-Ang):
   XX=           -129.0183   YY=            -96.4749   ZZ=            -89.5804
   XY=             -5.7337   XZ=             -6.3091   YZ=             -2.3819

 Normal termination of Gaussian 16 at Wed May  5 18:46:00 2021.
