 Gaussian 16, Revision A.03,
 Gaussian 16:  EM64L-G16RevA.03 25-Dec-2016

 -------------
 #p 6-31g* mp2
 -------------

 ------------------------------------------------------
 Input file generated by CHIRIPA (05-May-2021 14:57:26)
 ------------------------------------------------------
 Symbolic Z-matrix:
 Charge =  0 Multiplicity = 1

                         Standard orientation:
 ---------------------------------------------------------------------
 Center     Atomic      Atomic             Coordinates (Angstroms)
 Number     Number       Type             X           Y           Z
 ---------------------------------------------------------------------
      1          6           0       -1.155333    2.543634    1.226609
      2          6           0       -1.893436    2.563341    0.038612
      3          6           0       -2.362399    1.373326   -0.525733
      4          6           0       -2.073611    0.176156    0.127471
      5          6           0       -1.340783    0.123795    1.312170
      6          6           0       -0.881844    1.326070    1.858483
      7          1           0       -0.794924    3.472828    1.658002
      8          1           0       -2.107338    3.507445   -0.454296
      9          1           0       -2.936075    1.359706   -1.444497
     10          1           0       -1.143445   -0.832849    1.780475
     11          1           0       -0.308861    1.307738    2.781195
     12          7           0       -2.564775   -1.090149   -0.460431
     13          8           0       -2.296937   -2.131759    0.134504
     14          8           0       -3.208288   -1.017091   -1.505032
     15          6           0        1.363945   -2.635437    0.727232
     16          6           0        1.038865   -2.319360   -0.595998
     17          6           0        1.382277   -1.075403   -1.133760
     18          6           0        2.053443   -0.167281   -0.316361
     19          6           0        2.391197   -0.452651    1.005674
     20          6           0        2.037884   -1.702718    1.522443
     21          1           0        1.093327   -3.604145    1.136825
     22          1           0        0.515501   -3.041764   -1.215893
     23          1           0        1.142849   -0.804637   -2.154925
     24          1           0        2.913203    0.288108    1.599142
     25          1           0        2.291628   -1.945455    2.550421
     26          7           0        2.422239    1.152875   -0.874553
     27          8           0        3.013291    1.935514   -0.133763
     28          8           0        2.113266    1.379976   -2.042285
 ---------------------------------------------------------------------

 SCF Done:  E(RHF) =  -868.339302682     A.U. after   16 cycles
 E2 =    -0.2605173429D+01 EUMP2 =    -0.87094447611085D+03

 The electronic state is 1-A.
 Alpha  occ. eigenvalues --  -20.61112 -20.61090 -20.60926 -20.60898 -15.86117
 Alpha  occ. eigenvalues --  -15.85961 -11.31192 -11.31157 -11.27814 -11.27716
 Alpha  occ. eigenvalues --  -11.27699 -11.27643 -11.27377 -11.27371 -11.26822
 Alpha  occ. eigenvalues --  -11.26675 -11.26598 -11.26560  -1.60174  -1.59989
 Alpha  occ. eigenvalues --   -1.39737  -1.39548  -1.19419  -1.19265  -1.08771
 Alpha  occ. eigenvalues --   -1.08745  -1.04760  -1.04664  -0.95659  -0.95608
 Alpha  occ. eigenvalues --   -0.86132  -0.86069  -0.82510  -0.82451  -0.77614
 Alpha  occ. eigenvalues --   -0.77518  -0.72373  -0.72186  -0.71521  -0.71288
 Alpha  occ. eigenvalues --   -0.70430  -0.70390  -0.64991  -0.64974  -0.64696
 Alpha  occ. eigenvalues --   -0.64679  -0.62093  -0.62036  -0.55185  -0.55161
 Alpha  occ. eigenvalues --   -0.53732  -0.52806  -0.52782  -0.52341  -0.49137
 Alpha  occ. eigenvalues --   -0.49090  -0.48950  -0.48928  -0.45222  -0.44992
 Alpha  occ. eigenvalues --   -0.37430  -0.37302  -0.36458  -0.35878
 Alpha virt. eigenvalues --    0.04821   0.05023   0.11058   0.11661   0.16474
 Alpha virt. eigenvalues --    0.16505   0.21198   0.21887   0.26980   0.27820
 Alpha virt. eigenvalues --    0.28201   0.28673   0.31070   0.31272   0.32429

 Mulliken charges:
               1
     1  C   -0.167848
     2  C   -0.216650
     3  C   -0.170211
     4  C    0.154960
     5  C   -0.164900
     6  C   -0.221415
     7  H    0.230027
     8  H    0.226899
     9  H    0.275650
    10  H    0.271417
    11  H    0.220083
    12  N    0.487415
    13  O   -0.467273
    14  O   -0.459994
    15  C   -0.170504
    16  C   -0.210109
    17  C   -0.179968
    18  C    0.164819
    19  C   -0.174503
    20  C   -0.227358
    21  H    0.230973
    22  H    0.236250
    23  H    0.277412
    24  H    0.270736
    25  H    0.221032
    26  N    0.488578
    27  O   -0.465515
    28  O   -0.460002
 Sum of Mulliken charges =  -0.00000

 Dipole moment (field-independent basis, Debye):
    X=              0.3424    Y=             -0.2247    Z=              3.8688  Tot=              3.8904
 Quadrupole moment (field-independent basis, Debye-Ang):
   XX=           -117.6388   YY=           -100.0391   ZZ=            -99.5322
   XY=            -19.5309   XZ=              4.1609   YZ=              1.4161

 Normal termination of Gaussian 16 at Wed May  5 21:15:31 2021.
