 Gaussian 16, Revision A.03,
 Gaussian 16:  EM64L-G16RevA.03 25-Dec-2016

 -------------
 #p 6-31g* mp2
 -------------

 ------------------------------------------------------
 Input file generated by CHIRIPA (05-May-2021 14:57:25)
 ------------------------------------------------------
 Symbolic Z-matrix:
 Charge =  0 Multiplicity = 1

                         Standard orientation:
 ---------------------------------------------------------------------
 Center     Atomic      Atomic             Coordinates (Angstroms)
 Number     Number       Type             X           Y           Z
 ---------------------------------------------------------------------
      1          6           0        4.012416   -2.078895    0.455151
      2          6           0        4.093818   -1.065418    1.415754
      3          6           0        3.576574    0.206311    1.151722
      4          6           0        2.981947    0.430756   -0.088976
      5          6           0        2.885610   -0.558355   -1.066559
      6          6           0        3.409634   -1.822581   -0.780761
      7          1           0        4.416857   -3.063890    0.668711
      8          1           0        4.561397   -1.261614    2.376443
      9          1           0        3.626151    1.009123    1.877293
     10          1           0        2.413715   -0.332637   -2.015129
     11          1           0        3.345007   -2.607751   -1.528675
     12          7           0        2.430775    1.773107   -0.380016
     13          8           0        1.911795    1.945398   -1.480749
     14          8           0        2.528182    2.627532    0.498110
     15          6           0       -5.557653    0.149852    0.290441
     16          6           0       -4.673807    1.218038    0.475689
     17          6           0       -3.295053    1.030488    0.340004
     18          6           0       -2.832559   -0.244263    0.016895
     19          6           0       -3.687802   -1.328438   -0.173939
     20          6           0       -5.062702   -1.117741   -0.033211
     21          1           0       -6.627205    0.304536    0.397804
     22          1           0       -5.055359    2.203560    0.727101
     23          1           0       -2.588436    1.839869    0.477887
     24          1           0       -3.277593   -2.299340   -0.423929
     25          1           0       -5.746763   -1.949150   -0.177656
     26          7           0       -1.374974   -0.455067   -0.129418
     27          8           0       -0.992725   -1.587846   -0.414608
     28          8           0       -0.642366    0.516477    0.043864
 ---------------------------------------------------------------------

 SCF Done:  E(RHF) =  -868.338924546     A.U. after   16 cycles
 E2 =    -0.2600532768D+01 EUMP2 =    -0.87093945731364D+03

 The electronic state is 1-A.
 Alpha  occ. eigenvalues --  -20.60782 -20.60684 -20.59216 -20.59173 -15.85757
 Alpha  occ. eigenvalues --  -15.84250 -11.31041 -11.29602 -11.27642 -11.27545
 Alpha  occ. eigenvalues --  -11.27356 -11.26637 -11.26576 -11.26269 -11.26167
 Alpha  occ. eigenvalues --  -11.26058 -11.25349 -11.25258  -1.59794  -1.58233
 Alpha  occ. eigenvalues --   -1.39347  -1.37806  -1.19211  -1.17799  -1.08630
 Alpha  occ. eigenvalues --   -1.07214  -1.04600  -1.03246  -0.95478  -0.94059
 Alpha  occ. eigenvalues --   -0.86004  -0.84657  -0.82312  -0.80924  -0.77356
 Alpha  occ. eigenvalues --   -0.75941  -0.72073  -0.71099  -0.70525  -0.70325
 Alpha  occ. eigenvalues --   -0.69398  -0.69004  -0.64864  -0.64607  -0.63504
 Alpha  occ. eigenvalues --   -0.63315  -0.61941  -0.60627  -0.55122  -0.53825
 Alpha  occ. eigenvalues --   -0.52939  -0.52691  -0.51543  -0.51392  -0.48762
 Alpha  occ. eigenvalues --   -0.48743  -0.47274  -0.47243  -0.44794  -0.43178
 Alpha  occ. eigenvalues --   -0.37198  -0.36200  -0.35770  -0.34813
 Alpha virt. eigenvalues --    0.05161   0.06693   0.11455   0.12831   0.16674
 Alpha virt. eigenvalues --    0.18123   0.21593   0.22708   0.27512   0.28500
 Alpha virt. eigenvalues --    0.28592   0.29612   0.31144   0.32176   0.32785

 Mulliken charges:
               1
     1  C   -0.171470
     2  C   -0.219441
     3  C   -0.171986
     4  C    0.169533
     5  C   -0.157074
     6  C   -0.215644
     7  H    0.219313
     8  H    0.216695
     9  H    0.270303
    10  H    0.273530
    11  H    0.218933
    12  N    0.496146
    13  O   -0.460658
    14  O   -0.469764
    15  C   -0.170588
    16  C   -0.218986
    17  C   -0.170262
    18  C    0.157661
    19  C   -0.171162
    20  C   -0.218888
    21  H    0.225253
    22  H    0.224741
    23  H    0.282045
    24  H    0.273381
    25  H    0.222272
    26  N    0.490742
    27  O   -0.466866
    28  O   -0.457760
 Sum of Mulliken charges =  -0.00000

 Dipole moment (field-independent basis, Debye):
    X=             -3.5310    Y=             -3.8421    Z=              1.4214  Tot=              5.4083
 Quadrupole moment (field-independent basis, Debye-Ang):
   XX=            -66.4314   YY=           -105.2980   ZZ=           -101.8856
   XY=            -13.0888   XZ=              2.5486   YZ=              3.6377

 Normal termination of Gaussian 16 at Thu May  6 16:22:52 2021.
