 Gaussian 16, Revision A.03,
 Gaussian 16:  EM64L-G16RevA.03 25-Dec-2016

 -------------
 #p 6-31g* mp2
 -------------

 ------------------------------------------------------
 Input file generated by CHIRIPA (05-May-2021 14:53:16)
 ------------------------------------------------------
 Symbolic Z-matrix:
 Charge =  0 Multiplicity = 1

                         Standard orientation:
 ---------------------------------------------------------------------
 Center     Atomic      Atomic             Coordinates (Angstroms)
 Number     Number       Type             X           Y           Z
 ---------------------------------------------------------------------
      1          6           0        2.288369   -0.756906    0.188313
      2          6           0        1.759857   -1.849526    1.118282
      3          6           0        0.245940   -2.035234    1.011684
      4          1           0        1.783913    0.190562    0.422354
      5          1           0        2.020627   -1.005931   -0.847880
      6          1           0        2.029717   -1.599214    2.152272
      7          1           0        2.265768   -2.794460    0.882128
      8          1           0       -0.037629   -2.309005   -0.009706
      9          1           0       -0.275021   -1.106967    1.267654
     10          1           0       -0.110529   -2.821065    1.684929
     11          6           0        3.800215   -0.559431    0.283453
     12          6           0        4.328727    0.533189   -0.646515
     13          6           0        5.842644    0.718897   -0.539918
     14          1           0        4.067957   -0.310406    1.319647
     15          1           0        4.304671   -1.506899    0.049412
     16          1           0        3.822816    1.478123   -0.410361
     17          1           0        4.058867    0.282877   -1.680505
     18          1           0        6.363606   -0.209370   -0.795888
     19          1           0        6.126214    0.992668    0.481473
     20          1           0        6.199113    1.504728   -1.213162
     21          6           0       -0.950193    2.514035    0.387483
     22          6           0       -0.571033    1.656996   -0.650902
     23          6           0       -1.354673    0.545919   -0.976427
     24          6           0       -2.516422    0.320857   -0.239560
     25          6           0       -2.920812    1.156319    0.800517
     26          6           0       -2.121806    2.261406    1.108607
     27          1           0       -0.335473    3.374819    0.633586
     28          1           0        0.338344    1.850726   -1.212638
     29          1           0       -1.084633   -0.133830   -1.775449
     30          1           0       -3.832741    0.937239    1.342559
     31          1           0       -2.418729    2.925290    1.915541
     32          7           0       -3.354160   -0.852219   -0.574950
     33          8           0       -4.373091   -1.028583    0.089364
     34          8           0       -2.975987   -1.573101   -1.495793
 ---------------------------------------------------------------------

 SCF Done:  E(RHF) =  -669.534330044     A.U. after   15 cycles
 E2 =    -0.2094819780D+01 EUMP2 =    -0.67162914982401D+03

 The electronic state is 1-A.
 Alpha  occ. eigenvalues --  -20.60779 -20.60768 -15.85816 -11.31159 -11.27774
 Alpha  occ. eigenvalues --  -11.27722 -11.27526 -11.26796 -11.26739 -11.22173
 Alpha  occ. eigenvalues --  -11.21790 -11.21743 -11.21689 -11.21525 -11.20915
 Alpha  occ. eigenvalues --   -1.59839  -1.39395  -1.19380  -1.08799  -1.08761
 Alpha  occ. eigenvalues --   -1.04782  -1.03811  -0.96248  -0.95597  -0.87274
 Alpha  occ. eigenvalues --   -0.86165  -0.82430  -0.79914  -0.78652  -0.77454
 Alpha  occ. eigenvalues --   -0.72042  -0.71153  -0.70484  -0.65447  -0.65022
 Alpha  occ. eigenvalues --   -0.64759  -0.62125  -0.61217  -0.59642  -0.57889
 Alpha  occ. eigenvalues --   -0.55544  -0.55279  -0.53312  -0.52919  -0.52880
 Alpha  occ. eigenvalues --   -0.52539  -0.50186  -0.48799  -0.48796  -0.48179
 Alpha  occ. eigenvalues --   -0.46937  -0.46136  -0.46050  -0.44774  -0.44078
 Alpha  occ. eigenvalues --   -0.37328  -0.36279
 Alpha virt. eigenvalues --    0.05034   0.11158   0.16488   0.20584   0.22805
 Alpha virt. eigenvalues --    0.23844   0.25603   0.25757   0.27407   0.28520
 Alpha virt. eigenvalues --    0.28882   0.30758   0.31188   0.31567   0.31912

 Mulliken charges:
               1
     1  C   -0.302731
     2  C   -0.298791
     3  C   -0.484132
     4  H    0.149490
     5  H    0.144709
     6  H    0.151003
     7  H    0.153457
     8  H    0.160615
     9  H    0.158165
    10  H    0.163276
    11  C   -0.297602
    12  C   -0.299461
    13  C   -0.475593
    14  H    0.150119
    15  H    0.152263
    16  H    0.144778
    17  H    0.151109
    18  H    0.157688
    19  H    0.155923
    20  H    0.160174
    21  C   -0.173408
    22  C   -0.216579
    23  C   -0.168238
    24  C    0.160297
    25  C   -0.172264
    26  C   -0.218477
    27  H    0.225650
    28  H    0.226102
    29  H    0.275191
    30  H    0.275801
    31  H    0.223509
    32  N    0.489153
    33  O   -0.460281
    34  O   -0.460914
 Sum of Mulliken charges =  -0.00000

 Dipole moment (field-independent basis, Debye):
    X=              2.9141    Y=              4.0674    Z=              1.1922  Tot=              5.1436
 Quadrupole moment (field-independent basis, Debye-Ang):
   XX=           -109.0413   YY=            -91.9384   ZZ=            -92.5838
   XY=            -10.8927   XZ=             -6.4251   YZ=              0.9946

 Normal termination of Gaussian 16 at Thu May  6 10:37:28 2021.
