 Gaussian 16, Revision A.03,
 Gaussian 16:  EM64L-G16RevA.03 25-Dec-2016

 -------------
 #p 6-31g* mp2
 -------------

 ------------------------------------------------------
 Input file generated by CHIRIPA (05-May-2021 14:57:22)
 ------------------------------------------------------
 Symbolic Z-matrix:
 Charge =  0 Multiplicity = 1

                         Standard orientation:
 ---------------------------------------------------------------------
 Center     Atomic      Atomic             Coordinates (Angstroms)
 Number     Number       Type             X           Y           Z
 ---------------------------------------------------------------------
      1          6           0        1.436361    1.521880   -0.262174
      2          6           0        1.256600    0.177979    0.081536
      3          6           0        2.350740   -0.689505    0.151373
      4          6           0        3.616286   -0.177164   -0.130034
      5          6           0        3.827716    1.156760   -0.475337
      6          6           0        2.719084    2.006127   -0.539025
      7          1           0        0.580777    2.188726   -0.314036
      8          1           0        0.261573   -0.200857    0.297058
      9          1           0        2.240102   -1.734354    0.414940
     10          1           0        4.831754    1.505289   -0.684750
     11          1           0        2.861679    3.049353   -0.806219
     12          7           0        4.782275   -1.085941   -0.059355
     13          8           0        5.886969   -0.609990   -0.311860
     14          8           0        4.569405   -2.256984    0.247209
     15          6           0       -1.757324    1.580548    1.225847
     16          6           0       -2.351985    1.930837    0.009214
     17          6           0       -3.276841    1.077994   -0.600582
     18          6           0       -3.585257   -0.122767    0.036869
     19          6           0       -3.009765   -0.499879    1.249257
     20          6           0       -2.087530    0.368446    1.840902
     21          1           0       -1.039892    2.249070    1.692501
     22          1           0       -2.097447    2.871534   -0.470727
     23          1           0       -3.752193    1.324370   -1.542259
     24          1           0       -3.283554   -1.444326    1.703656
     25          1           0       -1.627278    0.093807    2.785776
     26          7           0       -4.562973   -1.033829   -0.599086
     27          8           0       -4.817758   -2.086033   -0.017204
     28          8           0       -5.056008   -0.678462   -1.667387
 ---------------------------------------------------------------------

 SCF Done:  E(RHF) =  -868.334983622     A.U. after   16 cycles
 E2 =    -0.2603952757D+01 EUMP2 =    -0.87093893637891D+03

 The electronic state is 1-A.
 Alpha  occ. eigenvalues --  -20.61658 -20.61652 -20.61065 -20.61059 -15.86724
 Alpha  occ. eigenvalues --  -15.86116 -11.32385 -11.31564 -11.29008 -11.28989
 Alpha  occ. eigenvalues --  -11.28797 -11.28122 -11.28102 -11.28077 -11.28009
 Alpha  occ. eigenvalues --  -11.27883 -11.27210 -11.26999  -1.60728  -1.60138
 Alpha  occ. eigenvalues --   -1.40272  -1.39689  -1.20637  -1.19729  -1.10005
 Alpha  occ. eigenvalues --   -1.09115  -1.06055  -1.05127  -0.96764  -0.95942
 Alpha  occ. eigenvalues --   -0.87444  -0.86533  -0.83550  -0.82772  -0.78531
 Alpha  occ. eigenvalues --   -0.77799  -0.72936  -0.72337  -0.72059  -0.71854
 Alpha  occ. eigenvalues --   -0.71462  -0.70801  -0.66255  -0.66030  -0.65380
 Alpha  occ. eigenvalues --   -0.65171  -0.63353  -0.62502  -0.56605  -0.55669
 Alpha  occ. eigenvalues --   -0.54472  -0.54106  -0.53471  -0.53043  -0.49716
 Alpha  occ. eigenvalues --   -0.49669  -0.49098  -0.49085  -0.45612  -0.45076
 Alpha  occ. eigenvalues --   -0.38662  -0.37829  -0.37564  -0.36695
 Alpha virt. eigenvalues --    0.03935   0.04721   0.09694   0.10995   0.15303
 Alpha virt. eigenvalues --    0.16189   0.19346   0.21911   0.25221   0.26910
 Alpha virt. eigenvalues --    0.27277   0.29182   0.29804   0.30572   0.32339

 Mulliken charges:
               1
     1  C   -0.176727
     2  C   -0.225844
     3  C   -0.173044
     4  C    0.159566
     5  C   -0.171283
     6  C   -0.218365
     7  H    0.216732
     8  H    0.234866
     9  H    0.276551
    10  H    0.276337
    11  H    0.222371
    12  N    0.487870
    13  O   -0.459620
    14  O   -0.459191
    15  C   -0.179858
    16  C   -0.222876
    17  C   -0.168076
    18  C    0.159011
    19  C   -0.170981
    20  C   -0.227699
    21  H    0.230355
    22  H    0.223696
    23  H    0.280337
    24  H    0.280884
    25  H    0.230488
    26  N    0.488077
    27  O   -0.456654
    28  O   -0.456924
 Sum of Mulliken charges =  -0.00000

 Dipole moment (field-independent basis, Debye):
    X=             -1.0037    Y=              6.2277    Z=              2.0141  Tot=              6.6218
 Quadrupole moment (field-independent basis, Debye-Ang):
   XX=           -157.1571   YY=           -102.6389   ZZ=           -102.2037
   XY=              2.6380   XZ=             -8.7554   YZ=             -4.5039

 Normal termination of Gaussian 16 at Thu May  6 08:05:59 2021.
