 Gaussian 16, Revision A.03,
 Gaussian 16:  EM64L-G16RevA.03 25-Dec-2016

 -------------
 #p 6-31g* mp2
 -------------

 ------------------------------------------------------
 Input file generated by CHIRIPA (05-May-2021 14:53:17)
 ------------------------------------------------------
 Symbolic Z-matrix:
 Charge =  0 Multiplicity = 1

                         Standard orientation:
 ---------------------------------------------------------------------
 Center     Atomic      Atomic             Coordinates (Angstroms)
 Number     Number       Type             X           Y           Z
 ---------------------------------------------------------------------
      1          6           0       -4.895641   -0.261077   -0.523598
      2          6           0       -5.457548   -1.351083    0.389711
      3          6           0       -6.576838   -2.156642   -0.270636
      4          1           0       -5.709250    0.414579   -0.821047
      5          1           0       -4.520166   -0.723636   -1.446881
      6          1           0       -5.830594   -0.886759    1.311587
      7          1           0       -4.642471   -2.024112    0.685175
      8          1           0       -6.214096   -2.646249   -1.180198
      9          1           0       -7.408969   -1.502434   -0.550227
     10          1           0       -6.963972   -2.930294    0.399774
     11          6           0       -3.775880    0.552839    0.122469
     12          6           0       -3.213973    1.642845   -0.790840
     13          6           0       -2.094683    2.448403   -0.130493
     14          1           0       -4.151355    1.015398    1.045752
     15          1           0       -2.962271   -0.122817    0.419918
     16          1           0       -4.029050    2.315873   -1.086304
     17          1           0       -2.840927    1.178520   -1.712716
     18          1           0       -1.262552    1.794195    0.149098
     19          1           0       -2.457425    2.938010    0.779069
     20          1           0       -1.707549    3.222055   -0.800903
     21          6           0        1.555120    0.837028    1.607414
     22          6           0        2.381266   -0.178864    2.099316
     23          6           0        3.399607   -0.713249    1.304355
     24          6           0        3.564443   -0.205908    0.016440
     25          6           0        2.757658    0.805750   -0.502150
     26          6           0        1.745616    1.325232    0.310537
     27          1           0        0.766495    1.246362    2.231844
     28          1           0        2.235633   -0.559945    3.106100
     29          1           0        4.053587   -1.500158    1.660027
     30          1           0        2.927159    1.165232   -1.509850
     31          1           0        1.105530    2.114139   -0.074116
     32          7           0        4.639180   -0.763748   -0.834532
     33          8           0        4.763863   -0.299559   -1.965734
     34          8           0        5.336525   -1.654611   -0.354208
 ---------------------------------------------------------------------

 SCF Done:  E(RHF) =  -669.535451806     A.U. after   15 cycles
 E2 =    -0.2091360360D+01 EUMP2 =    -0.67162681216611D+03

 The electronic state is 1-A.
 Alpha  occ. eigenvalues --  -20.60755 -20.60750 -15.85807 -11.31175 -11.27741
 Alpha  occ. eigenvalues --  -11.27726 -11.27468 -11.26755 -11.26694 -11.22379
 Alpha  occ. eigenvalues --  -11.22160 -11.22045 -11.22028 -11.21867 -11.21408
 Alpha  occ. eigenvalues --   -1.59830  -1.39384  -1.19343  -1.09038  -1.08737
 Alpha  occ. eigenvalues --   -1.04744  -1.04171  -0.96650  -0.95572  -0.87683
 Alpha  occ. eigenvalues --   -0.86137  -0.82400  -0.80251  -0.78822  -0.77451
 Alpha  occ. eigenvalues --   -0.72026  -0.71153  -0.70446  -0.65680  -0.64993
 Alpha  occ. eigenvalues --   -0.64760  -0.62145  -0.61514  -0.60028  -0.58234
 Alpha  occ. eigenvalues --   -0.55949  -0.55232  -0.53382  -0.53165  -0.53014
 Alpha  occ. eigenvalues --   -0.52768  -0.50562  -0.48786  -0.48781  -0.48553
 Alpha  occ. eigenvalues --   -0.47252  -0.46373  -0.46267  -0.44789  -0.44413
 Alpha  occ. eigenvalues --   -0.37315  -0.36339
 Alpha virt. eigenvalues --    0.05073   0.11177   0.16568   0.20627   0.22450
 Alpha virt. eigenvalues --    0.23858   0.25854   0.26274   0.26828   0.27850
 Alpha virt. eigenvalues --    0.28991   0.30100   0.30943   0.31533   0.31647

 Mulliken charges:
               1
     1  C   -0.298913
     2  C   -0.300091
     3  C   -0.476079
     4  H    0.150806
     5  H    0.151498
     6  H    0.151663
     7  H    0.152180
     8  H    0.156428
     9  H    0.155769
    10  H    0.161289
    11  C   -0.299395
    12  C   -0.298770
    13  C   -0.484618
    14  H    0.149052
    15  H    0.149535
    16  H    0.155229
    17  H    0.155012
    18  H    0.151476
    19  H    0.156714
    20  H    0.160572
    21  C   -0.172832
    22  C   -0.218635
    23  C   -0.171166
    24  C    0.158547
    25  C   -0.172268
    26  C   -0.221619
    27  H    0.226994
    28  H    0.223397
    29  H    0.275525
    30  H    0.275683
    31  H    0.229839
    32  N    0.488073
    33  O   -0.460409
    34  O   -0.460487
 Sum of Mulliken charges =  -0.00000

 Dipole moment (field-independent basis, Debye):
    X=             -3.9502    Y=              1.9359    Z=              2.9631  Tot=              5.3039
 Quadrupole moment (field-independent basis, Debye-Ang):
   XX=           -121.7338   YY=            -94.1622   ZZ=            -92.1739
   XY=              5.9266   XZ=             11.4362   YZ=             -3.2764

 Normal termination of Gaussian 16 at Thu May  6 12:17:39 2021.
