 Gaussian 16, Revision A.03,
 Gaussian 16:  EM64L-G16RevA.03 25-Dec-2016

 -------------
 #p 6-31g* mp2
 -------------

 ------------------------------------------------------
 Input file generated by CHIRIPA (05-May-2021 14:55:18)
 ------------------------------------------------------
 Symbolic Z-matrix:
 Charge =  0 Multiplicity = 1

                         Standard orientation:
 ---------------------------------------------------------------------
 Center     Atomic      Atomic             Coordinates (Angstroms)
 Number     Number       Type             X           Y           Z
 ---------------------------------------------------------------------
      1          6           0       -3.399443    2.605323   -0.006325
      2          6           0       -2.304178    1.764181    0.215928
      3          6           0       -2.462171    0.375122    0.205944
      4          6           0       -3.735300   -0.141111   -0.030567
      5          6           0       -4.846022    0.670711   -0.255356
      6          6           0       -4.664639    2.056870   -0.240844
      7          1           0       -3.267625    3.683251    0.003189
      8          1           0       -1.320446    2.187324    0.398323
      9          1           0       -1.631445   -0.299205    0.375048
     10          1           0       -5.814393    0.219466   -0.434395
     11          1           0       -5.517038    2.707686   -0.413760
     12          7           0       -3.914941   -1.610111   -0.043533
     13          8           0       -5.046921   -2.040062   -0.254247
     14          8           0       -2.920362   -2.303747    0.157263
     15          6           0        5.376570    0.270942    0.185416
     16          6           0        6.619910   -0.278470   -0.514755
     17          6           0        7.878797    0.532815   -0.206837
     18          1           0        5.224412    1.315856   -0.117813
     19          1           0        5.550242    0.282446    1.270359
     20          1           0        6.443424   -0.290228   -1.597959
     21          1           0        6.769015   -1.322257   -0.209972
     22          1           0        8.082476    0.534522    0.868855
     23          1           0        7.755036    1.572414   -0.527018
     24          1           0        8.755634    0.122646   -0.717501
     25          6           0        4.110002   -0.529496   -0.112635
     26          6           0        2.866664    0.019916    0.587536
     27          6           0        1.607777   -0.791368    0.279618
     28          1           0        3.936331   -0.540999   -1.197578
     29          1           0        4.262160   -1.574410    0.190594
     30          1           0        2.717558    1.063704    0.282753
     31          1           0        3.043148    0.031675    1.670741
     32          1           0        1.731538   -1.830968    0.599799
     33          1           0        1.404096   -0.793076   -0.796074
     34          1           0        0.730939   -0.381201    0.790283
 ---------------------------------------------------------------------

 SCF Done:  E(RHF) =  -669.535457548     A.U. after   15 cycles
 E2 =    -0.2090906113D+01 EUMP2 =    -0.67162636366078D+03

 The electronic state is 1-A.
 Alpha  occ. eigenvalues --  -20.60707 -20.60700 -15.85758 -11.31119 -11.27703
 Alpha  occ. eigenvalues --  -11.27659 -11.27454 -11.26722 -11.26705 -11.22031
 Alpha  occ. eigenvalues --  -11.21777 -11.21674 -11.21601 -11.21575 -11.21227
 Alpha  occ. eigenvalues --   -1.59782  -1.39334  -1.19300  -1.08713  -1.08699
 Alpha  occ. eigenvalues --   -1.04706  -1.03836  -0.96288  -0.95531  -0.87307
 Alpha  occ. eigenvalues --   -0.86102  -0.82364  -0.79898  -0.78509  -0.77408
 Alpha  occ. eigenvalues --   -0.71978  -0.71105  -0.70421  -0.65337  -0.64955
 Alpha  occ. eigenvalues --   -0.64717  -0.62107  -0.61219  -0.59662  -0.57895
 Alpha  occ. eigenvalues --   -0.55550  -0.55217  -0.53129  -0.53035  -0.52732
 Alpha  occ. eigenvalues --   -0.52632  -0.50201  -0.48737  -0.48731  -0.48211
 Alpha  occ. eigenvalues --   -0.46917  -0.46054  -0.45968  -0.44741  -0.44094
 Alpha  occ. eigenvalues --   -0.37289  -0.36308
 Alpha virt. eigenvalues --    0.05124   0.11342   0.16613   0.20201   0.22711
 Alpha virt. eigenvalues --    0.23837   0.25898   0.26404   0.27169   0.27966
 Alpha virt. eigenvalues --    0.28858   0.30343   0.31167   0.31564   0.31993

 Mulliken charges:
               1
     1  C   -0.170734
     2  C   -0.221471
     3  C   -0.180303
     4  C    0.159745
     5  C   -0.170307
     6  C   -0.219064
     7  H    0.225291
     8  H    0.223271
     9  H    0.286929
    10  H    0.275405
    11  H    0.223216
    12  N    0.487323
    13  O   -0.460833
    14  O   -0.459792
    15  C   -0.298390
    16  C   -0.299969
    17  C   -0.475841
    18  H    0.148528
    19  H    0.149984
    20  H    0.152399
    21  H    0.153219
    22  H    0.155434
    23  H    0.154705
    24  H    0.161141
    25  C   -0.299212
    26  C   -0.299613
    27  C   -0.478277
    28  H    0.150602
    29  H    0.152537
    30  H    0.147484
    31  H    0.153508
    32  H    0.165291
    33  H    0.158468
    34  H    0.149328
 Sum of Mulliken charges =  -0.00000

 Dipole moment (field-independent basis, Debye):
    X=              0.7903    Y=              5.0846    Z=              0.0266  Tot=              5.1458
 Quadrupole moment (field-independent basis, Debye-Ang):
   XX=            -95.3255   YY=            -96.5423   ZZ=            -94.8470
   XY=            -21.1453   XZ=              0.9214   YZ=             -0.8897

 Normal termination of Gaussian 16 at Thu May  6 14:00:44 2021.
