 Gaussian 16, Revision A.03,
 Gaussian 16:  EM64L-G16RevA.03 25-Dec-2016

 -------------
 #p 6-31g* mp2
 -------------

 ------------------------------------------------------
 Input file generated by CHIRIPA (05-May-2021 14:57:24)
 ------------------------------------------------------
 Symbolic Z-matrix:
 Charge =  0 Multiplicity = 1

                         Standard orientation:
 ---------------------------------------------------------------------
 Center     Atomic      Atomic             Coordinates (Angstroms)
 Number     Number       Type             X           Y           Z
 ---------------------------------------------------------------------
      1          6           0       -1.934469    0.030147    0.987723
      2          6           0       -2.991534    0.671750    1.641543
      3          6           0       -4.294553    0.580770    1.143132
      4          6           0       -4.505501   -0.163469   -0.016566
      5          6           0       -3.473211   -0.814084   -0.690633
      6          6           0       -2.178251   -0.709418   -0.174230
      7          1           0       -0.925383    0.106138    1.381890
      8          1           0       -2.805164    1.246789    2.544117
      9          1           0       -5.131330    1.067445    1.629311
     10          1           0       -3.690120   -1.380108   -1.588400
     11          1           0       -1.359252   -1.208747   -0.684089
     12          7           0       -5.880682   -0.267029   -0.553735
     13          8           0       -6.040250   -0.928787   -1.577089
     14          8           0       -6.772943    0.315519    0.058756
     15          6           0        6.172292   -1.510711    0.114582
     16          6           0        4.968280   -1.744940    0.786902
     17          6           0        3.912429   -0.833636    0.690713
     18          6           0        4.095804    0.306604   -0.090001
     19          6           0        5.283277    0.568071   -0.771787
     20          6           0        6.325677   -0.356986   -0.661248
     21          1           0        6.987278   -2.223975    0.194878
     22          1           0        4.846333   -2.640084    1.390137
     23          1           0        2.969635   -0.990178    1.200666
     24          1           0        5.375063    1.469403   -1.365585
     25          1           0        7.259607   -0.172480   -1.184484
     26          7           0        2.985141    1.278640   -0.199428
     27          8           0        3.171833    2.275590   -0.893601
     28          8           0        1.948943    1.025169    0.411050
 ---------------------------------------------------------------------

 SCF Done:  E(RHF) =  -868.339433098     A.U. after   16 cycles
 E2 =    -0.2598282268D+01 EUMP2 =    -0.87093771536644D+03

 The electronic state is 1-A.
 Alpha  occ. eigenvalues --  -20.61779 -20.61706 -20.60165 -20.60160 -15.86795
 Alpha  occ. eigenvalues --  -15.85216 -11.31968 -11.30415 -11.28554 -11.28475
 Alpha  occ. eigenvalues --  -11.28190 -11.27488 -11.27446 -11.26996 -11.26992
 Alpha  occ. eigenvalues --  -11.26538 -11.25911 -11.25899  -1.60806  -1.59245
 Alpha  occ. eigenvalues --   -1.40372  -1.38804  -1.20115  -1.18567  -1.09538
 Alpha  occ. eigenvalues --   -1.07957  -1.05492  -1.03962  -0.96410  -0.94823
 Alpha  occ. eigenvalues --   -0.86897  -0.85347  -0.83257  -0.81678  -0.78331
 Alpha  occ. eigenvalues --   -0.76779  -0.73032  -0.72117  -0.71437  -0.71218
 Alpha  occ. eigenvalues --   -0.70568  -0.69576  -0.65771  -0.65486  -0.64207
 Alpha  occ. eigenvalues --   -0.63956  -0.62848  -0.61329  -0.55982  -0.54330
 Alpha  occ. eigenvalues --   -0.53827  -0.53579  -0.52281  -0.52048  -0.49786
 Alpha  occ. eigenvalues --   -0.49732  -0.48201  -0.48178  -0.45819  -0.44248
 Alpha  occ. eigenvalues --   -0.38073  -0.37087  -0.36475  -0.35582
 Alpha virt. eigenvalues --    0.04199   0.05776   0.10571   0.12091   0.15738
 Alpha virt. eigenvalues --    0.17326   0.20596   0.22261   0.26518   0.27235
 Alpha virt. eigenvalues --    0.28092   0.29110   0.30502   0.31407   0.32763

 Mulliken charges:
               1
     1  C   -0.170357
     2  C   -0.219972
     3  C   -0.171417
     4  C    0.157221
     5  C   -0.171799
     6  C   -0.219021
     7  H    0.240786
     8  H    0.222556
     9  H    0.273133
    10  H    0.272604
    11  H    0.221770
    12  N    0.488323
    13  O   -0.462787
    14  O   -0.462440
    15  C   -0.170048
    16  C   -0.218121
    17  C   -0.170877
    18  C    0.158267
    19  C   -0.170355
    20  C   -0.218224
    21  H    0.228255
    22  H    0.224942
    23  H    0.269898
    24  H    0.277386
    25  H    0.226157
    26  N    0.492810
    27  O   -0.454140
    28  O   -0.474550
 Sum of Mulliken charges =  -0.00000

 Dipole moment (field-independent basis, Debye):
    X=              9.3082    Y=             -3.0050    Z=              2.2636  Tot=             10.0397
 Quadrupole moment (field-independent basis, Debye-Ang):
   XX=           -115.1006   YY=           -104.6639   ZZ=           -101.2665
   XY=            -14.9586   XZ=            -11.1466   YZ=              0.4622

 Normal termination of Gaussian 16 at Wed May  5 17:53:27 2021.
