 Gaussian 16, Revision A.03,
 Gaussian 16:  EM64L-G16RevA.03 25-Dec-2016

 -------------
 #p 6-31g* mp2
 -------------

 ------------------------------------------------------
 Input file generated by CHIRIPA (05-May-2021 14:53:15)
 ------------------------------------------------------
 Symbolic Z-matrix:
 Charge =  0 Multiplicity = 1

                         Standard orientation:
 ---------------------------------------------------------------------
 Center     Atomic      Atomic             Coordinates (Angstroms)
 Number     Number       Type             X           Y           Z
 ---------------------------------------------------------------------
      1          6           0        2.569061    1.252420   -0.536689
      2          6           0        1.143482    1.805313   -0.532391
      3          6           0        1.065498    3.243090   -1.046696
      4          1           0        3.208210    1.899102    0.079945
      5          1           0        2.970080    1.299524   -1.558629
      6          1           0        0.744775    1.755899    0.488984
      7          1           0        0.507612    1.157132   -1.148951
      8          1           0        1.437894    3.305367   -2.074336
      9          1           0        1.676404    3.907536   -0.427094
     10          1           0        0.037468    3.618428   -1.035053
     11          6           0        2.663293   -0.183987   -0.025237
     12          6           0        4.088872   -0.736880   -0.029535
     13          6           0        4.166856   -2.174657    0.484770
     14          1           0        2.262274   -0.231090    0.996702
     15          1           0        2.024145   -0.830669   -0.641871
     16          1           0        4.724742   -0.088699    0.587025
     17          1           0        4.487579   -0.687466   -1.050910
     18          1           0        3.555950   -2.839103   -0.134832
     19          1           0        3.794461   -2.236934    1.512410
     20          1           0        5.194886   -2.549995    0.473127
     21          6           0       -2.571314   -1.174284   -2.128860
     22          6           0       -3.489094   -0.388664   -1.423876
     23          6           0       -3.207400    0.036442   -0.122154
     24          6           0       -1.992899   -0.344180    0.446533
     25          6           0       -1.058094   -1.126204   -0.230126
     26          6           0       -1.360877   -1.539902   -1.530790
     27          1           0       -2.798331   -1.500086   -3.139658
     28          1           0       -4.429922   -0.103209   -1.885831
     29          1           0       -3.899915    0.645268    0.446327
     30          1           0       -0.128527   -1.394828    0.256867
     31          1           0       -0.646231   -2.149959   -2.075910
     32          7           0       -1.683519    0.099822    1.824048
     33          8           0       -0.606539   -0.248957    2.302695
     34          8           0       -2.523866    0.788203    2.399014
 ---------------------------------------------------------------------

 SCF Done:  E(RHF) =  -669.534743557     A.U. after   15 cycles
 E2 =    -0.2095211292D+01 EUMP2 =    -0.67162995484880D+03

 The electronic state is 1-A.
 Alpha  occ. eigenvalues --  -20.60891 -20.60880 -15.85904 -11.31150 -11.27783
 Alpha  occ. eigenvalues --  -11.27685 -11.27530 -11.26759 -11.26747 -11.21600
 Alpha  occ. eigenvalues --  -11.21377 -11.21310 -11.21244 -11.21111 -11.20881
 Alpha  occ. eigenvalues --   -1.59941  -1.39499  -1.19369  -1.08779  -1.08364
 Alpha  occ. eigenvalues --   -1.04768  -1.03438  -0.95914  -0.95625  -0.86926
 Alpha  occ. eigenvalues --   -0.86168  -0.82469  -0.79527  -0.78329  -0.77428
 Alpha  occ. eigenvalues --   -0.72136  -0.71245  -0.70489  -0.65109  -0.64914
 Alpha  occ. eigenvalues --   -0.64761  -0.62125  -0.60833  -0.59289  -0.57525
 Alpha  occ. eigenvalues --   -0.55303  -0.55178  -0.53176  -0.52901  -0.52543
 Alpha  occ. eigenvalues --   -0.52307  -0.49847  -0.48912  -0.48886  -0.47839
 Alpha  occ. eigenvalues --   -0.46542  -0.45791  -0.45680  -0.44702  -0.43698
 Alpha  occ. eigenvalues --   -0.37335  -0.36277
 Alpha virt. eigenvalues --    0.04962   0.11267   0.16390   0.20802   0.23153
 Alpha virt. eigenvalues --    0.24245   0.25839   0.26669   0.27889   0.28015
 Alpha virt. eigenvalues --    0.29759   0.30734   0.31500   0.31808   0.31950

 Mulliken charges:
               1
     1  C   -0.295789
     2  C   -0.312296
     3  C   -0.474663
     4  H    0.152524
     5  H    0.146082
     6  H    0.163019
     7  H    0.151577
     8  H    0.151890
     9  H    0.156939
    10  H    0.159488
    11  C   -0.309344
    12  C   -0.298467
    13  C   -0.476628
    14  H    0.170737
    15  H    0.133886
    16  H    0.155163
    17  H    0.149654
    18  H    0.148556
    19  H    0.160608
    20  H    0.161042
    21  C   -0.169864
    22  C   -0.219463
    23  C   -0.170378
    24  C    0.159238
    25  C   -0.171118
    26  C   -0.222539
    27  H    0.225702
    28  H    0.223354
    29  H    0.275414
    30  H    0.284000
    31  H    0.223330
    32  N    0.488976
    33  O   -0.461456
    34  O   -0.459173
 Sum of Mulliken charges =  -0.00000

 Dipole moment (field-independent basis, Debye):
    X=             -1.1156    Y=             -1.5215    Z=             -4.6457  Tot=              5.0142
 Quadrupole moment (field-independent basis, Debye-Ang):
   XX=            -86.5963   YY=            -94.3210   ZZ=            -99.0263
   XY=              1.5167   XZ=              9.6300   YZ=              1.9425

 Normal termination of Gaussian 16 at Thu May  6 07:27:12 2021.
