 Gaussian 16, Revision A.03,
 Gaussian 16:  EM64L-G16RevA.03 25-Dec-2016

 -------------
 #p 6-31g* mp2
 -------------

 ------------------------------------------------------
 Input file generated by CHIRIPA (05-May-2021 14:53:15)
 ------------------------------------------------------
 Symbolic Z-matrix:
 Charge =  0 Multiplicity = 1

                         Standard orientation:
 ---------------------------------------------------------------------
 Center     Atomic      Atomic             Coordinates (Angstroms)
 Number     Number       Type             X           Y           Z
 ---------------------------------------------------------------------
      1          6           0        5.360513    0.245876    0.409855
      2          6           0        6.620564    0.351600   -0.449842
      3          6           0        7.710884    1.202916    0.201509
      4          1           0        4.972100    1.254738    0.605506
      5          1           0        5.626268   -0.181605    1.386598
      6          1           0        6.352277    0.777471   -1.425174
      7          1           0        7.005914   -0.657641   -0.643629
      8          1           0        8.007042    0.777645    1.165893
      9          1           0        7.349691    2.220911    0.379908
     10          1           0        8.602587    1.265117   -0.430041
     11          6           0        4.261398   -0.602036   -0.227892
     12          6           0        3.001347   -0.707760    0.631804
     13          6           0        1.911027   -1.559075   -0.019547
     14          1           0        3.995643   -0.174554   -1.204636
     15          1           0        4.649811   -1.610897   -0.423544
     16          1           0        2.615997    0.301482    0.825592
     17          1           0        3.269634   -1.133631    1.607136
     18          1           0        2.272220   -2.577070   -0.197946
     19          1           0        1.614869   -1.133804   -0.983931
     20          1           0        1.019324   -1.621276    0.612003
     21          6           0       -6.232965    0.444715    0.316027
     22          6           0       -5.407698    1.561386    0.147211
     23          6           0       -4.035290    1.403969   -0.067887
     24          6           0       -3.519342    0.109582   -0.108503
     25          6           0       -4.315584   -1.022750    0.056166
     26          6           0       -5.685240   -0.841522    0.270046
     27          1           0       -7.298016    0.576249    0.482648
     28          1           0       -5.830315    2.561485    0.182439
     29          1           0       -3.373460    2.251019   -0.201692
     30          1           0       -3.865290   -2.007148    0.015985
     31          1           0       -6.323750   -1.710571    0.400825
     32          7           0       -2.067893   -0.069673   -0.335574
     33          8           0       -1.637831   -1.220626   -0.367081
     34          8           0       -1.387791    0.944174   -0.477744
 ---------------------------------------------------------------------

 SCF Done:  E(RHF) =  -669.535881625     A.U. after   15 cycles
 E2 =    -0.2091050201D+01 EUMP2 =    -0.67162693182556D+03

 The electronic state is 1-A.
 Alpha  occ. eigenvalues --  -20.60943 -20.60937 -15.85970 -11.31301 -11.27864
 Alpha  occ. eigenvalues --  -11.27860 -11.27602 -11.26871 -11.26862 -11.20850
 Alpha  occ. eigenvalues --  -11.20459 -11.20452 -11.20201 -11.20070 -11.18990
 Alpha  occ. eigenvalues --   -1.60000  -1.39556  -1.19469  -1.08872  -1.07344
 Alpha  occ. eigenvalues --   -1.04865  -1.02330  -0.95715  -0.94747  -0.86266
 Alpha  occ. eigenvalues --   -0.85760  -0.82544  -0.78447  -0.77597  -0.77104
 Alpha  occ. eigenvalues --   -0.72184  -0.71318  -0.70576  -0.65123  -0.64868
 Alpha  occ. eigenvalues --   -0.63986  -0.62212  -0.59733  -0.58214  -0.56351
 Alpha  occ. eigenvalues --   -0.55370  -0.54051  -0.53198  -0.52957  -0.51446
 Alpha  occ. eigenvalues --   -0.51189  -0.49026  -0.48940  -0.48556  -0.46739
 Alpha  occ. eigenvalues --   -0.45506  -0.44969  -0.44639  -0.44539  -0.42530
 Alpha  occ. eigenvalues --   -0.37448  -0.36467
 Alpha virt. eigenvalues --    0.04916   0.11188   0.16410   0.21327   0.23865
 Alpha virt. eigenvalues --    0.25586   0.27242   0.27676   0.28208   0.28512
 Alpha virt. eigenvalues --    0.29316   0.30901   0.32425   0.32559   0.32724

 Mulliken charges:
               1
     1  C   -0.297277
     2  C   -0.298801
     3  C   -0.475067
     4  H    0.148967
     5  H    0.147020
     6  H    0.151376
     7  H    0.150479
     8  H    0.153880
     9  H    0.154347
    10  H    0.157918
    11  C   -0.297333
    12  C   -0.301364
    13  C   -0.471332
    14  H    0.149732
    15  H    0.146181
    16  H    0.154184
    17  H    0.144237
    18  H    0.142593
    19  H    0.162465
    20  H    0.173242
    21  C   -0.170597
    22  C   -0.218572
    23  C   -0.170776
    24  C    0.158172
    25  C   -0.170871
    26  C   -0.218549
    27  H    0.226006
    28  H    0.223816
    29  H    0.275770
    30  H    0.275921
    31  H    0.223863
    32  N    0.488276
    33  O   -0.458178
    34  O   -0.459726
 Sum of Mulliken charges =  -0.00000

 Dipole moment (field-independent basis, Debye):
    X=             -5.5503    Y=              0.6630    Z=              0.7515  Tot=              5.6400
 Quadrupole moment (field-independent basis, Debye-Ang):
   XX=            -61.5768   YY=            -89.5222   ZZ=            -95.8577
   XY=             -2.8394   XZ=             -2.6701   YZ=             -0.8369

 Normal termination of Gaussian 16 at Thu May  6 05:53:25 2021.
