 Gaussian 16, Revision A.03,
 Gaussian 16:  EM64L-G16RevA.03 25-Dec-2016

 -------------
 #p 6-31g* mp2
 -------------

 ------------------------------------------------------
 Input file generated by CHIRIPA (05-May-2021 14:53:15)
 ------------------------------------------------------
 Symbolic Z-matrix:
 Charge =  0 Multiplicity = 1

                         Standard orientation:
 ---------------------------------------------------------------------
 Center     Atomic      Atomic             Coordinates (Angstroms)
 Number     Number       Type             X           Y           Z
 ---------------------------------------------------------------------
      1          6           0        3.448802   -0.445412    0.272655
      2          6           0        2.729489   -1.745600   -0.088019
      3          6           0        1.317757   -1.821315    0.494282
      4          1           0        3.496142   -0.351199    1.366194
      5          1           0        2.855823    0.406024   -0.089047
      6          1           0        3.324334   -2.594371    0.273039
      7          1           0        2.684024   -1.836823   -1.180827
      8          1           0        0.703652   -0.993789    0.124583
      9          1           0        1.347599   -1.755642    1.586709
     10          1           0        0.821825   -2.758845    0.224192
     11          6           0        4.861252   -0.354904   -0.302254
     12          6           0        5.580565    0.945284    0.058420
     13          6           0        6.992296    1.020998   -0.523881
     14          1           0        5.454230   -1.206340    0.059448
     15          1           0        4.813911   -0.449118   -1.395793
     16          1           0        5.626029    1.036507    1.151227
     17          1           0        4.985720    1.794055   -0.302638
     18          1           0        6.962454    0.955325   -1.616308
     19          1           0        7.606402    0.193473   -0.154182
     20          1           0        7.488228    1.958529   -0.253791
     21          6           0       -2.431046    2.684446    0.287322
     22          6           0       -1.650048    1.618184    0.745195
     23          6           0       -2.091686    0.299948    0.597696
     24          6           0       -3.324913    0.083325   -0.015097
     25          6           0       -4.125905    1.124490   -0.481655
     26          6           0       -3.664307    2.434637   -0.323564
     27          1           0       -2.080218    3.705342    0.406016
     28          1           0       -0.691865    1.809205    1.220002
     29          1           0       -1.507238   -0.544203    0.943020
     30          1           0       -5.076685    0.902623   -0.950918
     31          1           0       -4.272955    3.260751   -0.680115
     32          7           0       -3.803019   -1.307952   -0.176853
     33          8           0       -4.893195   -1.472246   -0.720143
     34          8           0       -3.078531   -2.207795    0.242713
 ---------------------------------------------------------------------

 SCF Done:  E(RHF) =  -669.535511952     A.U. after   15 cycles
 E2 =    -0.2091337251D+01 EUMP2 =    -0.67162684920215D+03

 The electronic state is 1-A.
 Alpha  occ. eigenvalues --  -20.60723 -20.60717 -15.85775 -11.31135 -11.27726
 Alpha  occ. eigenvalues --  -11.27656 -11.27471 -11.26743 -11.26723 -11.21902
 Alpha  occ. eigenvalues --  -11.21854 -11.21744 -11.21646 -11.21365 -11.21313
 Alpha  occ. eigenvalues --   -1.59797  -1.39350  -1.19319  -1.08731  -1.08716
 Alpha  occ. eigenvalues --   -1.04725  -1.03811  -0.96273  -0.95547  -0.87298
 Alpha  occ. eigenvalues --   -0.86116  -0.82381  -0.79890  -0.78561  -0.77418
 Alpha  occ. eigenvalues --   -0.71994  -0.71121  -0.70433  -0.65363  -0.64972
 Alpha  occ. eigenvalues --   -0.64728  -0.62110  -0.61186  -0.59610  -0.57874
 Alpha  occ. eigenvalues --   -0.55594  -0.55215  -0.53086  -0.52995  -0.52841
 Alpha  occ. eigenvalues --   -0.52560  -0.50212  -0.48754  -0.48747  -0.48191
 Alpha  occ. eigenvalues --   -0.46912  -0.46096  -0.46020  -0.44756  -0.44052
 Alpha  occ. eigenvalues --   -0.37307  -0.36316
 Alpha virt. eigenvalues --    0.05072   0.11301   0.16532   0.20949   0.22612
 Alpha virt. eigenvalues --    0.24021   0.25840   0.26334   0.27192   0.28017
 Alpha virt. eigenvalues --    0.29268   0.30159   0.31397   0.31614   0.31936

 Mulliken charges:
               1
     1  C   -0.298327
     2  C   -0.300338
     3  C   -0.481974
     4  H    0.148359
     5  H    0.145060
     6  H    0.154639
     7  H    0.154764
     8  H    0.147530
     9  H    0.152760
    10  H    0.174533
    11  C   -0.298399
    12  C   -0.299592
    13  C   -0.475838
    14  H    0.151210
    15  H    0.150959
    16  H    0.151517
    17  H    0.150084
    18  H    0.155860
    19  H    0.156226
    20  H    0.160281
    21  C   -0.170582
    22  C   -0.221840
    23  C   -0.176036
    24  C    0.157385
    25  C   -0.170634
    26  C   -0.218794
    27  H    0.225415
    28  H    0.224381
    29  H    0.285966
    30  H    0.275448
    31  H    0.223257
    32  N    0.487612
    33  O   -0.460778
    34  O   -0.460114
 Sum of Mulliken charges =  -0.00000

 Dipole moment (field-independent basis, Debye):
    X=              1.7604    Y=              4.7872    Z=              0.5390  Tot=              5.1290
 Quadrupole moment (field-independent basis, Debye-Ang):
   XX=           -103.4808   YY=            -93.4282   ZZ=            -93.9688
   XY=            -18.5165   XZ=              0.7749   YZ=             -1.1594

 Normal termination of Gaussian 16 at Thu May  6 10:37:03 2021.
