 Gaussian 16, Revision A.03,
 Gaussian 16:  EM64L-G16RevA.03 25-Dec-2016

 -------------
 #p 6-31g* mp2
 -------------

 ------------------------------------------------------
 Input file generated by CHIRIPA (05-May-2021 14:53:13)
 ------------------------------------------------------
 Symbolic Z-matrix:
 Charge =  0 Multiplicity = 1

                         Standard orientation:
 ---------------------------------------------------------------------
 Center     Atomic      Atomic             Coordinates (Angstroms)
 Number     Number       Type             X           Y           Z
 ---------------------------------------------------------------------
      1          6           0        2.974331   -0.394688   -0.455168
      2          6           0        3.722942   -1.727941   -0.452987
      3          6           0        2.908475   -2.864236   -1.072075
      4          1           0        2.029301   -0.511174    0.092823
      5          1           0        2.706398   -0.134271   -1.488507
      6          1           0        3.990595   -1.985084    0.579900
      7          1           0        4.666389   -1.608217   -1.000883
      8          1           0        2.653396   -2.633490   -2.111446
      9          1           0        1.973763   -3.012498   -0.521681
     10          1           0        3.462526   -3.808030   -1.060220
     11          6           0        3.775604    0.751007    0.160521
     12          6           0        3.026993    2.084259    0.158339
     13          6           0        3.841460    3.220555    0.777427
     14          1           0        4.043537    0.490590    1.193860
     15          1           0        4.720634    0.867492   -0.387471
     16          1           0        2.083546    1.964536    0.706235
     17          1           0        2.759339    2.341402   -0.874547
     18          1           0        4.776172    3.368817    0.227034
     19          1           0        4.096538    2.989809    1.816799
     20          1           0        3.287409    4.164349    0.765573
     21          6           0       -1.412104   -1.581124    1.784563
     22          6           0       -2.480217   -0.780197    2.201902
     23          6           0       -3.165961    0.022732    1.285600
     24          6           0       -2.755082    0.000215   -0.046302
     25          6           0       -1.694798   -0.786969   -0.492876
     26          6           0       -1.023489   -1.581953    0.440876
     27          1           0       -0.885008   -2.201773    2.503148
     28          1           0       -2.784212   -0.777547    3.244795
     29          1           0       -3.996303    0.652313    1.581538
     30          1           0       -1.414849   -0.768470   -1.539158
     31          1           0       -0.194340   -2.202965    0.113920
     32          7           0       -3.473408    0.846033   -1.025586
     33          8           0       -3.091929    0.808347   -2.193358
     34          8           0       -4.404308    1.530656   -0.606834
 ---------------------------------------------------------------------

 SCF Done:  E(RHF) =  -669.535466054     A.U. after   15 cycles
 E2 =    -0.2091902653D+01 EUMP2 =    -0.67162736870660D+03

 The electronic state is 1-A.
 Alpha  occ. eigenvalues --  -20.60760 -20.60754 -15.85814 -11.31186 -11.27767
 Alpha  occ. eigenvalues --  -11.27756 -11.27515 -11.26780 -11.26750 -11.22293
 Alpha  occ. eigenvalues --  -11.22028 -11.21947 -11.21850 -11.21767 -11.21260
 Alpha  occ. eigenvalues --   -1.59835  -1.39388  -1.19367  -1.08937  -1.08759
 Alpha  occ. eigenvalues --   -1.04770  -1.04043  -0.96510  -0.95592  -0.87529
 Alpha  occ. eigenvalues --   -0.86170  -0.82425  -0.80114  -0.78720  -0.77462
 Alpha  occ. eigenvalues --   -0.72032  -0.71158  -0.70474  -0.65614  -0.65017
 Alpha  occ. eigenvalues --   -0.64761  -0.62158  -0.61406  -0.59882  -0.58103
 Alpha  occ. eigenvalues --   -0.55832  -0.55271  -0.53200  -0.53109  -0.53019
 Alpha  occ. eigenvalues --   -0.52779  -0.50467  -0.48801  -0.48786  -0.48407
 Alpha  occ. eigenvalues --   -0.47131  -0.46255  -0.46157  -0.44791  -0.44276
 Alpha  occ. eigenvalues --   -0.37347  -0.36350
 Alpha virt. eigenvalues --    0.05064   0.11198   0.16482   0.19635   0.22740
 Alpha virt. eigenvalues --    0.23746   0.25454   0.26486   0.27271   0.28291
 Alpha virt. eigenvalues --    0.28893   0.29982   0.31222   0.31563   0.32103

 Mulliken charges:
               1
     1  C   -0.303131
     2  C   -0.300007
     3  C   -0.479292
     4  H    0.147926
     5  H    0.151625
     6  H    0.151629
     7  H    0.156099
     8  H    0.158997
     9  H    0.144570
    10  H    0.165028
    11  C   -0.298187
    12  C   -0.300641
    13  C   -0.476112
    14  H    0.148578
    15  H    0.151263
    16  H    0.152937
    17  H    0.154722
    18  H    0.155730
    19  H    0.154201
    20  H    0.162628
    21  C   -0.174418
    22  C   -0.218622
    23  C   -0.170851
    24  C    0.158653
    25  C   -0.173425
    26  C   -0.224638
    27  H    0.225879
    28  H    0.223400
    29  H    0.275653
    30  H    0.276785
    31  H    0.235710
    32  N    0.488131
    33  O   -0.460217
    34  O   -0.460602
 Sum of Mulliken charges =  -0.00000

 Dipole moment (field-independent basis, Debye):
    X=              2.6352    Y=             -2.9109    Z=              3.4052  Tot=              5.1974
 Quadrupole moment (field-independent basis, Debye-Ang):
   XX=           -107.0178   YY=            -95.6221   ZZ=            -91.9736
   XY=              6.7647   XZ=            -13.0000   YZ=              0.9498

 Normal termination of Gaussian 16 at Thu May  6 12:03:15 2021.
