 Gaussian 16, Revision A.03,
 Gaussian 16:  EM64L-G16RevA.03 25-Dec-2016

 -------------
 #p 6-31g* mp2
 -------------

 ------------------------------------------------------
 Input file generated by CHIRIPA (05-May-2021 14:57:22)
 ------------------------------------------------------
 Symbolic Z-matrix:
 Charge =  0 Multiplicity = 1

                         Standard orientation:
 ---------------------------------------------------------------------
 Center     Atomic      Atomic             Coordinates (Angstroms)
 Number     Number       Type             X           Y           Z
 ---------------------------------------------------------------------
      1          6           0        1.442352   -2.548272    0.103439
      2          6           0        1.421649   -1.779157   -1.064702
      3          6           0        2.081977   -0.547942   -1.115943
      4          6           0        2.756235   -0.114391    0.024539
      5          6           0        2.795157   -0.857759    1.203174
      6          6           0        2.127831   -2.085934    1.231660
      7          1           0        0.926676   -3.503529    0.134406
      8          1           0        0.890101   -2.135710   -1.942411
      9          1           0        2.082092    0.067706   -2.007232
     10          1           0        3.333510   -0.475929    2.062127
     11          1           0        2.145602   -2.681119    2.140221
     12          7           0        3.458998    1.187431   -0.017663
     13          8           0        4.045861    1.547102    1.000604
     14          8           0        3.409655    1.823479   -1.068208
     15          6           0       -2.223351    2.813533    0.105692
     16          6           0       -1.278346    1.977389   -0.497923
     17          6           0       -1.498922    0.599263   -0.579540
     18          6           0       -2.680731    0.088747   -0.044757
     19          6           0       -3.641370    0.895819    0.562777
     20          6           0       -3.399772    2.271035    0.633185
     21          1           0       -2.043837    3.882964    0.164740
     22          1           0       -0.363824    2.395926   -0.908435
     23          1           0       -0.784192   -0.070993   -1.041424
     24          1           0       -4.543549    0.449375    0.963002
     25          1           0       -4.135443    2.917991    1.102528
     26          7           0       -2.925372   -1.368674   -0.125228
     27          8           0       -3.974536   -1.793764    0.353509
     28          8           0       -2.063326   -2.058313   -0.665516
 ---------------------------------------------------------------------

 SCF Done:  E(RHF) =  -868.339583004     A.U. after   16 cycles
 E2 =    -0.2602277508D+01 EUMP2 =    -0.87094186051269D+03

 The electronic state is 1-A.
 Alpha  occ. eigenvalues --  -20.61313 -20.61258 -20.61135 -20.61105 -15.86320
 Alpha  occ. eigenvalues --  -15.86163 -11.31334 -11.31330 -11.27891 -11.27884
 Alpha  occ. eigenvalues --  -11.27842 -11.27766 -11.27532 -11.27341 -11.26826
 Alpha  occ. eigenvalues --  -11.26734 -11.26734 -11.26675  -1.60354  -1.60202
 Alpha  occ. eigenvalues --   -1.39922  -1.39761  -1.19497  -1.19445  -1.08934
 Alpha  occ. eigenvalues --   -1.08826  -1.04922  -1.04760  -0.95831  -0.95710
 Alpha  occ. eigenvalues --   -0.86257  -0.86179  -0.82691  -0.82563  -0.77859
 Alpha  occ. eigenvalues --   -0.77609  -0.72584  -0.72372  -0.71662  -0.71533
 Alpha  occ. eigenvalues --   -0.70591  -0.70425  -0.65155  -0.65083  -0.64841
 Alpha  occ. eigenvalues --   -0.64708  -0.62336  -0.62058  -0.55355  -0.55151
 Alpha  occ. eigenvalues --   -0.53413  -0.53157  -0.52872  -0.52625  -0.49335
 Alpha  occ. eigenvalues --   -0.49270  -0.49153  -0.49102  -0.45408  -0.45212
 Alpha  occ. eigenvalues --   -0.37441  -0.37294  -0.36582  -0.36265
 Alpha virt. eigenvalues --    0.04668   0.04857   0.11101   0.11260   0.16182
 Alpha virt. eigenvalues --    0.16410   0.20939   0.22092   0.26428   0.27596
 Alpha virt. eigenvalues --    0.28556   0.29336   0.30458   0.31540   0.32418

 Mulliken charges:
               1
     1  C   -0.161314
     2  C   -0.222127
     3  C   -0.188263
     4  C    0.160216
     5  C   -0.171053
     6  C   -0.220613
     7  H    0.238659
     8  H    0.234562
     9  H    0.271709
    10  H    0.275178
    11  H    0.225661
    12  N    0.487718
    13  O   -0.458753
    14  O   -0.466113
    15  C   -0.169329
    16  C   -0.226759
    17  C   -0.170732
    18  C    0.153245
    19  C   -0.170409
    20  C   -0.219511
    21  H    0.229149
    22  H    0.232066
    23  H    0.280185
    24  H    0.274651
    25  H    0.224011
    26  N    0.489748
    27  O   -0.458178
    28  O   -0.473604
 Sum of Mulliken charges =  -0.00000

 Dipole moment (field-independent basis, Debye):
    X=             -1.6473    Y=              0.3404    Z=              0.5681  Tot=              1.7755
 Quadrupole moment (field-independent basis, Debye-Ang):
   XX=           -120.1600   YY=           -102.7507   ZZ=           -100.0417
   XY=            -27.7322   XZ=             -1.0986   YZ=             -0.6675

 Normal termination of Gaussian 16 at Fri May  7 00:11:12 2021.
