 Gaussian 16, Revision A.03,
 Gaussian 16:  EM64L-G16RevA.03 25-Dec-2016

 -------------
 #p 6-31g* mp2
 -------------

 ------------------------------------------------------
 Input file generated by CHIRIPA (05-May-2021 14:57:24)
 ------------------------------------------------------
 Symbolic Z-matrix:
 Charge =  0 Multiplicity = 1

                         Standard orientation:
 ---------------------------------------------------------------------
 Center     Atomic      Atomic             Coordinates (Angstroms)
 Number     Number       Type             X           Y           Z
 ---------------------------------------------------------------------
      1          6           0       -3.218064    0.645908   -0.866266
      2          6           0       -2.362091    0.011159   -1.772316
      3          6           0       -1.406469   -0.905331   -1.323559
      4          6           0       -1.334084   -1.164594    0.044225
      5          6           0       -2.172709   -0.548378    0.971735
      6          6           0       -3.120812    0.364610    0.500458
      7          1           0       -3.957493    1.356498   -1.223619
      8          1           0       -2.435350    0.227676   -2.834294
      9          1           0       -0.731272   -1.411026   -2.003117
     10          1           0       -2.075795   -0.784680    2.024439
     11          1           0       -3.784259    0.856065    1.206400
     12          7           0       -0.326390   -2.132986    0.531224
     13          8           0       -0.282784   -2.344117    1.741248
     14          8           0        0.400755   -2.662544   -0.306312
     15          6           0       -0.121670    2.728821    0.910101
     16          6           0        0.580679    1.912460    1.802726
     17          6           0        1.481815    0.953961    1.329669
     18          6           0        1.656957    0.838338   -0.048463
     19          6           0        0.972033    1.636869   -0.963075
     20          6           0        0.075900    2.588668   -0.467522
     21          1           0       -0.819752    3.470804    1.286320
     22          1           0        0.429251    2.019084    2.873121
     23          1           0        2.038648    0.308876    1.998414
     24          1           0        1.144134    1.507177   -2.024668
     25          1           0       -0.468182    3.221293   -1.163083
     26          7           0        2.608301   -0.172836   -0.561174
     27          8           0        2.744745   -0.254941   -1.779894
     28          8           0        3.199506   -0.864142    0.265390
 ---------------------------------------------------------------------

 SCF Done:  E(RHF) =  -868.333589731     A.U. after   16 cycles
 E2 =    -0.2610993024D+01 EUMP2 =    -0.87094458275453D+03

 The electronic state is 1-A.
 Alpha  occ. eigenvalues --  -20.60813 -20.60748 -20.60205 -20.60119 -15.85792
 Alpha  occ. eigenvalues --  -15.85236 -11.31285 -11.30924 -11.27963 -11.27842
 Alpha  occ. eigenvalues --  -11.27706 -11.27665 -11.27491 -11.27471 -11.26982
 Alpha  occ. eigenvalues --  -11.26906 -11.26751 -11.26637  -1.59844  -1.59217
 Alpha  occ. eigenvalues --   -1.39394  -1.38772  -1.19567  -1.19153  -1.08905
 Alpha  occ. eigenvalues --   -1.08528  -1.04975  -1.04625  -0.95700  -0.95300
 Alpha  occ. eigenvalues --   -0.86352  -0.86045  -0.82533  -0.82130  -0.77556
 Alpha  occ. eigenvalues --   -0.77097  -0.72040  -0.71581  -0.71462  -0.70655
 Alpha  occ. eigenvalues --   -0.70334  -0.70138  -0.65172  -0.64978  -0.64840
 Alpha  occ. eigenvalues --   -0.64668  -0.62304  -0.61979  -0.55476  -0.55182
 Alpha  occ. eigenvalues --   -0.54468  -0.53050  -0.52754  -0.51744  -0.48791
 Alpha  occ. eigenvalues --   -0.48772  -0.48246  -0.48181  -0.44781  -0.44054
 Alpha  occ. eigenvalues --   -0.38312  -0.37691  -0.36255  -0.35238
 Alpha virt. eigenvalues --    0.04774   0.05488   0.10780   0.11663   0.16405
 Alpha virt. eigenvalues --    0.16955   0.20729   0.21805   0.26471   0.27490
 Alpha virt. eigenvalues --    0.27999   0.28672   0.30541   0.30785   0.32435

 Mulliken charges:
               1
     1  C   -0.172548
     2  C   -0.220746
     3  C   -0.172825
     4  C    0.160185
     5  C   -0.165608
     6  C   -0.219563
     7  H    0.222149
     8  H    0.221975
     9  H    0.283164
    10  H    0.272616
    11  H    0.219189
    12  N    0.485191
    13  O   -0.462064
    14  O   -0.449235
    15  C   -0.168918
    16  C   -0.220383
    17  C   -0.173591
    18  C    0.149164
    19  C   -0.170028
    20  C   -0.211286
    21  H    0.220245
    22  H    0.222447
    23  H    0.284322
    24  H    0.271010
    25  H    0.216831
    26  N    0.493274
    27  O   -0.466351
    28  O   -0.448617
 Sum of Mulliken charges =  -0.00000

 Dipole moment (field-independent basis, Debye):
    X=             -6.6451    Y=              6.6359    Z=              0.1446  Tot=              9.3922
 Quadrupole moment (field-independent basis, Debye-Ang):
   XX=           -107.3518   YY=           -107.7467   ZZ=            -96.6669
   XY=              1.7576   XZ=              4.9930   YZ=              2.9371

 Normal termination of Gaussian 16 at Thu May  6 19:40:05 2021.
