 Gaussian 16, Revision A.03,
 Gaussian 16:  EM64L-G16RevA.03 25-Dec-2016

 -------------
 #p 6-31g* mp2
 -------------

 ------------------------------------------------------
 Input file generated by CHIRIPA (05-May-2021 14:51:08)
 ------------------------------------------------------
 Symbolic Z-matrix:
 Charge =  0 Multiplicity = 1

                         Standard orientation:
 ---------------------------------------------------------------------
 Center     Atomic      Atomic             Coordinates (Angstroms)
 Number     Number       Type             X           Y           Z
 ---------------------------------------------------------------------
      1          6           0       -5.092715   -0.594508   -0.077474
      2          6           0       -6.273855    0.336242   -0.354237
      3          6           0       -7.515951   -0.412712   -0.838034
      4          1           0       -4.852452   -1.153555   -0.992179
      5          1           0       -5.389559   -1.338509    0.674683
      6          1           0       -5.974435    1.079121   -1.104633
      7          1           0       -6.511211    0.893278    0.561180
      8          1           0       -7.842004   -1.142007   -0.089422
      9          1           0       -7.302178   -0.955107   -1.764700
     10          1           0       -8.348158    0.271762   -1.029835
     11          6           0       -3.843574    0.139479    0.406923
     12          6           0       -2.662434   -0.791271    0.683686
     13          6           0       -1.420338   -0.042317    1.167483
     14          1           0       -3.546730    0.883480   -0.345234
     15          1           0       -4.083837    0.698526    1.321628
     16          1           0       -2.425078   -1.348307   -0.231732
     17          1           0       -2.961854   -1.534150    1.434081
     18          1           0       -1.634111    0.500078    2.094149
     19          1           0       -1.094285    0.686978    0.418871
     20          1           0       -0.588131   -0.726791    1.359284
     21          6           0        3.817836    0.419061   -0.516633
     22          6           0        2.854155    1.203057    0.374801
     23          6           0        1.557742    1.579031   -0.343357
     24          1           0        4.051060    1.016892   -1.408345
     25          1           0        3.317595   -0.491998   -0.873180
     26          1           0        3.356536    2.111673    0.730677
     27          1           0        2.623348    0.603370    1.264587
     28          1           0        1.031865    0.681324   -0.684203
     29          1           0        1.769219    2.198196   -1.221146
     30          1           0        0.883452    2.138865    0.312218
     31          6           0        5.118453    0.035968    0.187185
     32          6           0        6.082134   -0.748028   -0.704250
     33          6           0        7.378547   -1.124003    0.013908
     34          1           0        5.618694    0.947027    0.543732
     35          1           0        4.885229   -0.561863    1.078896
     36          1           0        6.312941   -0.148341   -1.594036
     37          1           0        5.579754   -1.656644   -1.060126
     38          1           0        7.167070   -1.743168    0.891697
     39          1           0        7.904424   -0.226295    0.354754
     40          1           0        8.052837   -1.683836   -0.641667
 ---------------------------------------------------------------------

 SCF Done:  E(RHF) =  -470.732120526     A.U. after   11 cycles
 E2 =    -0.1582820559D+01 EUMP2 =    -0.47231494108450D+03

 The electronic state is 1-A.
 Alpha  occ. eigenvalues --  -11.21591 -11.21582 -11.21562 -11.21543 -11.21386
 Alpha  occ. eigenvalues --  -11.21375 -11.21327 -11.21315 -11.21063 -11.21056
 Alpha  occ. eigenvalues --  -11.20974 -11.20918  -1.08414  -1.08389  -1.03542
 Alpha  occ. eigenvalues --   -1.03451  -0.96047  -0.95853  -0.87113  -0.86829
 Alpha  occ. eigenvalues --   -0.79669  -0.79462  -0.78232  -0.78199  -0.65081
 Alpha  occ. eigenvalues --   -0.64994  -0.61076  -0.60756  -0.59341  -0.59303
 Alpha  occ. eigenvalues --   -0.57616  -0.57498  -0.55546  -0.54979  -0.52821
 Alpha  occ. eigenvalues --   -0.52592  -0.52383  -0.52225  -0.50165  -0.49566
 Alpha  occ. eigenvalues --   -0.47908  -0.47837  -0.46738  -0.46409  -0.45772
 Alpha  occ. eigenvalues --   -0.45746  -0.45706  -0.45616  -0.43754  -0.43713
 Alpha virt. eigenvalues --    0.22198   0.22987   0.23666   0.24836   0.26564
 Alpha virt. eigenvalues --    0.26644   0.27159   0.27461   0.27656   0.29244
 Alpha virt. eigenvalues --    0.30471   0.31262   0.31402   0.31855   0.32277

 Mulliken charges:
               1
     1  C   -0.298203
     2  C   -0.299637
     3  C   -0.475683
     4  H    0.149542
     5  H    0.149454
     6  H    0.151933
     7  H    0.151882
     8  H    0.155134
     9  H    0.155142
    10  H    0.160190
    11  C   -0.298404
    12  C   -0.299841
    13  C   -0.480025
    14  H    0.149664
    15  H    0.149499
    16  H    0.151136
    17  H    0.151274
    18  H    0.153713
    19  H    0.163805
    20  H    0.158626
    21  C   -0.298647
    22  C   -0.300060
    23  C   -0.477889
    24  H    0.149556
    25  H    0.149462
    26  H    0.151717
    27  H    0.152585
    28  H    0.158111
    29  H    0.153701
    30  H    0.162431
    31  C   -0.298280
    32  C   -0.299623
    33  C   -0.475688
    34  H    0.149535
    35  H    0.149599
    36  H    0.151900
    37  H    0.151847
    38  H    0.155162
    39  H    0.155179
    40  H    0.160199
 Sum of Mulliken charges =  -0.00000

 Dipole moment (field-independent basis, Debye):
    X=              0.0148    Y=              0.0244    Z=             -0.0076  Tot=              0.0295
 Quadrupole moment (field-independent basis, Debye-Ang):
   XX=            -86.6543   YY=            -84.3142   ZZ=            -84.0731
   XY=              0.3110   XZ=             -1.1083   YZ=             -0.3587

 Normal termination of Gaussian 16 at Wed May  5 16:34:52 2021.
