 Gaussian 16, Revision A.03,
 Gaussian 16:  EM64L-G16RevA.03 25-Dec-2016

 -------------
 #p 6-31g* mp2
 -------------

 ------------------------------------------------------
 Input file generated by CHIRIPA (05-May-2021 14:55:20)
 ------------------------------------------------------
 Symbolic Z-matrix:
 Charge =  0 Multiplicity = 1

                         Standard orientation:
 ---------------------------------------------------------------------
 Center     Atomic      Atomic             Coordinates (Angstroms)
 Number     Number       Type             X           Y           Z
 ---------------------------------------------------------------------
      1          6           0        4.268938    1.341512   -0.074680
      2          6           0        2.905889    1.639581   -0.173550
      3          6           0        1.952085    0.617703   -0.149677
      4          6           0        2.398567   -0.697006   -0.025245
      5          6           0        3.749479   -1.025977    0.075283
      6          6           0        4.685647    0.012029    0.049203
      7          1           0        5.003026    2.141596   -0.094082
      8          1           0        2.579372    2.671161   -0.269852
      9          1           0        0.890569    0.820223   -0.224436
     10          1           0        4.044460   -2.063944    0.170302
     11          1           0        5.743550   -0.222415    0.126174
     12          7           0        1.398152   -1.787360    0.001197
     13          8           0        1.817260   -2.937484    0.111649
     14          8           0        0.213861   -1.471209   -0.089031
     15          6           0       -3.642045    0.073550    0.364670
     16          6           0       -4.657549   -0.602536   -0.557091
     17          6           0       -5.371227   -1.778233    0.110886
     18          1           0       -2.901373   -0.669231    0.691207
     19          1           0       -4.155584    0.422349    1.271319
     20          1           0       -4.142503   -0.948730   -1.462350
     21          1           0       -5.395780    0.141984   -0.881625
     22          1           0       -5.910257   -1.444838    1.003576
     23          1           0       -4.649860   -2.541748    0.419551
     24          1           0       -6.092611   -2.246873   -0.565753
     25          6           0       -2.920380    1.250746   -0.288887
     26          6           0       -1.904877    1.926832    0.632874
     27          6           0       -1.191199    3.102529   -0.035104
     28          1           0       -2.406842    0.901947   -1.195536
     29          1           0       -3.661052    1.993526   -0.615424
     30          1           0       -1.166646    1.182313    0.957408
     31          1           0       -2.419923    2.273026    1.538133
     32          1           0       -1.912566    3.866045   -0.343769
     33          1           0       -0.652169    2.769134   -0.927794
     34          1           0       -0.469815    3.571169    0.641536
 ---------------------------------------------------------------------

 SCF Done:  E(RHF) =  -669.535994453     A.U. after   15 cycles
 E2 =    -0.2092749863D+01 EUMP2 =    -0.67162874431637D+03

 The electronic state is 1-A.
 Alpha  occ. eigenvalues --  -20.60924 -20.60912 -15.85956 -11.31222 -11.27793
 Alpha  occ. eigenvalues --  -11.27733 -11.27520 -11.26796 -11.26759 -11.21596
 Alpha  occ. eigenvalues --  -11.21537 -11.21006 -11.20912 -11.20627 -11.20371
 Alpha  occ. eigenvalues --   -1.59982  -1.39540  -1.19392  -1.08807  -1.08012
 Alpha  occ. eigenvalues --   -1.04781  -1.03252  -0.95724  -0.95646  -0.86735
 Alpha  occ. eigenvalues --   -0.86187  -0.82488  -0.79331  -0.77746  -0.77539
 Alpha  occ. eigenvalues --   -0.72184  -0.71294  -0.70523  -0.65051  -0.64935
 Alpha  occ. eigenvalues --   -0.64518  -0.62208  -0.60543  -0.59152  -0.57286
 Alpha  occ. eigenvalues --   -0.55341  -0.54940  -0.53118  -0.52859  -0.52465
 Alpha  occ. eigenvalues --   -0.52125  -0.49683  -0.48926  -0.48918  -0.47627
 Alpha  occ. eigenvalues --   -0.46346  -0.45304  -0.45182  -0.44877  -0.43431
 Alpha  occ. eigenvalues --   -0.37375  -0.36376
 Alpha virt. eigenvalues --    0.04940   0.11235   0.16458   0.19747   0.23265
 Alpha virt. eigenvalues --    0.24281   0.26687   0.26787   0.27912   0.28335
 Alpha virt. eigenvalues --    0.29992   0.30406   0.31528   0.32014   0.32277

 Mulliken charges:
               1
     1  C   -0.170279
     2  C   -0.223674
     3  C   -0.179344
     4  C    0.156879
     5  C   -0.169851
     6  C   -0.219045
     7  H    0.225827
     8  H    0.225791
     9  H    0.291408
    10  H    0.275491
    11  H    0.223548
    12  N    0.489539
    13  O   -0.458966
    14  O   -0.465399
    15  C   -0.304099
    16  C   -0.299402
    17  C   -0.476596
    18  H    0.169421
    19  H    0.144894
    20  H    0.155308
    21  H    0.147331
    22  H    0.152304
    23  H    0.161180
    24  H    0.158007
    25  C   -0.296167
    26  C   -0.309728
    27  C   -0.482693
    28  H    0.153141
    29  H    0.146319
    30  H    0.160220
    31  H    0.154339
    32  H    0.161119
    33  H    0.147674
    34  H    0.155502
 Sum of Mulliken charges =  -0.00000

 Dipole moment (field-independent basis, Debye):
    X=              3.5453    Y=              3.6693    Z=             -0.0660  Tot=              5.1027
 Quadrupole moment (field-independent basis, Debye-Ang):
   XX=            -75.4875   YY=            -98.7808   ZZ=            -95.6739
   XY=              3.2928   XZ=             -0.0081   YZ=              0.1107

 Normal termination of Gaussian 16 at Thu May  6 12:26:36 2021.
