 Gaussian 16, Revision A.03,
 Gaussian 16:  EM64L-G16RevA.03 25-Dec-2016

 -------------
 #p 6-31g* mp2
 -------------

 ------------------------------------------------------
 Input file generated by CHIRIPA (05-May-2021 14:57:26)
 ------------------------------------------------------
 Symbolic Z-matrix:
 Charge =  0 Multiplicity = 1

                         Standard orientation:
 ---------------------------------------------------------------------
 Center     Atomic      Atomic             Coordinates (Angstroms)
 Number     Number       Type             X           Y           Z
 ---------------------------------------------------------------------
      1          6           0        2.970031    2.422044    0.860953
      2          6           0        2.031087    1.438680    1.189434
      3          6           0        2.149946    0.143757    0.676020
      4          6           0        3.224965   -0.134338   -0.166766
      5          6           0        4.176709    0.823722   -0.512592
      6          6           0        4.037962    2.111974    0.012485
      7          1           0        2.869973    3.425381    1.264316
      8          1           0        1.200698    1.676633    1.848129
      9          1           0        1.437386   -0.636670    0.913948
     10          1           0        4.993749    0.556466   -1.171711
     11          1           0        4.768662    2.873661   -0.244333
     12          7           0        3.361323   -1.501684   -0.716468
     13          8           0        4.317476   -1.721313   -1.456853
     14          8           0        2.509465   -2.327889   -0.396530
     15          6           0       -2.070931   -1.898561    1.424605
     16          6           0       -1.627318   -0.575199    1.516492
     17          6           0       -2.246792    0.434478    0.773960
     18          6           0       -3.311886    0.083729   -0.054193
     19          6           0       -3.776910   -1.225568   -0.167266
     20          6           0       -3.142423   -2.218957    0.584501
     21          1           0       -1.583878   -2.676576    2.005008
     22          1           0       -0.795411   -0.323460    2.168108
     23          1           0       -1.923691    1.467098    0.826105
     24          1           0       -4.608592   -1.445785   -0.825466
     25          1           0       -3.489069   -3.245845    0.511150
     26          7           0       -3.975643    1.144008   -0.845166
     27          8           0       -4.911969    0.809055   -1.567479
     28          8           0       -3.547000    2.289929   -0.727841
 ---------------------------------------------------------------------

 SCF Done:  E(RHF) =  -868.337063654     A.U. after   16 cycles
 E2 =    -0.2600554699D+01 EUMP2 =    -0.87093761835239D+03

 The electronic state is 1-A.
 Alpha  occ. eigenvalues --  -20.61197 -20.61177 -20.61024 -20.61007 -15.86247
 Alpha  occ. eigenvalues --  -15.86079 -11.31628 -11.31485 -11.28274 -11.28194
 Alpha  occ. eigenvalues --  -11.28179 -11.28040 -11.27954 -11.27817 -11.27334
 Alpha  occ. eigenvalues --  -11.27238 -11.27167 -11.26990  -1.60262  -1.60092
 Alpha  occ. eigenvalues --   -1.39817  -1.39646  -1.19817  -1.19681  -1.09197
 Alpha  occ. eigenvalues --   -1.09052  -1.05274  -1.05099  -0.96031  -0.95876
 Alpha  occ. eigenvalues --   -0.86646  -0.86503  -0.82916  -0.82707  -0.77994
 Alpha  occ. eigenvalues --   -0.77727  -0.72470  -0.72298  -0.71581  -0.71414
 Alpha  occ. eigenvalues --   -0.70926  -0.70755  -0.65507  -0.65371  -0.65271
 Alpha  occ. eigenvalues --   -0.65136  -0.62820  -0.62254  -0.55727  -0.55544
 Alpha  occ. eigenvalues --   -0.53564  -0.53473  -0.53299  -0.53180  -0.49229
 Alpha  occ. eigenvalues --   -0.49216  -0.49059  -0.49047  -0.45219  -0.45043
 Alpha  occ. eigenvalues --   -0.37770  -0.37615  -0.36948  -0.36603
 Alpha virt. eigenvalues --    0.04592   0.04842   0.10690   0.10912   0.16023
 Alpha virt. eigenvalues --    0.16299   0.18369   0.22295   0.24771   0.26791
 Alpha virt. eigenvalues --    0.28234   0.29458   0.30132   0.31455   0.32796

 Mulliken charges:
               1
     1  C   -0.168828
     2  C   -0.220662
     3  C   -0.171112
     4  C    0.158950
     5  C   -0.169080
     6  C   -0.218401
     7  H    0.228413
     8  H    0.215552
     9  H    0.271420
    10  H    0.277406
    11  H    0.226064
    12  N    0.488493
    13  O   -0.458085
    14  O   -0.462998
    15  C   -0.166302
    16  C   -0.223357
    17  C   -0.169078
    18  C    0.158626
    19  C   -0.168377
    20  C   -0.217463
    21  H    0.231025
    22  H    0.213822
    23  H    0.270986
    24  H    0.277730
    25  H    0.227264
    26  N    0.488423
    27  O   -0.458350
    28  O   -0.462082
 Sum of Mulliken charges =  -0.00000

 Dipole moment (field-independent basis, Debye):
    X=              1.8266    Y=              0.9763    Z=              4.5526  Tot=              5.0015
 Quadrupole moment (field-independent basis, Debye-Ang):
   XX=           -117.3338   YY=           -104.3767   ZZ=           -105.3320
   XY=             33.0109   XZ=             -4.0891   YZ=             -0.0408

 Normal termination of Gaussian 16 at Fri May  7 08:10:23 2021.
