 Gaussian 16, Revision A.03,
 Gaussian 16:  EM64L-G16RevA.03 25-Dec-2016

 -------------
 #p 6-31g* mp2
 -------------

 ------------------------------------------------------
 Input file generated by CHIRIPA (05-May-2021 14:55:22)
 ------------------------------------------------------
 Symbolic Z-matrix:
 Charge =  0 Multiplicity = 1

                         Standard orientation:
 ---------------------------------------------------------------------
 Center     Atomic      Atomic             Coordinates (Angstroms)
 Number     Number       Type             X           Y           Z
 ---------------------------------------------------------------------
      1          6           0        1.276459    2.088202   -0.074056
      2          6           0        2.412079    2.232349    0.729753
      3          6           0        3.438608    1.284306    0.685018
      4          6           0        3.295970    0.199585   -0.178883
      5          6           0        2.176784    0.028116   -0.992093
      6          6           0        1.162636    0.988485   -0.930903
      7          1           0        0.483835    2.829452   -0.032913
      8          1           0        2.503179    3.085391    1.396135
      9          1           0        4.328587    1.371324    1.296396
     10          1           0        2.114462   -0.832914   -1.646433
     11          1           0        0.281832    0.873962   -1.556294
     12          7           0        4.376156   -0.810590   -0.234952
     13          8           0        4.226438   -1.757217   -1.004444
     14          8           0        5.352072   -0.636610    0.491655
     15          6           0       -4.712717   -0.565569   -0.013291
     16          6           0       -5.484515    0.746431   -0.158102
     17          6           0       -6.926851    0.535949   -0.619790
     18          1           0       -4.717517   -1.094603   -0.976123
     19          1           0       -5.236812   -1.214122    0.702320
     20          1           0       -4.958374    1.392868   -0.872181
     21          1           0       -5.477714    1.272493    0.805137
     22          1           0       -7.472944   -0.088161    0.094961
     23          1           0       -6.950654    0.032898   -1.591887
     24          1           0       -7.460171    1.486761   -0.716682
     25          6           0       -3.269214   -0.371580    0.447574
     26          6           0       -2.497416   -1.683580    0.592384
     27          6           0       -1.055080   -1.473099    1.054073
     28          1           0       -2.745120    0.276973   -0.268036
     29          1           0       -3.264415    0.157454    1.410406
     30          1           0       -2.504218   -2.209642   -0.370854
     31          1           0       -3.023557   -2.330018    1.306464
     32          1           0       -1.031277   -0.970047    2.026170
     33          1           0       -0.508987   -0.848988    0.339322
     34          1           0       -0.521760   -2.423910    1.150965
 ---------------------------------------------------------------------

 SCF Done:  E(RHF) =  -669.534750858     A.U. after   15 cycles
 E2 =    -0.2092372078D+01 EUMP2 =    -0.67162712293558D+03

 The electronic state is 1-A.
 Alpha  occ. eigenvalues --  -20.60776 -20.60771 -15.85831 -11.31214 -11.27794
 Alpha  occ. eigenvalues --  -11.27783 -11.27533 -11.26812 -11.26797 -11.22098
 Alpha  occ. eigenvalues --  -11.22009 -11.21951 -11.21850 -11.21479 -11.21264
 Alpha  occ. eigenvalues --   -1.59851  -1.39404  -1.19399  -1.08916  -1.08786
 Alpha  occ. eigenvalues --   -1.04819  -1.03945  -0.96389  -0.95615  -0.87404
 Alpha  occ. eigenvalues --   -0.86205  -0.82456  -0.80012  -0.78746  -0.77496
 Alpha  occ. eigenvalues --   -0.72050  -0.71173  -0.70495  -0.65566  -0.65053
 Alpha  occ. eigenvalues --   -0.64816  -0.62174  -0.61345  -0.59756  -0.58013
 Alpha  occ. eigenvalues --   -0.55733  -0.55297  -0.53326  -0.53044  -0.52900
 Alpha  occ. eigenvalues --   -0.52639  -0.50316  -0.48811  -0.48802  -0.48314
 Alpha  occ. eigenvalues --   -0.47058  -0.46274  -0.46220  -0.44805  -0.44218
 Alpha  occ. eigenvalues --   -0.37356  -0.36327
 Alpha virt. eigenvalues --    0.05036   0.11171   0.16444   0.20292   0.22647
 Alpha virt. eigenvalues --    0.23952   0.25572   0.26733   0.27463   0.28343
 Alpha virt. eigenvalues --    0.28478   0.30519   0.31319   0.31580   0.31988

 Mulliken charges:
               1
     1  C   -0.169656
     2  C   -0.218532
     3  C   -0.170572
     4  C    0.159101
     5  C   -0.168230
     6  C   -0.220867
     7  H    0.226289
     8  H    0.223665
     9  H    0.275817
    10  H    0.276148
    11  H    0.224472
    12  N    0.488116
    13  O   -0.460317
    14  O   -0.460339
    15  C   -0.298403
    16  C   -0.299444
    17  C   -0.475884
    18  H    0.150172
    19  H    0.151994
    20  H    0.148899
    21  H    0.151985
    22  H    0.156626
    23  H    0.155833
    24  H    0.160777
    25  C   -0.296110
    26  C   -0.300343
    27  C   -0.481467
    28  H    0.139459
    29  H    0.150153
    30  H    0.151072
    31  H    0.154193
    32  H    0.154776
    33  H    0.156755
    34  H    0.163864
 Sum of Mulliken charges =  -0.00000

 Dipole moment (field-independent basis, Debye):
    X=             -3.7961    Y=              3.5524    Z=              0.2370  Tot=              5.2044
 Quadrupole moment (field-independent basis, Debye-Ang):
   XX=           -119.7861   YY=            -92.4415   ZZ=            -92.0613
   XY=             12.7297   XZ=              2.6854   YZ=              1.4024

 Normal termination of Gaussian 16 at Thu May  6 03:03:36 2021.
