 Gaussian 16, Revision A.03,
 Gaussian 16:  EM64L-G16RevA.03 25-Dec-2016

 -------------
 #p 6-31g* mp2
 -------------

 ------------------------------------------------------
 Input file generated by CHIRIPA (05-May-2021 14:55:19)
 ------------------------------------------------------
 Symbolic Z-matrix:
 Charge =  0 Multiplicity = 1

                         Standard orientation:
 ---------------------------------------------------------------------
 Center     Atomic      Atomic             Coordinates (Angstroms)
 Number     Number       Type             X           Y           Z
 ---------------------------------------------------------------------
      1          6           0       -4.396021    2.258411   -0.389113
      2          6           0       -4.070631    1.911906    0.926400
      3          6           0       -3.464394    0.684001    1.207958
      4          6           0       -3.196554   -0.177216    0.145011
      5          6           0       -3.508723    0.139330   -1.176216
      6          6           0       -4.114525    1.372579   -1.434380
      7          1           0       -4.866791    3.214353   -0.598748
      8          1           0       -4.288078    2.597879    1.740159
      9          1           0       -3.201878    0.390436    2.217078
     10          1           0       -3.279661   -0.565298   -1.966435
     11          1           0       -4.366114    1.639027   -2.457001
     12          7           0       -2.554988   -1.479972    0.430700
     13          8           0       -2.329405   -2.221131   -0.523466
     14          8           0       -2.289861   -1.735247    1.603381
     15          6           0        3.767663   -0.507771   -0.526725
     16          6           0        2.365411   -0.634931    0.069519
     17          6           0        1.458325   -1.558032   -0.744652
     18          1           0        3.688816   -0.132087   -1.556088
     19          1           0        4.222563   -1.505854   -0.592243
     20          1           0        1.913822    0.363254    0.135174
     21          1           0        2.447617   -1.010175    1.097648
     22          1           0        1.883486   -2.565414   -0.799630
     23          1           0        1.346659   -1.184180   -1.767573
     24          1           0        0.460905   -1.634519   -0.300622
     25          6           0        4.686203    0.411786    0.276035
     26          6           0        6.088455    0.538945   -0.320208
     27          6           0        6.995541    1.462047    0.493963
     28          1           0        4.231304    1.409868    0.341552
     29          1           0        4.765050    0.036100    1.305399
     30          1           0        6.006249    0.914190   -1.348337
     31          1           0        6.540043   -0.459241   -0.385863
     32          1           0        7.107207    1.088195    1.516884
     33          1           0        6.570380    2.469427    0.548941
     34          1           0        7.992960    1.538534    0.049932
 ---------------------------------------------------------------------

 SCF Done:  E(RHF) =  -669.535923491     A.U. after   15 cycles
 E2 =    -0.2091104324D+01 EUMP2 =    -0.67162702781533D+03

 The electronic state is 1-A.
 Alpha  occ. eigenvalues --  -20.60919 -20.60906 -15.85938 -11.31266 -11.27832
 Alpha  occ. eigenvalues --  -11.27828 -11.27573 -11.26839 -11.26830 -11.21294
 Alpha  occ. eigenvalues --  -11.20991 -11.20900 -11.20834 -11.20828 -11.20020
 Alpha  occ. eigenvalues --   -1.59982  -1.39533  -1.19437  -1.08842  -1.07945
 Alpha  occ. eigenvalues --   -1.04833  -1.02983  -0.95683  -0.95412  -0.86424
 Alpha  occ. eigenvalues --   -0.86233  -0.82515  -0.79060  -0.77750  -0.77568
 Alpha  occ. eigenvalues --   -0.72156  -0.71317  -0.70546  -0.65091  -0.64836
 Alpha  occ. eigenvalues --   -0.64584  -0.62179  -0.60390  -0.58798  -0.57017
 Alpha  occ. eigenvalues --   -0.55339  -0.54714  -0.53170  -0.52925  -0.52062
 Alpha  occ. eigenvalues --   -0.51842  -0.49375  -0.48922  -0.48914  -0.47367
 Alpha  occ. eigenvalues --   -0.46121  -0.45285  -0.45221  -0.44948  -0.43182
 Alpha  occ. eigenvalues --   -0.37417  -0.36433
 Alpha virt. eigenvalues --    0.04930   0.11222   0.16420   0.21353   0.23308
 Alpha virt. eigenvalues --    0.24853   0.27098   0.27272   0.27940   0.28144
 Alpha virt. eigenvalues --    0.28638   0.30850   0.31921   0.32254   0.32455

 Mulliken charges:
               1
     1  C   -0.170548
     2  C   -0.218662
     3  C   -0.170779
     4  C    0.158429
     5  C   -0.170550
     6  C   -0.218698
     7  H    0.225905
     8  H    0.223752
     9  H    0.275869
    10  H    0.276173
    11  H    0.223762
    12  N    0.486442
    13  O   -0.457797
    14  O   -0.459497
    15  C   -0.297555
    16  C   -0.299998
    17  C   -0.479124
    18  H    0.147229
    19  H    0.149826
    20  H    0.146052
    21  H    0.153952
    22  H    0.155985
    23  H    0.148394
    24  H    0.175223
    25  C   -0.297599
    26  C   -0.299194
    27  C   -0.475364
    28  H    0.147281
    29  H    0.149814
    30  H    0.150808
    31  H    0.152141
    32  H    0.155162
    33  H    0.153926
    34  H    0.159242
 Sum of Mulliken charges =  -0.00000

 Dipole moment (field-independent basis, Debye):
    X=             -2.4748    Y=              4.5131    Z=             -0.9765  Tot=              5.2389
 Quadrupole moment (field-independent basis, Debye-Ang):
   XX=            -82.1451   YY=            -96.3954   ZZ=            -90.2816
   XY=            -15.5055   XZ=              2.9780   YZ=              1.3020

 Normal termination of Gaussian 16 at Thu May  6 20:36:39 2021.
