 Gaussian 16, Revision A.03,
 Gaussian 16:  EM64L-G16RevA.03 25-Dec-2016

 -------------
 #p 6-31g* mp2
 -------------

 ------------------------------------------------------
 Input file generated by CHIRIPA (05-May-2021 14:57:25)
 ------------------------------------------------------
 Symbolic Z-matrix:
 Charge =  0 Multiplicity = 1

                         Standard orientation:
 ---------------------------------------------------------------------
 Center     Atomic      Atomic             Coordinates (Angstroms)
 Number     Number       Type             X           Y           Z
 ---------------------------------------------------------------------
      1          6           0       -1.034412    1.638963   -1.041335
      2          6           0       -2.354882    2.059445   -0.851396
      3          6           0       -3.335449    1.153996   -0.435226
      4          6           0       -2.958857   -0.170376   -0.217265
      5          6           0       -1.651687   -0.619831   -0.397788
      6          6           0       -0.687641    0.303023   -0.814325
      7          1           0       -0.279101    2.349098   -1.364769
      8          1           0       -2.627065    3.096338   -1.026935
      9          1           0       -4.365166    1.452589   -0.280489
     10          1           0       -1.410666   -1.659946   -0.214796
     11          1           0        0.337072   -0.026351   -0.961028
     12          7           0       -3.988195   -1.138147    0.223510
     13          8           0       -3.630831   -2.299442    0.408776
     14          8           0       -5.132863   -0.717067    0.375378
     15          6           0        1.586869    1.829553    1.559837
     16          6           0        1.682293    0.543401    2.101342
     17          6           0        2.346134   -0.472046    1.406552
     18          6           0        2.905447   -0.164947    0.167138
     19          6           0        2.827155    1.106604   -0.398828
     20          6           0        2.158595    2.106561    0.313676
     21          1           0        1.069348    2.612359    2.106447
     22          1           0        1.239237    0.325395    3.068927
     23          1           0        2.434816   -1.476453    1.802429
     24          1           0        3.278865    1.293606   -1.365476
     25          1           0        2.086038    3.104491   -0.109311
     26          7           0        3.610723   -1.231755   -0.577783
     27          8           0        4.094995   -0.935606   -1.667926
     28          8           0        3.665891   -2.343870   -0.057402
 ---------------------------------------------------------------------

 SCF Done:  E(RHF) =  -868.334530777     A.U. after   16 cycles
 E2 =    -0.2605856917D+01 EUMP2 =    -0.87094038769449D+03

 The electronic state is 1-A.
 Alpha  occ. eigenvalues --  -20.61707 -20.61695 -20.60916 -20.60906 -15.86768
 Alpha  occ. eigenvalues --  -15.85964 -11.32307 -11.31335 -11.28913 -11.28836
 Alpha  occ. eigenvalues --  -11.28563 -11.27936 -11.27911 -11.27809 -11.27795
 Alpha  occ. eigenvalues --  -11.27621 -11.26979 -11.26730  -1.60788  -1.59991
 Alpha  occ. eigenvalues --   -1.40330  -1.39543  -1.20543  -1.19494  -1.09848
 Alpha  occ. eigenvalues --   -1.08903  -1.05924  -1.04889  -0.96643  -0.95743
 Alpha  occ. eigenvalues --   -0.87288  -0.86305  -0.83462  -0.82565  -0.78503
 Alpha  occ. eigenvalues --   -0.77617  -0.72960  -0.72196  -0.72142  -0.71515
 Alpha  occ. eigenvalues --   -0.71318  -0.70667  -0.66114  -0.65868  -0.65148
 Alpha  occ. eigenvalues --   -0.64982  -0.63227  -0.62306  -0.56324  -0.55458
 Alpha  occ. eigenvalues --   -0.54618  -0.53942  -0.53184  -0.52529  -0.49742
 Alpha  occ. eigenvalues --   -0.49714  -0.48939  -0.48933  -0.45686  -0.44947
 Alpha  occ. eigenvalues --   -0.38786  -0.37699  -0.37097  -0.36361
 Alpha virt. eigenvalues --    0.03933   0.04930   0.10022   0.11174   0.15381
 Alpha virt. eigenvalues --    0.16437   0.19844   0.21700   0.25478   0.27202
 Alpha virt. eigenvalues --    0.27424   0.28674   0.29740   0.31336   0.32123

 Mulliken charges:
               1
     1  C   -0.173268
     2  C   -0.220789
     3  C   -0.172737
     4  C    0.158259
     5  C   -0.177131
     6  C   -0.213683
     7  H    0.216872
     8  H    0.220830
     9  H    0.274940
    10  H    0.276884
    11  H    0.232428
    12  N    0.487787
    13  O   -0.459467
    14  O   -0.460950
    15  C   -0.163319
    16  C   -0.213762
    17  C   -0.173822
    18  C    0.153417
    19  C   -0.185980
    20  C   -0.221926
    21  H    0.230307
    22  H    0.230708
    23  H    0.280960
    24  H    0.277907
    25  H    0.222829
    26  N    0.487200
    27  O   -0.458486
    28  O   -0.456009
 Sum of Mulliken charges =  -0.00000

 Dipole moment (field-independent basis, Debye):
    X=              1.3902    Y=              7.0552    Z=              1.3502  Tot=              7.3166
 Quadrupole moment (field-independent basis, Debye-Ang):
   XX=           -139.3807   YY=           -103.2446   ZZ=           -101.2037
   XY=             -1.5317   XZ=             10.5960   YZ=             -2.8044

 Normal termination of Gaussian 16 at Fri May  7 06:36:35 2021.
