 Gaussian 16, Revision A.03,
 Gaussian 16:  EM64L-G16RevA.03 25-Dec-2016

 -------------
 #p 6-31g* mp2
 -------------

 ------------------------------------------------------
 Input file generated by CHIRIPA (05-May-2021 14:57:23)
 ------------------------------------------------------
 Symbolic Z-matrix:
 Charge =  0 Multiplicity = 1

                         Standard orientation:
 ---------------------------------------------------------------------
 Center     Atomic      Atomic             Coordinates (Angstroms)
 Number     Number       Type             X           Y           Z
 ---------------------------------------------------------------------
      1          6           0       -6.594446    0.508396    0.278513
      2          6           0       -6.275405   -0.836729    0.065503
      3          6           0       -4.950171   -1.226671   -0.149548
      4          6           0       -3.964677   -0.240734   -0.145052
      5          6           0       -4.250824    1.107449    0.064262
      6          6           0       -5.582920    1.474488    0.277215
      7          1           0       -7.626585    0.802416    0.444755
      8          1           0       -7.058906   -1.589173    0.065975
      9          1           0       -4.675191   -2.260961   -0.317025
     10          1           0       -3.448045    1.834723    0.058148
     11          1           0       -5.827758    2.519870    0.442372
     12          7           0       -2.558078   -0.641425   -0.371607
     13          8           0       -1.708216    0.246435   -0.362882
     14          8           0       -2.332082   -1.835760   -0.553615
     15          6           0        1.936888    1.270685    0.350365
     16          6           0        2.131511   -0.039227    0.800670
     17          6           0        3.379246   -0.656465    0.671350
     18          6           0        4.414952    0.068739    0.084255
     19          6           0        4.252375    1.375152   -0.374162
     20          6           0        2.996074    1.972456   -0.234583
     21          1           0        0.964291    1.742427    0.454808
     22          1           0        1.310746   -0.586638    1.255346
     23          1           0        3.557563   -1.669394    1.011346
     24          1           0        5.089644    1.895487   -0.823217
     25          1           0        2.847824    2.989871   -0.585201
     26          7           0        5.740408   -0.574152   -0.058081
     27          8           0        6.636751    0.086157   -0.578849
     28          8           0        5.857859   -1.726184    0.353819
 ---------------------------------------------------------------------

 SCF Done:  E(RHF) =  -868.339924062     A.U. after   16 cycles
 E2 =    -0.2598391490D+01 EUMP2 =    -0.87093831555200D+03

 The electronic state is 1-A.
 Alpha  occ. eigenvalues --  -20.61850 -20.61791 -20.59898 -20.59889 -15.86858
 Alpha  occ. eigenvalues --  -15.84942 -11.31971 -11.30084 -11.28537 -11.28482
 Alpha  occ. eigenvalues --  -11.28188 -11.27471 -11.27439 -11.26681 -11.26587
 Alpha  occ. eigenvalues --  -11.26195 -11.25625 -11.25437  -1.60885  -1.58977
 Alpha  occ. eigenvalues --   -1.40448  -1.38537  -1.20116  -1.18220  -1.09554
 Alpha  occ. eigenvalues --   -1.07624  -1.05482  -1.03595  -0.96433  -0.94505
 Alpha  occ. eigenvalues --   -0.86891  -0.84982  -0.83279  -0.81357  -0.78357
 Alpha  occ. eigenvalues --   -0.76459  -0.73097  -0.72190  -0.71219  -0.71166
 Alpha  occ. eigenvalues --   -0.70298  -0.69253  -0.65772  -0.65479  -0.63857
 Alpha  occ. eigenvalues --   -0.63572  -0.62836  -0.60956  -0.55981  -0.54001
 Alpha  occ. eigenvalues --   -0.53822  -0.53569  -0.51931  -0.51672  -0.49849
 Alpha  occ. eigenvalues --   -0.49803  -0.47933  -0.47900  -0.45907  -0.43994
 Alpha  occ. eigenvalues --   -0.38075  -0.37074  -0.36131  -0.35205
 Alpha virt. eigenvalues --    0.04156   0.06073   0.10585   0.12467   0.15699
 Alpha virt. eigenvalues --    0.17645   0.20720   0.22658   0.26660   0.27494
 Alpha virt. eigenvalues --    0.28499   0.29412   0.30461   0.31654   0.32506

 Mulliken charges:
               1
     1  C   -0.169804
     2  C   -0.218370
     3  C   -0.170271
     4  C    0.157792
     5  C   -0.170457
     6  C   -0.218255
     7  H    0.228239
     8  H    0.226141
     9  H    0.277204
    10  H    0.271964
    11  H    0.225012
    12  N    0.491180
    13  O   -0.472898
    14  O   -0.455551
    15  C   -0.166959
    16  C   -0.215058
    17  C   -0.172837
    18  C    0.157223
    19  C   -0.172494
    20  C   -0.220368
    21  H    0.233677
    22  H    0.230407
    23  H    0.273076
    24  H    0.271368
    25  H    0.218374
    26  N    0.488306
    27  O   -0.464032
    28  O   -0.462608
 Sum of Mulliken charges =  -0.00000

 Dipole moment (field-independent basis, Debye):
    X=            -10.2884    Y=              3.5705    Z=              1.3261  Tot=             10.9708
 Quadrupole moment (field-independent basis, Debye-Ang):
   XX=           -107.1834   YY=            -97.4639   ZZ=           -105.6502
   XY=              8.4754   XZ=             -1.3794   YZ=             -1.6547

 Normal termination of Gaussian 16 at Thu May  6 05:02:26 2021.
