 Gaussian 16, Revision A.03,
 Gaussian 16:  EM64L-G16RevA.03 25-Dec-2016

 -------------
 #p 6-31g* mp2
 -------------

 ------------------------------------------------------
 Input file generated by CHIRIPA (05-May-2021 14:51:12)
 ------------------------------------------------------
 Symbolic Z-matrix:
 Charge =  0 Multiplicity = 1

                         Standard orientation:
 ---------------------------------------------------------------------
 Center     Atomic      Atomic             Coordinates (Angstroms)
 Number     Number       Type             X           Y           Z
 ---------------------------------------------------------------------
      1          6           0        2.461724    0.471356   -0.010440
      2          6           0        2.868709   -0.239066    1.280935
      3          6           0        3.836709   -1.397515    1.038519
      4          1           0        2.001242   -0.256541   -0.692399
      5          1           0        3.363471    0.845247   -0.514872
      6          1           0        1.966350   -0.610300    1.783478
      7          1           0        3.328101    0.490646    1.959975
      8          1           0        4.753360   -1.039604    0.558674
      9          1           0        3.383872   -2.146806    0.381175
     10          1           0        4.114496   -1.891232    1.974969
     11          6           0        1.494239    1.631800    0.215552
     12          6           0        1.087254    2.342221   -1.075824
     13          6           0        0.119254    3.500670   -0.833408
     14          1           0        0.592492    1.257908    0.719983
     15          1           0        1.954721    2.359697    0.897510
     16          1           0        0.627862    1.612509   -1.754863
     17          1           0        1.989613    2.713455   -1.578367
     18          1           0        0.572091    4.249961   -0.176063
     19          1           0       -0.797397    3.142760   -0.353563
     20          1           0       -0.158532    3.994388   -1.769857
     21          6           0       -1.239845   -1.157045   -0.268277
     22          6           0       -0.951066   -2.512564   -0.914157
     23          6           0        0.529900   -2.708715   -1.239821
     24          1           0       -0.902080   -0.357644   -0.941937
     25          1           0       -0.645660   -1.062806    0.651210
     26          1           0       -1.546665   -2.604789   -1.831421
     27          1           0       -1.289733   -3.308828   -0.238964
     28          1           0        1.136232   -2.643269   -0.330602
     29          1           0        0.877840   -1.935229   -1.932106
     30          1           0        0.713820   -3.684197   -1.700765
     31          6           0       -2.716117   -0.946110    0.063166
     32          6           0       -3.004897    0.409409    0.709045
     33          6           0       -4.485864    0.605559    1.034709
     34          1           0       -3.310304   -1.040350   -0.856322
     35          1           0       -3.053883   -1.745511    0.736826
     36          1           0       -2.666230    1.205673    0.033853
     37          1           0       -2.409299    0.501634    1.626309
     38          1           0       -4.833804   -0.167926    1.726994
     39          1           0       -5.092195    0.540113    0.125491
     40          1           0       -4.669784    1.581042    1.495653
 ---------------------------------------------------------------------

 SCF Done:  E(RHF) =  -470.731039066     A.U. after   11 cycles
 E2 =    -0.1587505452D+01 EUMP2 =    -0.47231854451827D+03

 The electronic state is 1-A.
 Alpha  occ. eigenvalues --  -11.21720 -11.21711 -11.21547 -11.21535 -11.21516
 Alpha  occ. eigenvalues --  -11.21456 -11.21211 -11.21181 -11.21143 -11.21131
 Alpha  occ. eigenvalues --  -11.21027 -11.20997  -1.08598  -1.08281  -1.03665
 Alpha  occ. eigenvalues --   -1.03452  -0.96108  -0.95893  -0.87132  -0.86912
 Alpha  occ. eigenvalues --   -0.79754  -0.79525  -0.78405  -0.78122  -0.65208
 Alpha  occ. eigenvalues --   -0.64976  -0.61156  -0.60841  -0.59443  -0.59277
 Alpha  occ. eigenvalues --   -0.57738  -0.57492  -0.55539  -0.55068  -0.52785
 Alpha  occ. eigenvalues --   -0.52631  -0.52548  -0.52328  -0.50237  -0.49628
 Alpha  occ. eigenvalues --   -0.48229  -0.47745  -0.46856  -0.46537  -0.46253
 Alpha  occ. eigenvalues --   -0.45947  -0.45291  -0.45107  -0.43893  -0.43679
 Alpha virt. eigenvalues --    0.19853   0.21523   0.23206   0.23847   0.25086
 Alpha virt. eigenvalues --    0.25594   0.26960   0.27842   0.28983   0.30082
 Alpha virt. eigenvalues --    0.30758   0.31066   0.31513   0.32054   0.32367

 Mulliken charges:
               1
     1  C   -0.306779
     2  C   -0.301408
     3  C   -0.480277
     4  H    0.161212
     5  H    0.148331
     6  H    0.150836
     7  H    0.152115
     8  H    0.155476
     9  H    0.159283
    10  H    0.159545
    11  C   -0.301939
    12  C   -0.301313
    13  C   -0.479940
    14  H    0.155130
    15  H    0.148675
    16  H    0.151122
    17  H    0.152017
    18  H    0.155502
    19  H    0.158728
    20  H    0.159556
    21  C   -0.307744
    22  C   -0.298819
    23  C   -0.484622
    24  H    0.155624
    25  H    0.152837
    26  H    0.152310
    27  H    0.152384
    28  H    0.161681
    29  H    0.157052
    30  H    0.161765
    31  C   -0.297689
    32  C   -0.305314
    33  C   -0.475584
    34  H    0.149892
    35  H    0.150091
    36  H    0.156038
    37  H    0.152369
    38  H    0.155500
    39  H    0.155522
    40  H    0.160836
 Sum of Mulliken charges =  -0.00000

 Dipole moment (field-independent basis, Debye):
    X=             -0.0720    Y=             -0.0691    Z=             -0.0210  Tot=              0.1019
 Quadrupole moment (field-independent basis, Debye-Ang):
   XX=            -85.7408   YY=            -85.0822   ZZ=            -84.0440
   XY=              1.2792   XZ=              0.4373   YZ=             -0.3304

 Normal termination of Gaussian 16 at Wed May  5 23:10:18 2021.
