 Gaussian 16, Revision A.03,
 Gaussian 16:  EM64L-G16RevA.03 25-Dec-2016

 -------------
 #p 6-31g* mp2
 -------------

 ------------------------------------------------------
 Input file generated by CHIRIPA (05-May-2021 14:55:19)
 ------------------------------------------------------
 Symbolic Z-matrix:
 Charge =  0 Multiplicity = 1

                         Standard orientation:
 ---------------------------------------------------------------------
 Center     Atomic      Atomic             Coordinates (Angstroms)
 Number     Number       Type             X           Y           Z
 ---------------------------------------------------------------------
      1          6           0       -5.022687   -0.009256   -1.014318
      2          6           0       -4.777518   -1.066098   -0.131426
      3          6           0       -3.546683   -1.173743    0.522794
      4          6           0       -2.579233   -0.202545    0.269605
      5          6           0       -2.793330    0.862120   -0.604433
      6          6           0       -4.031558    0.949789   -1.247592
      7          1           0       -5.981701    0.066607   -1.518236
      8          1           0       -5.545389   -1.812355    0.051659
      9          1           0       -3.330260   -1.981586    1.211249
     10          1           0       -2.008352    1.590746   -0.766697
     11          1           0       -4.219169    1.771629   -1.932739
     12          7           0       -1.272289   -0.305930    0.956344
     13          8           0       -0.436451    0.562596    0.716193
     14          8           0       -1.108492   -1.253533    1.721757
     15          6           0        3.472612    0.835288    0.263563
     16          6           0        2.734690    1.997359   -0.402053
     17          6           0        2.533186    3.185928    0.538424
     18          1           0        2.910239    0.511902    1.150187
     19          1           0        4.448698    1.188323    0.624144
     20          1           0        1.760860    1.641898   -0.762499
     21          1           0        3.298785    2.317890   -1.287305
     22          1           0        3.497585    3.567902    0.888616
     23          1           0        1.950921    2.888068    1.416403
     24          1           0        2.003723    4.005255    0.042207
     25          6           0        3.681647   -0.360393   -0.664004
     26          6           0        4.419571   -1.522465    0.001612
     27          6           0        4.621073   -2.711033   -0.938864
     28          1           0        2.705561   -0.713428   -1.024585
     29          1           0        4.244021   -0.037008   -1.550628
     30          1           0        3.855474   -1.842997    0.886864
     31          1           0        5.393399   -1.167004    0.362058
     32          1           0        5.203338   -2.413173   -1.816844
     33          1           0        3.656676   -3.093007   -1.289056
     34          1           0        5.150538   -3.530360   -0.442648
 ---------------------------------------------------------------------

 SCF Done:  E(RHF) =  -669.536454901     A.U. after   15 cycles
 E2 =    -0.2091434946D+01 EUMP2 =    -0.67162788984733D+03

 The electronic state is 1-A.
 Alpha  occ. eigenvalues --  -20.61059 -20.61053 -15.86084 -11.31359 -11.27917
 Alpha  occ. eigenvalues --  -11.27914 -11.27647 -11.26915 -11.26905 -11.20577
 Alpha  occ. eigenvalues --  -11.20264 -11.20220 -11.20208 -11.19952 -11.19845
 Alpha  occ. eigenvalues --   -1.60115  -1.39672  -1.19524  -1.08937  -1.07187
 Alpha  occ. eigenvalues --   -1.04913  -1.02370  -0.95786  -0.94848  -0.86316
 Alpha  occ. eigenvalues --   -0.85872  -0.82623  -0.78459  -0.77682  -0.76993
 Alpha  occ. eigenvalues --   -0.72321  -0.71425  -0.70633  -0.65187  -0.64916
 Alpha  occ. eigenvalues --   -0.63766  -0.62261  -0.59724  -0.58243  -0.56473
 Alpha  occ. eigenvalues --   -0.55419  -0.54113  -0.53247  -0.53004  -0.51597
 Alpha  occ. eigenvalues --   -0.51289  -0.49079  -0.49065  -0.48754  -0.46788
 Alpha  occ. eigenvalues --   -0.45495  -0.45095  -0.44533  -0.44358  -0.42618
 Alpha  occ. eigenvalues --   -0.37500  -0.36512
 Alpha virt. eigenvalues --    0.04827   0.11143   0.16316   0.21178   0.24048
 Alpha virt. eigenvalues --    0.25231   0.27062   0.27581   0.28368   0.28859
 Alpha virt. eigenvalues --    0.29069   0.30777   0.31927   0.32636   0.32921

 Mulliken charges:
               1
     1  C   -0.170436
     2  C   -0.218578
     3  C   -0.170666
     4  C    0.157537
     5  C   -0.170658
     6  C   -0.218547
     7  H    0.226282
     8  H    0.224051
     9  H    0.275921
    10  H    0.276033
    11  H    0.224208
    12  N    0.493018
    13  O   -0.465328
    14  O   -0.458835
    15  C   -0.299352
    16  C   -0.299315
    17  C   -0.476619
    18  H    0.165245
    19  H    0.142129
    20  H    0.163470
    21  H    0.141874
    22  H    0.149169
    23  H    0.165671
    24  H    0.151135
    25  C   -0.297348
    26  C   -0.300023
    27  C   -0.474898
    28  H    0.151734
    29  H    0.143384
    30  H    0.157244
    31  H    0.148669
    32  H    0.151995
    33  H    0.154276
    34  H    0.157559
 Sum of Mulliken charges =  -0.00000

 Dipole moment (field-independent basis, Debye):
    X=             -4.9873    Y=              0.2619    Z=             -2.2699  Tot=              5.4858
 Quadrupole moment (field-independent basis, Debye-Ang):
   XX=            -71.5586   YY=            -93.2507   ZZ=            -95.9356
   XY=              1.7674   XZ=              4.7675   YZ=             -2.3414

 Normal termination of Gaussian 16 at Wed May  5 18:51:08 2021.
