 Gaussian 16, Revision A.03,
 Gaussian 16:  EM64L-G16RevA.03 25-Dec-2016

 -------------
 #p 6-31g* mp2
 -------------

 ------------------------------------------------------
 Input file generated by CHIRIPA (05-May-2021 14:55:21)
 ------------------------------------------------------
 Symbolic Z-matrix:
 Charge =  0 Multiplicity = 1

                         Standard orientation:
 ---------------------------------------------------------------------
 Center     Atomic      Atomic             Coordinates (Angstroms)
 Number     Number       Type             X           Y           Z
 ---------------------------------------------------------------------
      1          6           0        1.536437    1.425788    1.095903
      2          6           0        1.872896    0.128933    1.497753
      3          6           0        2.967996   -0.528780    0.929671
      4          6           0        3.708096    0.143076   -0.042004
      5          6           0        3.398076    1.435195   -0.463437
      6          6           0        2.298757    2.073638    0.118315
      7          1           0        0.684098    1.929230    1.542513
      8          1           0        1.282665   -0.376636    2.256747
      9          1           0        3.250711   -1.532735    1.222186
     10          1           0        4.005373    1.913455   -1.222301
     11          1           0        2.039789    3.080795   -0.195715
     12          7           0        4.869663   -0.543016   -0.650643
     13          8           0        5.505714    0.070601   -1.504780
     14          8           0        5.122053   -1.681399   -0.262033
     15          6           0       -3.820393   -0.201619    0.247595
     16          6           0       -2.807267   -1.315241   -0.019627
     17          6           0       -1.449864   -1.048253    0.631502
     18          1           0       -3.415505    0.750268   -0.122432
     19          1           0       -3.949618   -0.085627    1.332603
     20          1           0       -2.681029   -1.430036   -1.103833
     21          1           0       -3.214696   -2.264621    0.350906
     22          1           0       -1.555125   -0.954780    1.717220
     23          1           0       -1.018426   -0.115453    0.254215
     24          1           0       -0.740886   -1.856765    0.427745
     25          6           0       -5.182246   -0.454129   -0.396861
     26          6           0       -6.195372    0.659493   -0.129638
     27          6           0       -7.552775    0.392505   -0.780768
     28          1           0       -5.053022   -0.570123   -1.481868
     29          1           0       -5.587134   -1.406016   -0.026833
     30          1           0       -5.787943    1.608872   -0.500171
     31          1           0       -6.321610    0.774288    0.954568
     32          1           0       -7.984213   -0.540295   -0.403481
     33          1           0       -7.447514    0.299032   -1.866486
     34          1           0       -8.261753    1.201017   -0.577010
 ---------------------------------------------------------------------

 SCF Done:  E(RHF) =  -669.535238732     A.U. after   15 cycles
 E2 =    -0.2091833639D+01 EUMP2 =    -0.67162707237087D+03

 The electronic state is 1-A.
 Alpha  occ. eigenvalues --  -20.60742 -20.60737 -15.85795 -11.31158 -11.27718
 Alpha  occ. eigenvalues --  -11.27695 -11.27442 -11.26750 -11.26701 -11.22161
 Alpha  occ. eigenvalues --  -11.22021 -11.21961 -11.21821 -11.21805 -11.21413
 Alpha  occ. eigenvalues --   -1.59817  -1.39371  -1.19326  -1.08945  -1.08722
 Alpha  occ. eigenvalues --   -1.04727  -1.04045  -0.96518  -0.95557  -0.87550
 Alpha  occ. eigenvalues --   -0.86112  -0.82387  -0.80124  -0.78754  -0.77432
 Alpha  occ. eigenvalues --   -0.72013  -0.71140  -0.70433  -0.65571  -0.64977
 Alpha  occ. eigenvalues --   -0.64724  -0.62073  -0.61445  -0.59876  -0.58118
 Alpha  occ. eigenvalues --   -0.55832  -0.55218  -0.53411  -0.53055  -0.52866
 Alpha  occ. eigenvalues --   -0.52690  -0.50446  -0.48772  -0.48769  -0.48433
 Alpha  occ. eigenvalues --   -0.47141  -0.46299  -0.46211  -0.44778  -0.44300
 Alpha  occ. eigenvalues --   -0.37263  -0.36300
 Alpha virt. eigenvalues --    0.05063   0.11287   0.16482   0.20841   0.22449
 Alpha virt. eigenvalues --    0.23902   0.25803   0.26368   0.27029   0.27837
 Alpha virt. eigenvalues --    0.28972   0.29905   0.31192   0.31585   0.31801

 Mulliken charges:
               1
     1  C   -0.172512
     2  C   -0.212281
     3  C   -0.173415
     4  C    0.158829
     5  C   -0.171287
     6  C   -0.219478
     7  H    0.226177
     8  H    0.226179
     9  H    0.275344
    10  H    0.275365
    11  H    0.223165
    12  N    0.488052
    13  O   -0.460567
    14  O   -0.460480
    15  C   -0.298407
    16  C   -0.300723
    17  C   -0.478986
    18  H    0.147300
    19  H    0.148094
    20  H    0.155308
    21  H    0.153693
    22  H    0.147113
    23  H    0.157013
    24  H    0.163009
    25  C   -0.298600
    26  C   -0.299817
    27  C   -0.475966
    28  H    0.151035
    29  H    0.150968
    30  H    0.151280
    31  H    0.151609
    32  H    0.155981
    33  H    0.156048
    34  H    0.160957
 Sum of Mulliken charges =  -0.00000

 Dipole moment (field-independent basis, Debye):
    X=             -4.1814    Y=              2.3907    Z=              2.1056  Tot=              5.2567
 Quadrupole moment (field-independent basis, Debye-Ang):
   XX=           -126.4489   YY=            -90.8320   ZZ=            -93.3568
   XY=              9.4131   XZ=              7.1096   YZ=             -2.8278

 Normal termination of Gaussian 16 at Thu May  6 14:10:40 2021.
