 Gaussian 16, Revision A.03,
 Gaussian 16:  EM64L-G16RevA.03 25-Dec-2016

 -------------
 #p 6-31g* mp2
 -------------

 ------------------------------------------------------
 Input file generated by CHIRIPA (05-May-2021 14:53:16)
 ------------------------------------------------------
 Symbolic Z-matrix:
 Charge =  0 Multiplicity = 1

                         Standard orientation:
 ---------------------------------------------------------------------
 Center     Atomic      Atomic             Coordinates (Angstroms)
 Number     Number       Type             X           Y           Z
 ---------------------------------------------------------------------
      1          6           0       -5.182226    0.047473   -0.166821
      2          6           0       -5.462246   -1.376506    0.314695
      3          6           0       -6.949681   -1.729186    0.283914
      4          1           0       -5.741568    0.756083    0.459241
      5          1           0       -5.566400    0.163385   -1.189743
      6          1           0       -5.076424   -1.490112    1.335895
      7          1           0       -4.902022   -2.081797   -0.312465
      8          1           0       -7.344877   -1.643772   -0.733497
      9          1           0       -7.520270   -1.048725    0.924229
     10          1           0       -7.127170   -2.751499    0.632099
     11          6           0       -3.699622    0.414883   -0.141840
     12          6           0       -3.419601    1.838862   -0.623355
     13          6           0       -1.932166    2.191541   -0.592575
     14          1           0       -3.315448    0.298971    0.881082
     15          1           0       -3.140280   -0.293727   -0.767902
     16          1           0       -3.979826    2.544153    0.003804
     17          1           0       -3.805424    1.952468   -1.644556
     18          1           0       -1.361578    1.511081   -1.232890
     19          1           0       -1.536971    2.106128    0.424836
     20          1           0       -1.754678    3.213855   -0.940760
     21          6           0        1.083303    0.258499    0.812893
     22          6           0        2.131032    0.535594    1.697203
     23          6           0        3.456995    0.296244    1.324264
     24          6           0        3.700158   -0.223059    0.053640
     25          6           0        2.677925   -0.509501   -0.849843
     26          6           0        1.359607   -0.262246   -0.455571
     27          1           0        0.056234    0.447503    1.110887
     28          1           0        1.919423    0.940054    2.682940
     29          1           0        4.287210    0.501614    1.989082
     30          1           0        2.920174   -0.912229   -1.825827
     31          1           0        0.547929   -0.478400   -1.144413
     32          7           0        5.099848   -0.480633   -0.352467
     33          8           0        5.287643   -0.938528   -1.477501
     34          8           0        5.982627   -0.219747    0.461952
 ---------------------------------------------------------------------

 SCF Done:  E(RHF) =  -669.535054221     A.U. after   15 cycles
 E2 =    -0.2091699964D+01 EUMP2 =    -0.67162675418433D+03

 The electronic state is 1-A.
 Alpha  occ. eigenvalues --  -20.60698 -20.60693 -15.85752 -11.31096 -11.27676
 Alpha  occ. eigenvalues --  -11.27672 -11.27351 -11.26670 -11.26659 -11.22597
 Alpha  occ. eigenvalues --  -11.22434 -11.22297 -11.22286 -11.22163 -11.21622
 Alpha  occ. eigenvalues --   -1.59775  -1.39329  -1.19270  -1.09333  -1.08660
 Alpha  occ. eigenvalues --   -1.04676  -1.04406  -0.96879  -0.95498  -0.87893
 Alpha  occ. eigenvalues --   -0.86069  -0.82342  -0.80483  -0.79134  -0.77392
 Alpha  occ. eigenvalues --   -0.71970  -0.71098  -0.70383  -0.65960  -0.64920
 Alpha  occ. eigenvalues --   -0.64692  -0.62052  -0.61785  -0.60244  -0.58486
 Alpha  occ. eigenvalues --   -0.56229  -0.55160  -0.53535  -0.53325  -0.52933
 Alpha  occ. eigenvalues --   -0.52765  -0.50813  -0.48780  -0.48728  -0.48720
 Alpha  occ. eigenvalues --   -0.47505  -0.46668  -0.46578  -0.44739  -0.44652
 Alpha  occ. eigenvalues --   -0.37218  -0.36282
 Alpha virt. eigenvalues --    0.05138   0.11313   0.16593   0.19348   0.22462
 Alpha virt. eigenvalues --    0.23956   0.24004   0.25923   0.27040   0.27414
 Alpha virt. eigenvalues --    0.29262   0.30056   0.31024   0.31630   0.32038

 Mulliken charges:
               1
     1  C   -0.298600
     2  C   -0.300242
     3  C   -0.476237
     4  H    0.151804
     5  H    0.152042
     6  H    0.151704
     7  H    0.152122
     8  H    0.156430
     9  H    0.156186
    10  H    0.162166
    11  C   -0.299136
    12  C   -0.300420
    13  C   -0.478769
    14  H    0.145293
    15  H    0.146160
    16  H    0.155526
    17  H    0.156068
    18  H    0.152063
    19  H    0.148787
    20  H    0.168183
    21  C   -0.169950
    22  C   -0.220186
    23  C   -0.170676
    24  C    0.158206
    25  C   -0.171161
    26  C   -0.221052
    27  H    0.230598
    28  H    0.222791
    29  H    0.275219
    30  H    0.275168
    31  H    0.223313
    32  N    0.488105
    33  O   -0.460769
    34  O   -0.460736
 Sum of Mulliken charges =  -0.00000

 Dipole moment (field-independent basis, Debye):
    X=             -5.1962    Y=              0.9754    Z=              1.3906  Tot=              5.4668
 Quadrupole moment (field-independent basis, Debye-Ang):
   XX=           -131.5295   YY=            -95.1394   ZZ=            -89.8776
   XY=              4.5225   XZ=              6.7664   YZ=              1.6850

 Normal termination of Gaussian 16 at Thu May  6 04:20:33 2021.
