 Gaussian 16, Revision A.03,
 Gaussian 16:  EM64L-G16RevA.03 25-Dec-2016

 -------------
 #p 6-31g* mp2
 -------------

 ------------------------------------------------------
 Input file generated by CHIRIPA (05-May-2021 14:51:12)
 ------------------------------------------------------
 Symbolic Z-matrix:
 Charge =  0 Multiplicity = 1

                         Standard orientation:
 ---------------------------------------------------------------------
 Center     Atomic      Atomic             Coordinates (Angstroms)
 Number     Number       Type             X           Y           Z
 ---------------------------------------------------------------------
      1          6           0       -3.026281    0.958921    0.348472
      2          6           0       -2.254223    1.948876   -0.524397
      3          6           0       -1.427228    2.939775    0.295354
      4          1           0       -3.686244    1.515868    1.027592
      5          1           0       -2.316987    0.409411    0.982770
      6          1           0       -2.964634    2.495380   -1.157852
      7          1           0       -1.596163    1.389501   -1.201651
      8          1           0       -0.696468    2.411009    0.915835
      9          1           0       -2.072715    3.523171    0.959882
     10          1           0       -0.883503    3.638109   -0.348503
     11          6           0       -3.857798   -0.038156   -0.456603
     12          6           0       -4.629857   -1.028111    0.416265
     13          6           0       -5.456852   -2.019010   -0.403486
     14          1           0       -4.567093    0.511355   -1.090902
     15          1           0       -3.197836   -0.595103   -1.135724
     16          1           0       -5.287917   -0.468735    1.093519
     17          1           0       -3.919446   -1.574614    1.049720
     18          1           0       -4.811365   -2.602405   -1.068014
     19          1           0       -6.187612   -1.490243   -1.023967
     20          1           0       -6.000577   -2.717344    0.240371
     21          6           0        2.835961   -0.622514    0.489743
     22          6           0        1.516402   -0.622266   -0.282752
     23          6           0        0.313120   -0.948308    0.602460
     24          1           0        2.979189   -1.605965    0.957990
     25          1           0        2.773522    0.107469    1.308657
     26          1           0        1.581810   -1.351039   -1.100814
     27          1           0        1.376392    0.361238   -0.749373
     28          1           0        0.219684   -0.215735    1.410673
     29          1           0        0.426268   -1.937742    1.057235
     30          1           0       -0.619675   -0.942715    0.029990
     31          6           0        4.048118   -0.298252   -0.381610
     32          6           0        5.367677   -0.298500    0.390884
     33          6           0        6.570960    0.027543   -0.494328
     34          1           0        4.110558   -1.028234   -1.200525
     35          1           0        3.904892    0.685199   -0.849858
     36          1           0        5.507687   -1.282003    0.857505
     37          1           0        5.302269    0.430275    1.208947
     38          1           0        6.457811    1.016976   -0.949104
     39          1           0        6.664396   -0.705030   -1.302542
     40          1           0        7.503755    0.021950    0.078142
 ---------------------------------------------------------------------

 SCF Done:  E(RHF) =  -470.732430639     A.U. after   11 cycles
 E2 =    -0.1584138120D+01 EUMP2 =    -0.47231656875938D+03

 The electronic state is 1-A.
 Alpha  occ. eigenvalues --  -11.21677 -11.21626 -11.21566 -11.21557 -11.21451
 Alpha  occ. eigenvalues --  -11.21388 -11.21355 -11.21221 -11.21158 -11.21089
 Alpha  occ. eigenvalues --  -11.21060 -11.21046  -1.08492  -1.08375  -1.03610
 Alpha  occ. eigenvalues --   -1.03474  -0.96054  -0.95938  -0.87092  -0.86941
 Alpha  occ. eigenvalues --   -0.79683  -0.79539  -0.78305  -0.78173  -0.65238
 Alpha  occ. eigenvalues --   -0.64983  -0.61184  -0.60729  -0.59370  -0.59312
 Alpha  occ. eigenvalues --   -0.57650  -0.57547  -0.55339  -0.55244  -0.52748
 Alpha  occ. eigenvalues --   -0.52647  -0.52462  -0.52343  -0.50022  -0.49858
 Alpha  occ. eigenvalues --   -0.47973  -0.47860  -0.46795  -0.46516  -0.45860
 Alpha  occ. eigenvalues --   -0.45791  -0.45719  -0.45536  -0.43790  -0.43729
 Alpha virt. eigenvalues --    0.19925   0.22699   0.23546   0.25476   0.25761
 Alpha virt. eigenvalues --    0.26158   0.26620   0.27611   0.27963   0.29360
 Alpha virt. eigenvalues --    0.30664   0.30950   0.31822   0.32039   0.32638

 Mulliken charges:
               1
     1  C   -0.305428
     2  C   -0.300376
     3  C   -0.477810
     4  H    0.149503
     5  H    0.157871
     6  H    0.151893
     7  H    0.152752
     8  H    0.156718
     9  H    0.155246
    10  H    0.159684
    11  C   -0.299791
    12  C   -0.299754
    13  C   -0.475654
    14  H    0.149675
    15  H    0.148927
    16  H    0.152011
    17  H    0.152466
    18  H    0.155013
    19  H    0.155083
    20  H    0.160183
    21  C   -0.298643
    22  C   -0.301519
    23  C   -0.482356
    24  H    0.149830
    25  H    0.149693
    26  H    0.152087
    27  H    0.153881
    28  H    0.156227
    29  H    0.155453
    30  H    0.166595
    31  C   -0.298389
    32  C   -0.299705
    33  C   -0.475745
    34  H    0.149568
    35  H    0.149940
    36  H    0.151955
    37  H    0.152076
    38  H    0.155289
    39  H    0.155194
    40  H    0.160357
 Sum of Mulliken charges =  -0.00000

 Dipole moment (field-independent basis, Debye):
    X=              0.0373    Y=             -0.0199    Z=              0.0174  Tot=              0.0457
 Quadrupole moment (field-independent basis, Debye-Ang):
   XX=            -85.5682   YY=            -84.0973   ZZ=            -85.2233
   XY=             -1.3193   XZ=              0.1024   YZ=             -0.0218

 Normal termination of Gaussian 16 at Wed May  5 16:47:42 2021.
