 Gaussian 16, Revision A.03,
 Gaussian 16:  EM64L-G16RevA.03 25-Dec-2016

 -------------
 #p 6-31g* mp2
 -------------

 ------------------------------------------------------
 Input file generated by CHIRIPA (05-May-2021 14:51:10)
 ------------------------------------------------------
 Symbolic Z-matrix:
 Charge =  0 Multiplicity = 1

                         Standard orientation:
 ---------------------------------------------------------------------
 Center     Atomic      Atomic             Coordinates (Angstroms)
 Number     Number       Type             X           Y           Z
 ---------------------------------------------------------------------
      1          6           0        2.993049   -0.250247   -0.121397
      2          6           0        3.612343   -1.256208    0.849430
      3          6           0        3.460689   -2.702849    0.378237
      4          1           0        1.927835   -0.484900   -0.252555
      5          1           0        3.462534   -0.366618   -1.108026
      6          1           0        3.142801   -1.137034    1.834287
      7          1           0        4.676162   -1.019016    0.978440
      8          1           0        3.945116   -2.844347   -0.593314
      9          1           0        2.403042   -2.963036    0.267396
     10          1           0        3.910362   -3.405172    1.087036
     11          6           0        3.136633    1.200275    0.335874
     12          6           0        2.517340    2.206235   -0.634953
     13          6           0        2.668993    3.652877   -0.163760
     14          1           0        2.667148    1.316645    1.322503
     15          1           0        4.201847    1.434928    0.467032
     16          1           0        1.453520    1.969043   -0.763964
     17          1           0        2.986882    2.087061   -1.619811
     18          1           0        3.726641    3.913063   -0.052919
     19          1           0        2.184567    3.794375    0.807791
     20          1           0        2.219321    4.355200   -0.872560
     21          6           0       -3.397453    0.202625    0.009409
     22          6           0       -4.893547    0.100352    0.308116
     23          6           0       -5.544824    1.464260    0.539177
     24          1           0       -2.897391    0.712637    0.844138
     25          1           0       -3.250000    0.835255   -0.876837
     26          1           0       -5.038220   -0.533025    1.192717
     27          1           0       -5.390077   -0.409645   -0.527333
     28          1           0       -5.429926    2.100646   -0.344233
     29          1           0       -5.076070    1.976565    1.385591
     30          1           0       -6.614250    1.367769    0.751019
     31          6           0       -2.732230   -1.152653   -0.223886
     32          6           0       -1.236135   -1.050380   -0.522593
     33          6           0       -0.584859   -2.414288   -0.753653
     34          1           0       -2.879682   -1.785282    0.662360
     35          1           0       -3.232291   -1.662664   -1.058614
     36          1           0       -0.739606   -0.540382    0.312857
     37          1           0       -1.091463   -0.417002   -1.407194
     38          1           0       -1.053612   -2.926591   -1.600067
     39          1           0       -0.699756   -3.050673    0.129757
     40          1           0        0.484567   -2.317796   -0.965495
 ---------------------------------------------------------------------

 SCF Done:  E(RHF) =  -470.732547918     A.U. after   11 cycles
 E2 =    -0.1583954324D+01 EUMP2 =    -0.47231650224151D+03

 The electronic state is 1-A.
 Alpha  occ. eigenvalues --  -11.21696 -11.21639 -11.21567 -11.21566 -11.21464
 Alpha  occ. eigenvalues --  -11.21403 -11.21366 -11.21298 -11.21100 -11.21100
 Alpha  occ. eigenvalues --  -11.21049 -11.20996  -1.08499  -1.08393  -1.03605
 Alpha  occ. eigenvalues --   -1.03487  -0.96042  -0.95945  -0.87066  -0.86956
 Alpha  occ. eigenvalues --   -0.79677  -0.79542  -0.78337  -0.78194  -0.65170
 Alpha  occ. eigenvalues --   -0.65014  -0.61052  -0.60881  -0.59524  -0.59200
 Alpha  occ. eigenvalues --   -0.57648  -0.57564  -0.55338  -0.55230  -0.52798
 Alpha  occ. eigenvalues --   -0.52632  -0.52472  -0.52348  -0.50029  -0.49836
 Alpha  occ. eigenvalues --   -0.48048  -0.47791  -0.46686  -0.46567  -0.45922
 Alpha  occ. eigenvalues --   -0.45772  -0.45727  -0.45548  -0.43799  -0.43743
 Alpha virt. eigenvalues --    0.20855   0.23155   0.23472   0.24689   0.26103
 Alpha virt. eigenvalues --    0.26565   0.26978   0.27163   0.28166   0.29477
 Alpha virt. eigenvalues --    0.30824   0.31034   0.31733   0.31896   0.32395

 Mulliken charges:
               1
     1  C   -0.308772
     2  C   -0.298877
     3  C   -0.482038
     4  H    0.160919
     5  H    0.148859
     6  H    0.151223
     7  H    0.151800
     8  H    0.154520
     9  H    0.161901
    10  H    0.160084
    11  C   -0.297348
    12  C   -0.300720
    13  C   -0.475604
    14  H    0.148903
    15  H    0.149581
    16  H    0.153192
    17  H    0.151686
    18  H    0.155085
    19  H    0.155041
    20  H    0.160150
    21  C   -0.298402
    22  C   -0.299702
    23  C   -0.475744
    24  H    0.149484
    25  H    0.149676
    26  H    0.152007
    27  H    0.152096
    28  H    0.155287
    29  H    0.155199
    30  H    0.160407
    31  C   -0.298527
    32  C   -0.301370
    33  C   -0.484681
    34  H    0.149779
    35  H    0.150160
    36  H    0.151811
    37  H    0.152880
    38  H    0.156139
    39  H    0.155000
    40  H    0.168917
 Sum of Mulliken charges =  -0.00000

 Dipole moment (field-independent basis, Debye):
    X=             -0.0496    Y=             -0.0152    Z=             -0.0191  Tot=              0.0553
 Quadrupole moment (field-independent basis, Debye-Ang):
   XX=            -84.4636   YY=            -86.8285   ZZ=            -83.5932
   XY=              0.5867   XZ=             -0.1420   YZ=             -0.4784

 Normal termination of Gaussian 16 at Thu May  6 05:24:25 2021.
