 Gaussian 16, Revision A.03,
 Gaussian 16:  EM64L-G16RevA.03 25-Dec-2016

 -------------
 #p 6-31g* mp2
 -------------

 ------------------------------------------------------
 Input file generated by CHIRIPA (05-May-2021 14:57:22)
 ------------------------------------------------------
 Symbolic Z-matrix:
 Charge =  0 Multiplicity = 1

                         Standard orientation:
 ---------------------------------------------------------------------
 Center     Atomic      Atomic             Coordinates (Angstroms)
 Number     Number       Type             X           Y           Z
 ---------------------------------------------------------------------
      1          6           0        4.013243    2.471441    0.394809
      2          6           0        5.181151    1.722868    0.215498
      3          6           0        5.111926    0.353092   -0.055554
      4          6           0        3.852527   -0.238461   -0.140813
      5          6           0        2.670843    0.480376    0.032931
      6          6           0        2.764020    1.848903    0.303114
      7          1           0        4.076322    3.535031    0.605031
      8          1           0        6.152680    2.203685    0.286145
      9          1           0        6.000137   -0.250239   -0.198700
     10          1           0        1.716765   -0.026893   -0.043436
     11          1           0        1.855336    2.427759    0.441915
     12          7           0        3.766564   -1.687921   -0.427304
     13          8           0        2.644882   -2.185468   -0.497400
     14          8           0        4.822495   -2.299014   -0.576334
     15          6           0       -6.259637    0.301776   -0.646960
     16          6           0       -5.261015    1.145329   -1.144649
     17          6           0       -3.931804    0.987072   -0.741285
     18          6           0       -3.635354   -0.029644    0.165190
     19          6           0       -4.607892   -0.886099    0.678945
     20          6           0       -5.930469   -0.709463    0.261646
     21          1           0       -7.289624    0.431853   -0.965715
     22          1           0       -5.513738    1.931520   -1.850396
     23          1           0       -3.138927    1.626001   -1.110788
     24          1           0       -4.325259   -1.660854    1.381291
     25          1           0       -6.703939   -1.366056    0.649813
     26          7           0       -2.231689   -0.206912    0.599589
     27          8           0       -1.996441   -1.110203    1.399189
     28          8           0       -1.393325    0.560794    0.132246
 ---------------------------------------------------------------------

 SCF Done:  E(RHF) =  -868.339908222     A.U. after   15 cycles
 E2 =    -0.2598635267D+01 EUMP2 =    -0.87093854348858D+03

 The electronic state is 1-A.
 Alpha  occ. eigenvalues --  -20.61303 -20.61257 -20.59717 -20.59679 -15.86298
 Alpha  occ. eigenvalues --  -15.84747 -11.31486 -11.30011 -11.28054 -11.28008
 Alpha  occ. eigenvalues --  -11.27745 -11.27020 -11.26991 -11.26695 -11.26424
 Alpha  occ. eigenvalues --  -11.26380 -11.25720 -11.25505  -1.60323  -1.58781
 Alpha  occ. eigenvalues --   -1.39886  -1.38332  -1.19639  -1.18209  -1.09068
 Alpha  occ. eigenvalues --   -1.07650  -1.05017  -1.03572  -0.95934  -0.94479
 Alpha  occ. eigenvalues --   -0.86424  -0.84994  -0.82777  -0.81293  -0.77841
 Alpha  occ. eigenvalues --   -0.76328  -0.72535  -0.71616  -0.70971  -0.70749
 Alpha  occ. eigenvalues --   -0.70105  -0.69331  -0.65299  -0.65021  -0.63859
 Alpha  occ. eigenvalues --   -0.63580  -0.62368  -0.60878  -0.55527  -0.54156
 Alpha  occ. eigenvalues --   -0.53352  -0.53109  -0.51958  -0.51652  -0.49301
 Alpha  occ. eigenvalues --   -0.49249  -0.47740  -0.47710  -0.45325  -0.43758
 Alpha  occ. eigenvalues --   -0.37607  -0.36610  -0.36255  -0.35182
 Alpha virt. eigenvalues --    0.04685   0.06164   0.11048   0.12452   0.16209
 Alpha virt. eigenvalues --    0.17643   0.21181   0.22571   0.27111   0.27981
 Alpha virt. eigenvalues --    0.28557   0.29499   0.30784   0.32070   0.32301

 Mulliken charges:
               1
     1  C   -0.171703
     2  C   -0.219902
     3  C   -0.172112
     4  C    0.156894
     5  C   -0.175589
     6  C   -0.222591
     7  H    0.220869
     8  H    0.218605
     9  H    0.271773
    10  H    0.296289
    11  H    0.228767
    12  N    0.487479
    13  O   -0.456291
    14  O   -0.466261
    15  C   -0.170085
    16  C   -0.218455
    17  C   -0.170406
    18  C    0.158495
    19  C   -0.169879
    20  C   -0.218525
    21  H    0.226774
    22  H    0.223871
    23  H    0.273413
    24  H    0.277570
    25  H    0.225046
    26  N    0.490856
    27  O   -0.452408
    28  O   -0.472496
 Sum of Mulliken charges =  -0.00000

 Dipole moment (field-independent basis, Debye):
    X=             -5.2425    Y=              5.5956    Z=             -0.4565  Tot=              7.6813
 Quadrupole moment (field-independent basis, Debye-Ang):
   XX=            -62.8548   YY=           -105.6379   ZZ=           -105.3130
   XY=             18.5413   XZ=              7.5984   YZ=             -3.5778

 Normal termination of Gaussian 16 at Fri May  7 01:43:10 2021.
