 Gaussian 16, Revision A.03,
 Gaussian 16:  EM64L-G16RevA.03 25-Dec-2016

 -------------
 #p 6-31g* mp2
 -------------

 ------------------------------------------------------
 Input file generated by CHIRIPA (05-May-2021 14:51:11)
 ------------------------------------------------------
 Symbolic Z-matrix:
 Charge =  0 Multiplicity = 1

                         Standard orientation:
 ---------------------------------------------------------------------
 Center     Atomic      Atomic             Coordinates (Angstroms)
 Number     Number       Type             X           Y           Z
 ---------------------------------------------------------------------
      1          6           0       -3.295338   -0.071029    0.814249
      2          6           0       -2.038556   -0.915482    1.027280
      3          6           0       -1.115796   -0.341250    2.102717
      4          1           0       -3.000458    0.950829    0.538935
      5          1           0       -3.841864    0.006618    1.764342
      6          1           0       -1.495285   -0.992665    0.076746
      7          1           0       -2.336465   -1.935497    1.301933
      8          1           0       -1.636051   -0.279896    3.064056
      9          1           0       -0.790091    0.668294    1.831907
     10          1           0       -0.223670   -0.960514    2.238677
     11          6           0       -4.227768   -0.632254   -0.257818
     12          6           0       -5.484551    0.212199   -0.470849
     13          6           0       -6.407311   -0.362032   -1.546286
     14          1           0       -3.681243   -0.709900   -1.207911
     15          1           0       -4.522649   -1.654111    0.017496
     16          1           0       -5.186641    1.232215   -0.745502
     17          1           0       -6.027822    0.289382    0.479685
     18          1           0       -6.733016   -1.371576   -1.275476
     19          1           0       -5.887056   -0.423387   -2.507625
     20          1           0       -7.299436    0.257231   -1.682246
     21          6           0        3.064039    0.557709   -0.511544
     22          6           0        2.506731    1.768061    0.238418
     23          6           0        1.110611    2.168222   -0.239614
     24          1           0        3.093338    0.782117   -1.586591
     25          1           0        2.376102   -0.290135   -0.387854
     26          1           0        3.196208    2.612976    0.114498
     27          1           0        2.478935    1.540815    1.311825
     28          1           0        0.404591    1.343124   -0.100510
     29          1           0        1.125939    2.421377   -1.304640
     30          1           0        0.731394    3.035500    0.309825
     31          6           0        4.459067    0.145573   -0.044888
     32          6           0        5.016376   -1.064778   -0.794849
     33          6           0        6.412495   -1.464940   -0.316816
     34          1           0        5.147004    0.993417   -0.168578
     35          1           0        4.429769   -0.078834    1.030160
     36          1           0        5.044171   -0.837532   -1.868256
     37          1           0        4.326899   -1.909693   -0.670930
     38          1           0        6.397167   -1.718094    0.748208
     39          1           0        7.118516   -0.639842   -0.455921
     40          1           0        6.791713   -2.332217   -0.866256
 ---------------------------------------------------------------------

 SCF Done:  E(RHF) =  -470.733152566     A.U. after   11 cycles
 E2 =    -0.1582805120D+01 EUMP2 =    -0.47231595768588D+03

 The electronic state is 1-A.
 Alpha  occ. eigenvalues --  -11.21632 -11.21603 -11.21602 -11.21593 -11.21406
 Alpha  occ. eigenvalues --  -11.21404 -11.21346 -11.21345 -11.21074 -11.21071
 Alpha  occ. eigenvalues --  -11.21063 -11.21062  -1.08445  -1.08421  -1.03573
 Alpha  occ. eigenvalues --   -1.03502  -0.96038  -0.95938  -0.87051  -0.86958
 Alpha  occ. eigenvalues --   -0.79626  -0.79573  -0.78247  -0.78242  -0.65161
 Alpha  occ. eigenvalues --   -0.64986  -0.61194  -0.60713  -0.59373  -0.59335
 Alpha  occ. eigenvalues --   -0.57600  -0.57593  -0.55571  -0.54992  -0.52690
 Alpha  occ. eigenvalues --   -0.52678  -0.52443  -0.52367  -0.50127  -0.49712
 Alpha  occ. eigenvalues --   -0.47968  -0.47852  -0.46698  -0.46540  -0.45822
 Alpha  occ. eigenvalues --   -0.45756  -0.45709  -0.45679  -0.43796  -0.43785
 Alpha virt. eigenvalues --    0.20511   0.23062   0.23665   0.25092   0.26363
 Alpha virt. eigenvalues --    0.26647   0.27048   0.27769   0.27990   0.29062
 Alpha virt. eigenvalues --    0.30916   0.31366   0.31542   0.31846   0.31980

 Mulliken charges:
               1
     1  C   -0.298665
     2  C   -0.301166
     3  C   -0.480919
     4  H    0.150490
     5  H    0.149613
     6  H    0.151973
     7  H    0.152300
     8  H    0.155558
     9  H    0.161070
    10  H    0.159229
    11  C   -0.298340
    12  C   -0.299715
    13  C   -0.475721
    14  H    0.149726
    15  H    0.149545
    16  H    0.152200
    17  H    0.151870
    18  H    0.155115
    19  H    0.155247
    20  H    0.160255
    21  C   -0.298669
    22  C   -0.299697
    23  C   -0.481608
    24  H    0.149482
    25  H    0.149807
    26  H    0.152009
    27  H    0.152973
    28  H    0.161354
    29  H    0.155004
    30  H    0.159607
    31  C   -0.298360
    32  C   -0.299667
    33  C   -0.475710
    34  H    0.149541
    35  H    0.149804
    36  H    0.151896
    37  H    0.151920
    38  H    0.155216
    39  H    0.155187
    40  H    0.160249
 Sum of Mulliken charges =  -0.00000

 Dipole moment (field-independent basis, Debye):
    X=             -0.0048    Y=              0.0092    Z=              0.0046  Tot=              0.0113
 Quadrupole moment (field-independent basis, Debye-Ang):
   XX=            -85.9609   YY=            -84.3903   ZZ=            -84.4266
   XY=              0.7046   XZ=             -1.4504   YZ=             -0.9288

 Normal termination of Gaussian 16 at Wed May  5 21:28:49 2021.
