 Gaussian 16, Revision A.03,
 Gaussian 16:  EM64L-G16RevA.03 25-Dec-2016

 -------------
 #p 6-31g* mp2
 -------------

 ------------------------------------------------------
 Input file generated by CHIRIPA (05-May-2021 14:51:13)
 ------------------------------------------------------
 Symbolic Z-matrix:
 Charge =  0 Multiplicity = 1

                         Standard orientation:
 ---------------------------------------------------------------------
 Center     Atomic      Atomic             Coordinates (Angstroms)
 Number     Number       Type             X           Y           Z
 ---------------------------------------------------------------------
      1          6           0        2.459771    0.209188    0.560699
      2          6           0        3.341923    1.450179    0.420224
      3          6           0        3.100091    2.475855    1.528061
      4          1           0        1.404522    0.514746    0.555470
      5          1           0        2.645773   -0.255525    1.538881
      6          1           0        3.155322    1.911630   -0.557968
      7          1           0        4.395191    1.141612    0.425597
      8          1           0        3.305126    2.037679    2.510182
      9          1           0        2.058213    2.812072    1.521030
     10          1           0        3.741054    3.354870    1.408237
     11          6           0        2.689968   -0.825411   -0.539456
     12          6           0        1.807817   -2.066403   -0.398981
     13          6           0        2.049649   -3.092079   -1.506817
     14          1           0        2.503966   -0.360699   -1.517638
     15          1           0        3.745218   -1.130970   -0.534226
     16          1           0        0.754549   -1.757836   -0.404353
     17          1           0        1.994418   -2.527854    0.579211
     18          1           0        3.091527   -3.428296   -1.499787
     19          1           0        1.844614   -2.653903   -2.488939
     20          1           0        1.408685   -3.971094   -1.386994
     21          6           0       -2.238103    0.745564   -0.538500
     22          6           0       -2.638430    2.218651   -0.450545
     23          6           0       -1.956497    3.081026   -1.513124
     24          1           0       -1.147477    0.661825   -0.436185
     25          1           0       -2.488507    0.363802   -1.537976
     26          1           0       -2.388611    2.597148    0.548927
     27          1           0       -3.728249    2.298875   -0.552890
     28          1           0       -2.215011    2.730741   -2.517649
     29          1           0       -0.867760    3.030709   -1.409571
     30          1           0       -2.256872    4.130335   -1.431973
     31          6           0       -2.911637   -0.129340    0.517257
     32          6           0       -2.511309   -1.602427    0.429303
     33          6           0       -3.193243   -2.464802    1.491881
     34          1           0       -2.661233    0.252422    1.516732
     35          1           0       -4.002263   -0.045603    0.414942
     36          1           0       -1.421491   -1.682650    0.531647
     37          1           0       -2.761129   -1.980924   -0.570170
     38          1           0       -4.281979   -2.414485    1.388328
     39          1           0       -2.934730   -2.114517    2.496406
     40          1           0       -2.892868   -3.514111    1.410730
 ---------------------------------------------------------------------

 SCF Done:  E(RHF) =  -470.733238479     A.U. after   11 cycles
 E2 =    -0.1583817318D+01 EUMP2 =    -0.47231705579703D+03

 The electronic state is 1-A.
 Alpha  occ. eigenvalues --  -11.21655 -11.21646 -11.21593 -11.21591 -11.21458
 Alpha  occ. eigenvalues --  -11.21452 -11.21387 -11.21382 -11.21126 -11.21114
 Alpha  occ. eigenvalues --  -11.21072 -11.21067  -1.08494  -1.08446  -1.03578
 Alpha  occ. eigenvalues --   -1.03539  -0.96018  -0.95999  -0.87038  -0.87011
 Alpha  occ. eigenvalues --   -0.79706  -0.79552  -0.78411  -0.78167  -0.65278
 Alpha  occ. eigenvalues --   -0.64932  -0.61069  -0.60857  -0.59426  -0.59326
 Alpha  occ. eigenvalues --   -0.57662  -0.57577  -0.55361  -0.55234  -0.52716
 Alpha  occ. eigenvalues --   -0.52685  -0.52465  -0.52404  -0.50023  -0.49892
 Alpha  occ. eigenvalues --   -0.48136  -0.47811  -0.46865  -0.46474  -0.46327
 Alpha  occ. eigenvalues --   -0.45781  -0.45775  -0.45131  -0.43823  -0.43802
 Alpha virt. eigenvalues --    0.19588   0.23052   0.23583   0.24764   0.25023
 Alpha virt. eigenvalues --    0.26972   0.27001   0.27471   0.28128   0.29728
 Alpha virt. eigenvalues --    0.31266   0.31490   0.31639   0.31841   0.31989

 Mulliken charges:
               1
     1  C   -0.303330
     2  C   -0.299537
     3  C   -0.475705
     4  H    0.152439
     5  H    0.149746
     6  H    0.152023
     7  H    0.152386
     8  H    0.155284
     9  H    0.154728
    10  H    0.160611
    11  C   -0.297175
    12  C   -0.309618
    13  C   -0.475075
    14  H    0.149689
    15  H    0.149864
    16  H    0.161453
    17  H    0.151370
    18  H    0.155073
    19  H    0.155315
    20  H    0.160368
    21  C   -0.304602
    22  C   -0.299513
    23  C   -0.475692
    24  H    0.153810
    25  H    0.149736
    26  H    0.152000
    27  H    0.152467
    28  H    0.155347
    29  H    0.154469
    30  H    0.160659
    31  C   -0.297481
    32  C   -0.308297
    33  C   -0.475077
    34  H    0.149592
    35  H    0.149876
    36  H    0.160649
    37  H    0.151495
    38  H    0.155081
    39  H    0.155258
    40  H    0.160311
 Sum of Mulliken charges =  -0.00000

 Dipole moment (field-independent basis, Debye):
    X=             -0.0033    Y=             -0.0051    Z=             -0.0012  Tot=              0.0062
 Quadrupole moment (field-independent basis, Debye-Ang):
   XX=            -83.7770   YY=            -85.8121   ZZ=            -85.0668
   XY=             -0.4570   XZ=              1.2710   YZ=             -0.2282

 Normal termination of Gaussian 16 at Thu May  6 00:48:14 2021.
