 Gaussian 16, Revision A.03,
 Gaussian 16:  EM64L-G16RevA.03 25-Dec-2016

 -------------
 #p 6-31g* mp2
 -------------

 ------------------------------------------------------
 Input file generated by CHIRIPA (05-May-2021 14:51:11)
 ------------------------------------------------------
 Symbolic Z-matrix:
 Charge =  0 Multiplicity = 1

                         Standard orientation:
 ---------------------------------------------------------------------
 Center     Atomic      Atomic             Coordinates (Angstroms)
 Number     Number       Type             X           Y           Z
 ---------------------------------------------------------------------
      1          6           0        3.116894   -0.084217    0.532103
      2          6           0        2.420175   -1.050763    1.490413
      3          6           0        1.127822   -0.477303    2.072446
      4          1           0        3.335833    0.853083    1.061705
      5          1           0        2.427805    0.171837   -0.284590
      6          1           0        3.110854   -1.306000    2.304313
      7          1           0        2.203040   -1.985942    0.958522
      8          1           0        0.417918   -0.239323    1.273696
      9          1           0        1.330889    0.444482    2.627134
     10          1           0        0.646222   -1.184709    2.754720
     11          6           0        4.410351   -0.643248   -0.057965
     12          6           0        5.107070    0.323297   -1.016275
     13          6           0        6.399422   -0.250163   -1.598308
     14          1           0        5.099440   -0.899303    0.758728
     15          1           0        4.191411   -1.580549   -0.587567
     16          1           0        5.324204    1.258476   -0.484384
     17          1           0        4.416391    0.578534   -1.830175
     18          1           0        6.196356   -1.171948   -2.152996
     19          1           0        7.109327   -0.488142   -0.799558
     20          1           0        6.881023    0.457243   -2.280582
     21          6           0       -4.022155   -0.343279   -0.107734
     22          6           0       -5.300254   -0.672260   -0.879887
     23          6           0       -5.805124   -2.090164   -0.610720
     24          1           0       -3.242156   -1.068888   -0.376132
     25          1           0       -4.209200   -0.468905    0.967732
     26          1           0       -5.111249   -0.544713   -1.953491
     27          1           0       -6.077244    0.054333   -0.609765
     28          1           0       -6.021286   -2.226521    0.453837
     29          1           0       -5.049803   -2.828971   -0.897524
     30          1           0       -6.719579   -2.304158   -1.172714
     31          6           0       -3.505090    1.070745   -0.366404
     32          6           0       -2.226990    1.399726    0.405748
     33          6           0       -1.722122    2.817629    0.136581
     34          1           0       -3.318044    1.196371   -1.441870
     35          1           0       -4.285089    1.796354   -0.098007
     36          1           0       -1.450002    0.673133    0.135626
     37          1           0       -2.415996    1.272178    1.479352
     38          1           0       -2.477442    3.556436    0.423385
     39          1           0       -1.505959    2.953987   -0.927975
     40          1           0       -0.807666    3.031623    0.698576
 ---------------------------------------------------------------------

 SCF Done:  E(RHF) =  -470.733201184     A.U. after   11 cycles
 E2 =    -0.1582558533D+01 EUMP2 =    -0.47231575971656D+03

 The electronic state is 1-A.
 Alpha  occ. eigenvalues --  -11.21601 -11.21599 -11.21580 -11.21578 -11.21402
 Alpha  occ. eigenvalues --  -11.21398 -11.21343 -11.21338 -11.21071 -11.21070
 Alpha  occ. eigenvalues --  -11.21049 -11.21000  -1.08432  -1.08415  -1.03542
 Alpha  occ. eigenvalues --   -1.03496  -0.95986  -0.95947  -0.87003  -0.86963
 Alpha  occ. eigenvalues --   -0.79663  -0.79508  -0.78276  -0.78196  -0.65097
 Alpha  occ. eigenvalues --   -0.65019  -0.61015  -0.60836  -0.59369  -0.59307
 Alpha  occ. eigenvalues --   -0.57670  -0.57486  -0.55305  -0.55210  -0.52673
 Alpha  occ. eigenvalues --   -0.52649  -0.52405  -0.52375  -0.50008  -0.49845
 Alpha  occ. eigenvalues --   -0.48050  -0.47762  -0.46760  -0.46483  -0.45869
 Alpha  occ. eigenvalues --   -0.45740  -0.45720  -0.45526  -0.43777  -0.43768
 Alpha virt. eigenvalues --    0.21777   0.23092   0.23545   0.24862   0.25850
 Alpha virt. eigenvalues --    0.26857   0.26897   0.27650   0.27933   0.28932
 Alpha virt. eigenvalues --    0.30417   0.31437   0.31578   0.31976   0.32212

 Mulliken charges:
               1
     1  C   -0.298122
     2  C   -0.299435
     3  C   -0.482061
     4  H    0.149637
     5  H    0.148943
     6  H    0.151780
     7  H    0.151518
     8  H    0.162586
     9  H    0.154612
    10  H    0.160109
    11  C   -0.298260
    12  C   -0.299637
    13  C   -0.475702
    14  H    0.149599
    15  H    0.149532
    16  H    0.151991
    17  H    0.151860
    18  H    0.155126
    19  H    0.155201
    20  H    0.160255
    21  C   -0.298228
    22  C   -0.299629
    23  C   -0.475690
    24  H    0.149234
    25  H    0.149797
    26  H    0.151816
    27  H    0.151992
    28  H    0.155247
    29  H    0.155106
    30  H    0.160228
    31  C   -0.297662
    32  C   -0.303782
    33  C   -0.476141
    34  H    0.149153
    35  H    0.149675
    36  H    0.155166
    37  H    0.153034
    38  H    0.155181
    39  H    0.154696
    40  H    0.161273
 Sum of Mulliken charges =  -0.00000

 Dipole moment (field-independent basis, Debye):
    X=             -0.0158    Y=              0.0098    Z=              0.0088  Tot=              0.0206
 Quadrupole moment (field-independent basis, Debye-Ang):
   XX=            -85.3912   YY=            -85.5963   ZZ=            -83.8356
   XY=             -0.2048   XZ=              0.4447   YZ=              0.5804

 Normal termination of Gaussian 16 at Thu May  6 03:52:57 2021.
