 Gaussian 16, Revision A.03,
 Gaussian 16:  EM64L-G16RevA.03 25-Dec-2016

 -------------
 #p 6-31g* mp2
 -------------

 ------------------------------------------------------
 Input file generated by CHIRIPA (05-May-2021 14:55:25)
 ------------------------------------------------------
 Symbolic Z-matrix:
 Charge =  0 Multiplicity = 1

                         Standard orientation:
 ---------------------------------------------------------------------
 Center     Atomic      Atomic             Coordinates (Angstroms)
 Number     Number       Type             X           Y           Z
 ---------------------------------------------------------------------
      1          6           0       -0.635009   -0.516447    0.746951
      2          6           0       -1.344887    0.630164    1.118271
      3          6           0       -2.696288    0.766844    0.787242
      4          6           0       -3.309123   -0.267172    0.081173
      5          6           0       -2.628874   -1.421726   -0.302955
      6          6           0       -1.278134   -1.536933    0.038772
      7          1           0        0.414536   -0.614283    1.008258
      8          1           0       -0.848010    1.424285    1.668299
      9          1           0       -3.269693    1.643784    1.062200
     10          1           0       -3.151401   -2.196505   -0.850770
     11          1           0       -0.729332   -2.428530   -0.250911
     12          7           0       -4.739441   -0.133841   -0.274936
     13          8           0       -5.256372   -1.059028   -0.897389
     14          8           0       -5.316510    0.893327    0.075142
     15          6           0        3.876649    1.131007   -0.144649
     16          6           0        2.483457    1.650893   -0.500624
     17          6           0        2.384633    3.174917   -0.427307
     18          1           0        4.139584    1.468668    0.867179
     19          1           0        4.613020    1.580287   -0.825310
     20          1           0        1.749763    1.199698    0.179620
     21          1           0        2.223730    1.311794   -1.511649
     22          1           0        3.094546    3.640689   -1.118454
     23          1           0        2.617885    3.527957    0.582425
     24          1           0        1.380334    3.524991   -0.685553
     25          6           0        3.991228   -0.390792   -0.213402
     26          6           0        5.384421   -0.910678    0.142573
     27          6           0        5.483244   -2.434702    0.069257
     28          1           0        3.254857   -0.840073    0.467259
     29          1           0        3.728293   -0.728453   -1.225230
     30          1           0        5.644148   -0.571580    1.153598
     31          1           0        6.118115   -0.459484   -0.537671
     32          1           0        5.249992   -2.787742   -0.940476
     33          1           0        4.773332   -2.900474    0.760403
     34          1           0        6.487543   -2.784775    0.327503
 ---------------------------------------------------------------------

 SCF Done:  E(RHF) =  -669.535048995     A.U. after   15 cycles
 E2 =    -0.2092087232D+01 EUMP2 =    -0.67162713622730D+03

 The electronic state is 1-A.
 Alpha  occ. eigenvalues --  -20.60743 -20.60738 -15.85797 -11.31159 -11.27734
 Alpha  occ. eigenvalues --  -11.27730 -11.27451 -11.26743 -11.26727 -11.22541
 Alpha  occ. eigenvalues --  -11.22422 -11.22364 -11.22255 -11.21864 -11.21797
 Alpha  occ. eigenvalues --   -1.59819  -1.39372  -1.19335  -1.09341  -1.08728
 Alpha  occ. eigenvalues --   -1.04738  -1.04370  -0.96811  -0.95568  -0.87824
 Alpha  occ. eigenvalues --   -0.86136  -0.82403  -0.80442  -0.79174  -0.77443
 Alpha  occ. eigenvalues --   -0.72015  -0.71142  -0.70472  -0.65982  -0.64987
 Alpha  occ. eigenvalues --   -0.64738  -0.62098  -0.61759  -0.60176  -0.58424
 Alpha  occ. eigenvalues --   -0.56102  -0.55271  -0.53477  -0.53234  -0.53062
 Alpha  occ. eigenvalues --   -0.52827  -0.50756  -0.48781  -0.48772  -0.48735
 Alpha  occ. eigenvalues --   -0.47483  -0.46684  -0.46621  -0.44779  -0.44640
 Alpha  occ. eigenvalues --   -0.37276  -0.36341
 Alpha virt. eigenvalues --    0.05073   0.11243   0.16511   0.19180   0.22684
 Alpha virt. eigenvalues --    0.23297   0.24680   0.26124   0.26570   0.27767
 Alpha virt. eigenvalues --    0.29692   0.30700   0.31048   0.31166   0.31556

 Mulliken charges:
               1
     1  C   -0.170617
     2  C   -0.219352
     3  C   -0.171066
     4  C    0.158228
     5  C   -0.170875
     6  C   -0.220633
     7  H    0.229377
     8  H    0.223844
     9  H    0.275514
    10  H    0.275518
    11  H    0.223733
    12  N    0.488086
    13  O   -0.460512
    14  O   -0.460544
    15  C   -0.299046
    16  C   -0.301839
    17  C   -0.477124
    18  H    0.150047
    19  H    0.153819
    20  H    0.142828
    21  H    0.156436
    22  H    0.159340
    23  H    0.154326
    24  H    0.162559
    25  C   -0.299121
    26  C   -0.300078
    27  C   -0.476171
    28  H    0.140041
    29  H    0.152030
    30  H    0.153220
    31  H    0.155235
    32  H    0.156138
    33  H    0.153216
    34  H    0.163440
 Sum of Mulliken charges =  -0.00000

 Dipole moment (field-independent basis, Debye):
    X=              5.2272    Y=             -0.4232    Z=              1.1594  Tot=              5.3709
 Quadrupole moment (field-independent basis, Debye-Ang):
   XX=           -127.9427   YY=            -91.5931   ZZ=            -93.2316
   XY=              0.4121   XZ=             -4.3706   YZ=              1.7925

 Normal termination of Gaussian 16 at Thu May  6 04:48:18 2021.
