 Gaussian 16, Revision A.03,
 Gaussian 16:  EM64L-G16RevA.03 25-Dec-2016

 -------------
 #p 6-31g* mp2
 -------------

 ------------------------------------------------------
 Input file generated by CHIRIPA (05-May-2021 14:57:25)
 ------------------------------------------------------
 Symbolic Z-matrix:
 Charge =  0 Multiplicity = 1

                         Standard orientation:
 ---------------------------------------------------------------------
 Center     Atomic      Atomic             Coordinates (Angstroms)
 Number     Number       Type             X           Y           Z
 ---------------------------------------------------------------------
      1          6           0        5.726098   -0.278336    0.604262
      2          6           0        5.129942   -1.391458    0.002532
      3          6           0        3.810058   -1.329839   -0.454257
      4          6           0        3.112434   -0.133828   -0.292489
      5          6           0        3.678663    0.992305    0.302909
      6          6           0        4.999837    0.907901    0.752269
      7          1           0        6.751917   -0.335053    0.956222
      8          1           0        5.691564   -2.314013   -0.113735
      9          1           0        3.324060   -2.176489   -0.923732
     10          1           0        3.093503    1.898180    0.404868
     11          1           0        5.460255    1.773948    1.219199
     12          7           0        1.714449   -0.056534   -0.772139
     13          8           0        1.121208    1.008782   -0.617851
     14          8           0        1.238421   -1.062730   -1.293295
     15          6           0       -2.142089    2.363829    0.124737
     16          6           0       -3.145901    2.073694   -0.805156
     17          6           0       -3.817865    0.848363   -0.765467
     18          6           0       -3.458923   -0.067790    0.222012
     19          6           0       -2.463217    0.191883    1.162453
     20          6           0       -1.804545    1.423656    1.103849
     21          1           0       -1.625253    3.318198    0.086559
     22          1           0       -3.410135    2.801943   -1.566653
     23          1           0       -4.598882    0.597810   -1.473037
     24          1           0       -2.221878   -0.554117    1.909890
     25          1           0       -1.025380    1.646260    1.827308
     26          7           0       -4.163265   -1.368403    0.274042
     27          8           0       -3.828409   -2.158612    1.153859
     28          8           0       -5.036847   -1.572988   -0.565979
 ---------------------------------------------------------------------

 SCF Done:  E(RHF) =  -868.337855764     A.U. after   16 cycles
 E2 =    -0.2600023862D+01 EUMP2 =    -0.87093787962604D+03

 The electronic state is 1-A.
 Alpha  occ. eigenvalues --  -20.61302 -20.61251 -20.59690 -20.59685 -15.86317
 Alpha  occ. eigenvalues --  -15.84737 -11.31632 -11.29867 -11.28235 -11.28150
 Alpha  occ. eigenvalues --  -11.27902 -11.27207 -11.27153 -11.26442 -11.26412
 Alpha  occ. eigenvalues --  -11.26121 -11.25430 -11.25392  -1.60344  -1.58766
 Alpha  occ. eigenvalues --   -1.39905  -1.38329  -1.19794  -1.18007  -1.09195
 Alpha  occ. eigenvalues --   -1.07446  -1.05188  -1.03412  -0.96042  -0.94333
 Alpha  occ. eigenvalues --   -0.86588  -0.84832  -0.82879  -0.81201  -0.77940
 Alpha  occ. eigenvalues --   -0.76279  -0.72550  -0.71671  -0.70974  -0.70897
 Alpha  occ. eigenvalues --   -0.70074  -0.69166  -0.65448  -0.65185  -0.63695
 Alpha  occ. eigenvalues --   -0.63465  -0.62540  -0.60810  -0.55679  -0.53940
 Alpha  occ. eigenvalues --   -0.53521  -0.53278  -0.51715  -0.51556  -0.49296
 Alpha  occ. eigenvalues --   -0.49251  -0.47734  -0.47707  -0.45322  -0.43791
 Alpha  occ. eigenvalues --   -0.37768  -0.36791  -0.35882  -0.34941
 Alpha virt. eigenvalues --    0.04576   0.06285   0.10864   0.12702   0.16109
 Alpha virt. eigenvalues --    0.17857   0.21010   0.22578   0.26910   0.27820
 Alpha virt. eigenvalues --    0.28482   0.29473   0.30610   0.31936   0.32268

 Mulliken charges:
               1
     1  C   -0.170505
     2  C   -0.218274
     3  C   -0.170432
     4  C    0.158155
     5  C   -0.171994
     6  C   -0.218211
     7  H    0.227100
     8  H    0.225667
     9  H    0.278142
    10  H    0.270751
    11  H    0.223538
    12  N    0.488598
    13  O   -0.466928
    14  O   -0.454311
    15  C   -0.158237
    16  C   -0.218067
    17  C   -0.170692
    18  C    0.160445
    19  C   -0.171027
    20  C   -0.200859
    21  H    0.220907
    22  H    0.218418
    23  H    0.271330
    24  H    0.269844
    25  H    0.216118
    26  N    0.488673
    27  O   -0.464202
    28  O   -0.463949
 Sum of Mulliken charges =  -0.00000

 Dipole moment (field-independent basis, Debye):
    X=              7.7822    Y=              4.2735    Z=              1.4157  Tot=              8.9905
 Quadrupole moment (field-independent basis, Debye-Ang):
   XX=            -91.5824   YY=           -101.2862   ZZ=           -103.5734
   XY=            -19.2353   XZ=              7.6871   YZ=              1.4824

 Normal termination of Gaussian 16 at Thu May  6 03:31:45 2021.
