 Gaussian 16, Revision A.03,
 Gaussian 16:  EM64L-G16RevA.03 25-Dec-2016

 -------------
 #p 6-31g* mp2
 -------------

 ------------------------------------------------------
 Input file generated by CHIRIPA (05-May-2021 14:57:25)
 ------------------------------------------------------
 Symbolic Z-matrix:
 Charge =  0 Multiplicity = 1

                         Standard orientation:
 ---------------------------------------------------------------------
 Center     Atomic      Atomic             Coordinates (Angstroms)
 Number     Number       Type             X           Y           Z
 ---------------------------------------------------------------------
      1          6           0       -2.520863    2.499358    0.008462
      2          6           0       -1.714838    1.588582    0.699353
      3          6           0       -2.023733    0.225082    0.699736
      4          6           0       -3.151180   -0.194862   -0.004395
      5          6           0       -3.973833    0.688001   -0.702309
      6          6           0       -3.645805    2.046959   -0.688935
      7          1           0       -2.273475    3.556794    0.013508
      8          1           0       -0.840580    1.937073    1.241821
      9          1           0       -1.417022   -0.501688    1.226164
     10          1           0       -4.838866    0.310597   -1.234006
     11          1           0       -4.273586    2.752008   -1.226375
     12          7           0       -3.488320   -1.635934   -0.011272
     13          8           0       -4.487066   -1.980569   -0.639262
     14          8           0       -2.747442   -2.393525    0.611458
     15          6           0        2.811570    2.458446    0.175869
     16          6           0        3.559130    1.909450   -0.871164
     17          6           0        3.723143    0.525069   -0.976704
     18          6           0        3.123075   -0.284440   -0.013425
     19          6           0        2.372377    0.232390    1.041387
     20          6           0        2.221619    1.619643    1.127126
     21          1           0        2.689309    3.534981    0.250165
     22          1           0        4.018430    2.558450   -1.611357
     23          1           0        4.296686    0.073453   -1.777020
     24          1           0        1.926497   -0.440111    1.764125
     25          1           0        1.640510    2.043212    1.941341
     26          7           0        3.289691   -1.751542   -0.114674
     27          8           0        2.750924   -2.443154    0.746742
     28          8           0        3.955899   -2.182064   -1.053533
 ---------------------------------------------------------------------

 SCF Done:  E(RHF) =  -868.335752782     A.U. after   16 cycles
 E2 =    -0.2601044957D+01 EUMP2 =    -0.87093679773846D+03

 The electronic state is 1-A.
 Alpha  occ. eigenvalues --  -20.61031 -20.61016 -20.60775 -20.60753 -15.86092
 Alpha  occ. eigenvalues --  -15.85827 -11.31725 -11.31372 -11.28404 -11.28300
 Alpha  occ. eigenvalues --  -11.28169 -11.27987 -11.27947 -11.27783 -11.27528
 Alpha  occ. eigenvalues --  -11.27355 -11.27081 -11.27010  -1.60096  -1.59840
 Alpha  occ. eigenvalues --   -1.39643  -1.39388  -1.19942  -1.19569  -1.09289
 Alpha  occ. eigenvalues --   -1.08940  -1.05408  -1.05003  -0.96072  -0.95741
 Alpha  occ. eigenvalues --   -0.86800  -0.86395  -0.82923  -0.82569  -0.77925
 Alpha  occ. eigenvalues --   -0.77571  -0.72304  -0.72040  -0.71424  -0.71167
 Alpha  occ. eigenvalues --   -0.71052  -0.70697  -0.65600  -0.65549  -0.65228
 Alpha  occ. eigenvalues --   -0.64953  -0.62816  -0.62288  -0.55898  -0.55530
 Alpha  occ. eigenvalues --   -0.53744  -0.53569  -0.53298  -0.53007  -0.49085
 Alpha  occ. eigenvalues --   -0.49044  -0.48817  -0.48785  -0.44988  -0.44753
 Alpha  occ. eigenvalues --   -0.37938  -0.37566  -0.37081  -0.36509
 Alpha virt. eigenvalues --    0.04613   0.04990   0.10412   0.11155   0.15921
 Alpha virt. eigenvalues --    0.16445   0.18993   0.22055   0.25019   0.26348
 Alpha virt. eigenvalues --    0.28189   0.28868   0.29736   0.31451   0.32083

 Mulliken charges:
               1
     1  C   -0.172304
     2  C   -0.215040
     3  C   -0.171807
     4  C    0.159180
     5  C   -0.170425
     6  C   -0.218219
     7  H    0.222537
     8  H    0.214756
     9  H    0.275905
    10  H    0.276836
    11  H    0.223636
    12  N    0.487795
    13  O   -0.460171
    14  O   -0.456233
    15  C   -0.170992
    16  C   -0.217902
    17  C   -0.168716
    18  C    0.160591
    19  C   -0.172260
    20  C   -0.222413
    21  H    0.224473
    22  H    0.225429
    23  H    0.278591
    24  H    0.276457
    25  H    0.216776
    26  N    0.488026
    27  O   -0.456252
    28  O   -0.458254
 Sum of Mulliken charges =  -0.00000

 Dipole moment (field-independent basis, Debye):
    X=              0.7297    Y=             10.0099    Z=              0.2128  Tot=             10.0387
 Quadrupole moment (field-independent basis, Debye-Ang):
   XX=           -111.1889   YY=           -110.7891   ZZ=           -100.6994
   XY=             -0.3885   XZ=              0.8568   YZ=             -1.7216

 Normal termination of Gaussian 16 at Thu May  6 14:41:56 2021.
