 Gaussian 16, Revision A.03,
 Gaussian 16:  EM64L-G16RevA.03 25-Dec-2016

 -------------
 #p 6-31g* mp2
 -------------

 ------------------------------------------------------
 Input file generated by CHIRIPA (05-May-2021 14:57:24)
 ------------------------------------------------------
 Symbolic Z-matrix:
 Charge =  0 Multiplicity = 1

                         Standard orientation:
 ---------------------------------------------------------------------
 Center     Atomic      Atomic             Coordinates (Angstroms)
 Number     Number       Type             X           Y           Z
 ---------------------------------------------------------------------
      1          6           0       -4.828717    1.304848    1.069357
      2          6           0       -3.485842    1.691139    1.132501
      3          6           0       -2.500995    0.945434    0.477864
      4          6           0       -2.896202   -0.186065   -0.234042
      5          6           0       -4.225888   -0.596624   -0.315681
      6          6           0       -5.193811    0.164211    0.346741
      7          1           0       -5.587197    1.890007    1.580918
      8          1           0       -3.199397    2.576516    1.692949
      9          1           0       -1.454104    1.221820    0.510223
     10          1           0       -4.480776   -1.484032   -0.882213
     11          1           0       -6.235942   -0.138163    0.295971
     12          7           0       -1.862547   -0.983519   -0.931198
     13          8           0       -2.236605   -1.976302   -1.551761
     14          8           0       -0.697882   -0.600679   -0.843864
     15          6           0        2.865636   -1.918527    1.678688
     16          6           0        3.262357   -0.672125    2.174286
     17          6           0        3.377064    0.428101    1.319363
     18          6           0        3.085986    0.245393   -0.031629
     19          6           0        2.688355   -0.983690   -0.555587
     20          6           0        2.580404   -2.070064    0.317732
     21          1           0        2.779153   -2.767829    2.349958
     22          1           0        3.484510   -0.551505    3.230763
     23          1           0        3.682102    1.404261    1.676407
     24          1           0        2.473623   -1.073011   -1.613571
     25          1           0        2.272088   -3.036858   -0.069947
     26          7           0        3.203844    1.402821   -0.946435
     27          8           0        2.941729    1.215752   -2.132579
     28          8           0        3.556106    2.475166   -0.459995
 ---------------------------------------------------------------------

 SCF Done:  E(RHF) =  -868.338800845     A.U. after   16 cycles
 E2 =    -0.2599621699D+01 EUMP2 =    -0.87093842254429D+03

 The electronic state is 1-A.
 Alpha  occ. eigenvalues --  -20.61061 -20.61034 -20.59956 -20.59909 -15.86081
 Alpha  occ. eigenvalues --  -15.84982 -11.31319 -11.30159 -11.27888 -11.27854
 Alpha  occ. eigenvalues --  -11.27605 -11.26876 -11.26859 -11.26847 -11.26632
 Alpha  occ. eigenvalues --  -11.26551 -11.25852 -11.25636  -1.60120  -1.59014
 Alpha  occ. eigenvalues --   -1.39675  -1.38570  -1.19484  -1.18355  -1.08907
 Alpha  occ. eigenvalues --   -1.07806  -1.04866  -1.03727  -0.95764  -0.94658
 Alpha  occ. eigenvalues --   -0.86271  -0.85157  -0.82598  -0.81492  -0.77657
 Alpha  occ. eigenvalues --   -0.76541  -0.72331  -0.71425  -0.71214  -0.70594
 Alpha  occ. eigenvalues --   -0.70326  -0.69510  -0.65141  -0.64870  -0.64025
 Alpha  occ. eigenvalues --   -0.63762  -0.62212  -0.61081  -0.55380  -0.54313
 Alpha  occ. eigenvalues --   -0.53206  -0.52957  -0.52071  -0.51841  -0.49082
 Alpha  occ. eigenvalues --   -0.49063  -0.47978  -0.47948  -0.45101  -0.44016
 Alpha  occ. eigenvalues --   -0.37463  -0.36464  -0.36377  -0.35253
 Alpha virt. eigenvalues --    0.04860   0.06002   0.11192   0.12350   0.16375
 Alpha virt. eigenvalues --    0.17494   0.21341   0.22342   0.27261   0.28202
 Alpha virt. eigenvalues --    0.28303   0.29233   0.30897   0.31824   0.32439

 Mulliken charges:
               1
     1  C   -0.170431
     2  C   -0.218773
     3  C   -0.169994
     4  C    0.157684
     5  C   -0.170915
     6  C   -0.218734
     7  H    0.226206
     8  H    0.224982
     9  H    0.277416
    10  H    0.275113
    11  H    0.223619
    12  N    0.491331
    13  O   -0.462351
    14  O   -0.464263
    15  C   -0.172197
    16  C   -0.220836
    17  C   -0.174664
    18  C    0.153783
    19  C   -0.148991
    20  C   -0.216159
    21  H    0.221397
    22  H    0.217533
    23  H    0.270152
    24  H    0.281251
    25  H    0.225401
    26  N    0.487955
    27  O   -0.457461
    28  O   -0.468052
 Sum of Mulliken charges =  -0.00000

 Dipole moment (field-independent basis, Debye):
    X=             -4.3200    Y=             -1.3868    Z=              5.4458  Tot=              7.0882
 Quadrupole moment (field-independent basis, Debye-Ang):
   XX=            -85.2503   YY=           -105.2463   ZZ=           -104.0253
   XY=            -17.5029   XZ=              5.3717   YZ=              3.8052

 Normal termination of Gaussian 16 at Thu May  6 11:22:30 2021.
