 Gaussian 16, Revision A.03,
 Gaussian 16:  EM64L-G16RevA.03 25-Dec-2016

 -------------
 #p 6-31g* mp2
 -------------

 ------------------------------------------------------
 Input file generated by CHIRIPA (05-May-2021 14:55:24)
 ------------------------------------------------------
 Symbolic Z-matrix:
 Charge =  0 Multiplicity = 1

                         Standard orientation:
 ---------------------------------------------------------------------
 Center     Atomic      Atomic             Coordinates (Angstroms)
 Number     Number       Type             X           Y           Z
 ---------------------------------------------------------------------
      1          6           0       -4.676567    0.311862   -0.582304
      2          6           0       -4.179014    0.630866    0.685449
      3          6           0       -2.922848    0.170812    1.091586
      4          6           0       -2.187704   -0.609531    0.200565
      5          6           0       -2.656065   -0.944329   -1.069017
      6          6           0       -3.914848   -0.473333   -1.453954
      7          1           0       -5.653403    0.673493   -0.889567
      8          1           0       -4.768376    1.240477    1.364471
      9          1           0       -2.513514    0.402804    2.067313
     10          1           0       -2.045389   -1.553935   -1.723900
     11          1           0       -4.298724   -0.722645   -2.439108
     12          7           0       -0.856473   -1.102362    0.619303
     13          8           0       -0.228372   -1.788227   -0.184262
     14          8           0       -0.466361   -0.793445    1.743144
     15          6           0        3.791092    0.394657   -0.161027
     16          6           0        3.837615   -1.133512   -0.183880
     17          6           0        5.264839   -1.681779   -0.168810
     18          1           0        4.344501    0.784977   -1.026090
     19          1           0        4.314684    0.757135    0.734437
     20          1           0        3.312893   -1.493046   -1.078316
     21          1           0        3.283869   -1.520242    0.681234
     22          1           0        5.794991   -1.351330    0.730268
     23          1           0        5.824182   -1.323979   -1.039280
     24          1           0        5.274733   -2.776074   -0.185561
     25          6           0        2.371102    0.957808   -0.175747
     26          6           0        2.324580    2.485976   -0.152894
     27          6           0        0.897356    3.034245   -0.167963
     28          1           0        1.847511    0.595330   -1.071211
     29          1           0        1.817694    0.567488    0.689317
     30          1           0        2.878326    2.872707   -1.018007
     31          1           0        2.849301    2.845511    0.741544
     32          1           0        0.338013    2.676444    0.702506
     33          1           0        0.367203    2.703795   -1.067042
     34          1           0        0.887462    4.128539   -0.151213
 ---------------------------------------------------------------------

 SCF Done:  E(RHF) =  -669.536731988     A.U. after   15 cycles
 E2 =    -0.2092625401D+01 EUMP2 =    -0.67162935738872D+03

 The electronic state is 1-A.
 Alpha  occ. eigenvalues --  -20.61014 -20.60995 -15.85995 -11.31300 -11.27856
 Alpha  occ. eigenvalues --  -11.27853 -11.27587 -11.26857 -11.26847 -11.20762
 Alpha  occ. eigenvalues --  -11.20540 -11.20218 -11.20135 -11.20037 -11.19972
 Alpha  occ. eigenvalues --   -1.60035  -1.39597  -1.19459  -1.08869  -1.07277
 Alpha  occ. eigenvalues --   -1.04853  -1.02506  -0.95717  -0.94991  -0.86256
 Alpha  occ. eigenvalues --   -0.86023  -0.82557  -0.78549  -0.77614  -0.77039
 Alpha  occ. eigenvalues --   -0.72227  -0.71321  -0.70572  -0.65119  -0.64859
 Alpha  occ. eigenvalues --   -0.63909  -0.62203  -0.59911  -0.58375  -0.56581
 Alpha  occ. eigenvalues --   -0.55361  -0.54298  -0.53183  -0.52947  -0.51737
 Alpha  occ. eigenvalues --   -0.51422  -0.49081  -0.48996  -0.48897  -0.46871
 Alpha  occ. eigenvalues --   -0.45641  -0.45082  -0.44543  -0.44273  -0.42713
 Alpha  occ. eigenvalues --   -0.37429  -0.36450
 Alpha virt. eigenvalues --    0.04873   0.11188   0.16358   0.21313   0.23967
 Alpha virt. eigenvalues --    0.25147   0.27202   0.27797   0.28013   0.28649
 Alpha virt. eigenvalues --    0.29170   0.30961   0.31957   0.32464   0.32846

 Mulliken charges:
               1
     1  C   -0.170406
     2  C   -0.218310
     3  C   -0.170517
     4  C    0.160407
     5  C   -0.170996
     6  C   -0.218534
     7  H    0.226056
     8  H    0.223922
     9  H    0.275524
    10  H    0.275587
    11  H    0.223791
    12  N    0.489186
    13  O   -0.457778
    14  O   -0.461096
    15  C   -0.297930
    16  C   -0.299357
    17  C   -0.475682
    18  H    0.143181
    19  H    0.146034
    20  H    0.154458
    21  H    0.165427
    22  H    0.152004
    23  H    0.150139
    24  H    0.158564
    25  C   -0.309269
    26  C   -0.297600
    27  C   -0.476506
    28  H    0.147881
    29  H    0.171443
    30  H    0.147874
    31  H    0.150376
    32  H    0.154923
    33  H    0.150802
    34  H    0.156399
 Sum of Mulliken charges =  -0.00000

 Dipole moment (field-independent basis, Debye):
    X=             -4.9627    Y=              1.5120    Z=             -1.3720  Tot=              5.3663
 Quadrupole moment (field-independent basis, Debye-Ang):
   XX=            -76.7704   YY=            -97.3949   ZZ=            -90.5999
   XY=             -1.0957   XZ=              2.1429   YZ=              3.7140

 Normal termination of Gaussian 16 at Wed May  5 19:08:19 2021.
