 Gaussian 16, Revision A.03,
 Gaussian 16:  EM64L-G16RevA.03 25-Dec-2016

 -------------
 #p 6-31g* mp2
 -------------

 ------------------------------------------------------
 Input file generated by CHIRIPA (05-May-2021 14:53:11)
 ------------------------------------------------------
 Symbolic Z-matrix:
 Charge =  0 Multiplicity = 1

                         Standard orientation:
 ---------------------------------------------------------------------
 Center     Atomic      Atomic             Coordinates (Angstroms)
 Number     Number       Type             X           Y           Z
 ---------------------------------------------------------------------
      1          6           0        4.592456   -0.261864   -0.110289
      2          6           0        5.422639    0.980572    0.213956
      3          6           0        6.925996    0.740576    0.072141
      4          1           0        4.898322   -1.082721    0.552723
      5          1           0        4.817633   -0.587529   -1.135293
      6          1           0        5.194934    1.304609    1.237561
      7          1           0        5.114628    1.798622   -0.449775
      8          1           0        7.173189    0.439276   -0.950950
      9          1           0        7.253952   -0.057544    0.745973
     10          1           0        7.500459    1.641650    0.308614
     11          6           0        3.087583   -0.037707    0.026962
     12          6           0        2.257400   -1.280143   -0.297283
     13          6           0        0.754043   -1.040147   -0.155468
     14          1           0        2.862407    0.287958    1.051966
     15          1           0        2.781717    0.783150   -0.636050
     16          1           0        2.565412   -2.098193    0.366448
     17          1           0        2.485105   -1.604180   -1.320888
     18          1           0        0.426087   -0.242027   -0.829300
     19          1           0        0.506850   -0.738847    0.867623
     20          1           0        0.179580   -1.941221   -0.391941
     21          6           0       -3.316091    2.615970   -0.113286
     22          6           0       -3.242609    1.850326   -1.281580
     23          6           0       -3.067616    0.464978   -1.212752
     24          6           0       -2.969458   -0.124569    0.046648
     25          6           0       -3.038916    0.611089    1.228712
     26          6           0       -3.214190    1.995002    1.135929
     27          1           0       -3.452138    3.691585   -0.176056
     28          1           0       -3.321435    2.329882   -2.253102
     29          1           0       -3.007417   -0.151735   -2.101267
     30          1           0       -2.957056    0.104646    2.182772
     31          1           0       -3.270910    2.587098    2.044912
     32          7           0       -2.784053   -1.590416    0.132194
     33          8           0       -2.700347   -2.085833    1.253885
     34          8           0       -2.725950   -2.216174   -0.924068
 ---------------------------------------------------------------------

 SCF Done:  E(RHF) =  -669.535926045     A.U. after   15 cycles
 E2 =    -0.2092234648D+01 EUMP2 =    -0.67162816069302D+03

 The electronic state is 1-A.
 Alpha  occ. eigenvalues --  -20.60783 -20.60771 -15.85809 -11.31166 -11.27736
 Alpha  occ. eigenvalues --  -11.27732 -11.27484 -11.26762 -11.26751 -11.21499
 Alpha  occ. eigenvalues --  -11.21220 -11.21196 -11.21120 -11.20984 -11.20526
 Alpha  occ. eigenvalues --   -1.59842  -1.39398  -1.19340  -1.08739  -1.08200
 Alpha  occ. eigenvalues --   -1.04746  -1.03266  -0.95720  -0.95578  -0.86750
 Alpha  occ. eigenvalues --   -0.86144  -0.82415  -0.79359  -0.78019  -0.77462
 Alpha  occ. eigenvalues --   -0.72043  -0.71152  -0.70455  -0.65000  -0.64834
 Alpha  occ. eigenvalues --   -0.64754  -0.62097  -0.60667  -0.59069  -0.57318
 Alpha  occ. eigenvalues --   -0.55253  -0.55017  -0.53113  -0.52842  -0.52375
 Alpha  occ. eigenvalues --   -0.52102  -0.49681  -0.48802  -0.48799  -0.47653
 Alpha  occ. eigenvalues --   -0.46395  -0.45557  -0.45492  -0.44789  -0.43492
 Alpha  occ. eigenvalues --   -0.37296  -0.36344
 Alpha virt. eigenvalues --    0.05041   0.11269   0.16537   0.21413   0.23086
 Alpha virt. eigenvalues --    0.24605   0.26841   0.27333   0.27640   0.27949
 Alpha virt. eigenvalues --    0.28500   0.30942   0.31504   0.32003   0.32387

 Mulliken charges:
               1
     1  C   -0.298147
     2  C   -0.299195
     3  C   -0.475547
     4  H    0.150458
     5  H    0.149432
     6  H    0.151135
     7  H    0.150423
     8  H    0.155157
     9  H    0.155628
    10  H    0.159238
    11  C   -0.297539
    12  C   -0.299634
    13  C   -0.488212
    14  H    0.148115
    15  H    0.146807
    16  H    0.154273
    17  H    0.151875
    18  H    0.149224
    19  H    0.153578
    20  H    0.178868
    21  C   -0.170709
    22  C   -0.218929
    23  C   -0.171514
    24  C    0.162152
    25  C   -0.171530
    26  C   -0.218483
    27  H    0.225456
    28  H    0.223273
    29  H    0.275666
    30  H    0.275423
    31  H    0.223304
    32  N    0.490573
    33  O   -0.459873
    34  O   -0.460745
 Sum of Mulliken charges =  -0.00000

 Dipole moment (field-independent basis, Debye):
    X=             -0.7444    Y=              5.0706    Z=             -0.2932  Tot=              5.1333
 Quadrupole moment (field-independent basis, Debye-Ang):
   XX=            -93.2766   YY=            -96.4227   ZZ=            -88.8429
   XY=            -15.6122   XZ=              1.0583   YZ=              0.3402

 Normal termination of Gaussian 16 at Wed May  5 23:18:41 2021.
