 Gaussian 16, Revision A.03,
 Gaussian 16:  EM64L-G16RevA.03 25-Dec-2016

 -------------
 #p 6-31g* mp2
 -------------

 ------------------------------------------------------
 Input file generated by CHIRIPA (05-May-2021 14:53:11)
 ------------------------------------------------------
 Symbolic Z-matrix:
 Charge =  0 Multiplicity = 1

                         Standard orientation:
 ---------------------------------------------------------------------
 Center     Atomic      Atomic             Coordinates (Angstroms)
 Number     Number       Type             X           Y           Z
 ---------------------------------------------------------------------
      1          6           0        2.813405   -0.806750   -0.761353
      2          6           0        1.380137   -0.532585   -1.218037
      3          6           0        0.772139   -1.702865   -1.991713
      4          1           0        3.434850   -1.030078   -1.639348
      5          1           0        2.824549   -1.708158   -0.133074
      6          1           0        1.371490    0.368828   -1.844133
      7          1           0        0.762073   -0.309695   -0.338870
      8          1           0        0.751540   -2.605166   -1.372011
      9          1           0        1.364419   -1.922787   -2.885827
     10          1           0       -0.252643   -1.485475   -2.308611
     11          6           0        3.434852    0.353946    0.013448
     12          6           0        4.868120    0.079780    0.470132
     13          6           0        5.476118    1.250061    1.243809
     14          1           0        3.423708    1.255354   -0.614831
     15          1           0        2.813407    0.577273    0.891443
     16          1           0        5.486184   -0.143109   -0.409034
     17          1           0        4.876767   -0.821633    1.096229
     18          1           0        4.883838    1.469982    2.137923
     19          1           0        5.496717    2.152361    0.624107
     20          1           0        6.500900    1.032670    1.560707
     21          6           0       -2.266286   -1.982023    1.586230
     22          6           0       -2.292428   -0.759235    2.264924
     23          6           0       -2.388861    0.443161    1.558177
     24          6           0       -2.457590    0.385591    0.167043
     25          6           0       -2.433812   -0.816853   -0.537833
     26          6           0       -2.336937   -2.006887    0.189480
     27          1           0       -2.191202   -2.911271    2.143237
     28          1           0       -2.237713   -0.736893    3.349615
     29          1           0       -2.411101    1.403789    2.058295
     30          1           0       -2.489974   -0.807161   -1.619577
     31          1           0       -2.316844   -2.955054   -0.340255
     32          7           0       -2.559913    1.651970   -0.592045
     33          8           0       -2.619094    1.574265   -1.817237
     34          8           0       -2.578996    2.698284    0.052547
 ---------------------------------------------------------------------

 SCF Done:  E(RHF) =  -669.534500678     A.U. after   15 cycles
 E2 =    -0.2093556002D+01 EUMP2 =    -0.67162805668047D+03

 The electronic state is 1-A.
 Alpha  occ. eigenvalues --  -20.60791 -20.60786 -15.85845 -11.31220 -11.27794
 Alpha  occ. eigenvalues --  -11.27785 -11.27538 -11.26810 -11.26787 -11.21628
 Alpha  occ. eigenvalues --  -11.21600 -11.21445 -11.21362 -11.21313 -11.21073
 Alpha  occ. eigenvalues --   -1.59865  -1.39418  -1.19407  -1.08791  -1.08466
 Alpha  occ. eigenvalues --   -1.04819  -1.03586  -0.96075  -0.95620  -0.87093
 Alpha  occ. eigenvalues --   -0.86204  -0.82456  -0.79653  -0.78269  -0.77503
 Alpha  occ. eigenvalues --   -0.72064  -0.71188  -0.70525  -0.65105  -0.65050
 Alpha  occ. eigenvalues --   -0.64815  -0.62209  -0.60997  -0.59442  -0.57691
 Alpha  occ. eigenvalues --   -0.55388  -0.55302  -0.53191  -0.52950  -0.52652
 Alpha  occ. eigenvalues --   -0.52408  -0.50001  -0.48823  -0.48818  -0.47968
 Alpha  occ. eigenvalues --   -0.46663  -0.45813  -0.45727  -0.44819  -0.43856
 Alpha  occ. eigenvalues --   -0.37374  -0.36344
 Alpha virt. eigenvalues --    0.05022   0.11176   0.16480   0.20845   0.22891
 Alpha virt. eigenvalues --    0.24166   0.26310   0.26552   0.27210   0.27919
 Alpha virt. eigenvalues --    0.28717   0.30150   0.31246   0.31531   0.32003

 Mulliken charges:
               1
     1  C   -0.298105
     2  C   -0.303522
     3  C   -0.473370
     4  H    0.150075
     5  H    0.146416
     6  H    0.159049
     7  H    0.154072
     8  H    0.149021
     9  H    0.156793
    10  H    0.153935
    11  C   -0.298501
    12  C   -0.299598
    13  C   -0.475663
    14  H    0.152818
    15  H    0.148856
    16  H    0.152294
    17  H    0.150063
    18  H    0.154552
    19  H    0.156887
    20  H    0.159859
    21  C   -0.171995
    22  C   -0.218588
    23  C   -0.172375
    24  C    0.159247
    25  C   -0.169653
    26  C   -0.215312
    27  H    0.225707
    28  H    0.223492
    29  H    0.275779
    30  H    0.276063
    31  H    0.224472
    32  N    0.488271
    33  O   -0.460687
    34  O   -0.460353
 Sum of Mulliken charges =  -0.00000

 Dipole moment (field-independent basis, Debye):
    X=              0.3508    Y=             -4.3908    Z=              2.6692  Tot=              5.1504
 Quadrupole moment (field-independent basis, Debye-Ang):
   XX=            -97.5989   YY=            -97.9071   ZZ=            -89.9453
   XY=             11.1956   XZ=             -7.2456   YZ=              1.8610

 Normal termination of Gaussian 16 at Wed May  5 20:04:18 2021.
