 Gaussian 16, Revision A.03,
 Gaussian 16:  EM64L-G16RevA.03 25-Dec-2016

 -------------
 #p 6-31g* mp2
 -------------

 ------------------------------------------------------
 Input file generated by CHIRIPA (05-May-2021 14:57:26)
 ------------------------------------------------------
 Symbolic Z-matrix:
 Charge =  0 Multiplicity = 1

                         Standard orientation:
 ---------------------------------------------------------------------
 Center     Atomic      Atomic             Coordinates (Angstroms)
 Number     Number       Type             X           Y           Z
 ---------------------------------------------------------------------
      1          6           0       -5.006139    1.853052   -0.002689
      2          6           0       -4.162438    1.726494    1.105767
      3          6           0       -3.251410    0.669195    1.187581
      4          6           0       -3.210619   -0.247555    0.138202
      5          6           0       -4.038063   -0.148543   -0.979306
      6          6           0       -4.941373    0.916780   -1.039859
      7          1           0       -5.710850    2.677503   -0.057986
      8          1           0       -4.210542    2.452127    1.912728
      9          1           0       -2.586637    0.547323    2.034128
     10          1           0       -3.966978   -0.887563   -1.768112
     11          1           0       -5.595385    1.012562   -1.901914
     12          7           0       -2.250240   -1.371117    0.213561
     13          8           0       -2.233834   -2.165543   -0.724126
     14          8           0       -1.532085   -1.436065    1.208886
     15          6           0        5.447352    1.480320    0.062378
     16          6           0        4.265755    2.033657   -0.441771
     17          6           0        3.108121    1.257377   -0.550506
     18          6           0        3.167965   -0.074703   -0.143972
     19          6           0        4.330019   -0.654843    0.362344
     20          6           0        5.475663    0.140199    0.462122
     21          1           0        6.341973    2.090640    0.143367
     22          1           0        4.240842    3.074124   -0.752981
     23          1           0        2.179956    1.660308   -0.937255
     24          1           0        4.324022   -1.695068    0.664524
     25          1           0        6.391902   -0.292196    0.854023
     26          7           0        1.948776   -0.906447   -0.254344
     27          8           0        2.027527   -2.077448    0.110609
     28          8           0        0.937510   -0.371617   -0.703716
 ---------------------------------------------------------------------

 SCF Done:  E(RHF) =  -868.335507771     A.U. after   16 cycles
 E2 =    -0.2601148999D+01 EUMP2 =    -0.87093665676997D+03

 The electronic state is 1-A.
 Alpha  occ. eigenvalues --  -20.59834 -20.59788 -20.59169 -20.59164 -15.84893
 Alpha  occ. eigenvalues --  -15.84258 -11.30616 -11.30146 -11.27247 -11.27203
 Alpha  occ. eigenvalues --  -11.27037 -11.26792 -11.26772 -11.26647 -11.26338
 Alpha  occ. eigenvalues --  -11.26306 -11.25945 -11.25925  -1.58853  -1.58191
 Alpha  occ. eigenvalues --   -1.38416  -1.37761  -1.18818  -1.18370  -1.08143
 Alpha  occ. eigenvalues --   -1.07665  -1.04278  -1.03864  -0.94921  -0.94416
 Alpha  occ. eigenvalues --   -0.85660  -0.85237  -0.81765  -0.81272  -0.76744
 Alpha  occ. eigenvalues --   -0.76212  -0.71167  -0.70529  -0.70199  -0.69929
 Alpha  occ. eigenvalues --   -0.69495  -0.69420  -0.64468  -0.64285  -0.64023
 Alpha  occ. eigenvalues --   -0.63886  -0.61625  -0.61213  -0.54768  -0.54363
 Alpha  occ. eigenvalues --   -0.52585  -0.52379  -0.52154  -0.51974  -0.47937
 Alpha  occ. eigenvalues --   -0.47805  -0.47202  -0.47148  -0.43819  -0.42983
 Alpha  occ. eigenvalues --   -0.36817  -0.36375  -0.35899  -0.35494
 Alpha virt. eigenvalues --    0.05805   0.06373   0.11750   0.12157   0.17234
 Alpha virt. eigenvalues --    0.17764   0.21831   0.22177   0.27712   0.28043
 Alpha virt. eigenvalues --    0.28753   0.29119   0.31349   0.31675   0.33002

 Mulliken charges:
               1
     1  C   -0.173044
     2  C   -0.219117
     3  C   -0.171091
     4  C    0.163786
     5  C   -0.171001
     6  C   -0.218843
     7  H    0.221074
     8  H    0.218863
     9  H    0.273526
    10  H    0.275155
    11  H    0.219824
    12  N    0.495662
    13  O   -0.458105
    14  O   -0.457310
    15  C   -0.172085
    16  C   -0.218544
    17  C   -0.171823
    18  C    0.160048
    19  C   -0.171084
    20  C   -0.218508
    21  H    0.223208
    22  H    0.220476
    23  H    0.272956
    24  H    0.276659
    25  H    0.221984
    26  N    0.490395
    27  O   -0.449633
    28  O   -0.463431
 Sum of Mulliken charges =  -0.00000

 Dipole moment (field-independent basis, Debye):
    X=              1.0811    Y=              6.5144    Z=              0.1277  Tot=              6.6047
 Quadrupole moment (field-independent basis, Debye-Ang):
   XX=            -57.5679   YY=           -104.6322   ZZ=           -101.5188
   XY=             -4.5043   XZ=              4.0235   YZ=              0.1594

 Normal termination of Gaussian 16 at Thu May  6 08:21:40 2021.
