 Gaussian 16, Revision A.03,
 Gaussian 16:  EM64L-G16RevA.03 25-Dec-2016

 -------------
 #p 6-31g* mp2
 -------------

 ------------------------------------------------------
 Input file generated by CHIRIPA (05-May-2021 14:55:23)
 ------------------------------------------------------
 Symbolic Z-matrix:
 Charge =  0 Multiplicity = 1

                         Standard orientation:
 ---------------------------------------------------------------------
 Center     Atomic      Atomic             Coordinates (Angstroms)
 Number     Number       Type             X           Y           Z
 ---------------------------------------------------------------------
      1          6           0        1.411384   -1.773755   -1.896503
      2          6           0        0.548706   -0.673352   -1.858818
      3          6           0        0.859507    0.446194   -1.081278
      4          6           0        2.046610    0.431473   -0.350622
      5          6           0        2.926546   -0.649600   -0.367486
      6          6           0        2.595464   -1.758394   -1.152029
      7          1           0        1.162069   -2.639269   -2.503234
      8          1           0       -0.371548   -0.682504   -2.435961
      9          1           0        0.209675    1.311577   -1.033854
     10          1           0        3.836713   -0.611214    0.218639
     11          1           0        3.267321   -2.611567   -1.179383
     12          7           0        2.386377    1.610995    0.476232
     13          8           0        3.438285    1.573321    1.110823
     14          8           0        1.594344    2.550844    0.474071
     15          6           0       -2.000858   -0.305411    1.156222
     16          6           0       -1.460242   -1.701943    1.465118
     17          6           0       -0.366352   -1.689456    2.533314
     18          1           0       -1.172557    0.337015    0.827359
     19          1           0       -2.394408    0.140467    2.080185
     20          1           0       -1.069088   -2.145601    0.540575
     21          1           0       -2.289959   -2.341172    1.793101
     22          1           0       -0.747759   -1.271179    3.470422
     23          1           0        0.480050   -1.074495    2.210779
     24          1           0        0.005832   -2.698016    2.738612
     25          6           0       -3.095110   -0.301498    0.090235
     26          6           0       -3.635726    1.095035   -0.218661
     27          6           0       -4.729618    1.082548   -1.286856
     28          1           0       -2.701561   -0.747376   -0.833727
     29          1           0       -3.923411   -0.943923    0.419098
     30          1           0       -2.806010    1.734264   -0.546644
     31          1           0       -4.026882    1.538692    0.705883
     32          1           0       -5.576019    0.467587   -0.964322
     33          1           0       -4.348209    0.664270   -2.223965
     34          1           0       -5.101801    2.091108   -1.492156
 ---------------------------------------------------------------------

 SCF Done:  E(RHF) =  -669.534538013     A.U. after   15 cycles
 E2 =    -0.2095659844D+01 EUMP2 =    -0.67163019785697D+03

 The electronic state is 1-A.
 Alpha  occ. eigenvalues --  -20.60879 -20.60871 -15.85930 -11.31325 -11.27901
 Alpha  occ. eigenvalues --  -11.27895 -11.27646 -11.26912 -11.26894 -11.21952
 Alpha  occ. eigenvalues --  -11.21763 -11.21669 -11.21440 -11.21435 -11.21053
 Alpha  occ. eigenvalues --   -1.59951  -1.39503  -1.19516  -1.08895  -1.08673
 Alpha  occ. eigenvalues --   -1.04918  -1.03730  -0.96186  -0.95723  -0.87197
 Alpha  occ. eigenvalues --   -0.86314  -0.82550  -0.79805  -0.78477  -0.77597
 Alpha  occ. eigenvalues --   -0.72144  -0.71282  -0.70620  -0.65404  -0.65136
 Alpha  occ. eigenvalues --   -0.64912  -0.62238  -0.61168  -0.59553  -0.57790
 Alpha  occ. eigenvalues --   -0.55527  -0.55364  -0.53205  -0.53024  -0.52859
 Alpha  occ. eigenvalues --   -0.52595  -0.50138  -0.48907  -0.48899  -0.48105
 Alpha  occ. eigenvalues --   -0.46870  -0.45991  -0.45965  -0.44878  -0.43992
 Alpha  occ. eigenvalues --   -0.37438  -0.36432
 Alpha virt. eigenvalues --    0.04912   0.11001   0.16325   0.19408   0.23116
 Alpha virt. eigenvalues --    0.23778   0.25124   0.25620   0.27352   0.28433
 Alpha virt. eigenvalues --    0.29823   0.30402   0.31094   0.31612   0.31882

 Mulliken charges:
               1
     1  C   -0.171287
     2  C   -0.217331
     3  C   -0.174644
     4  C    0.160607
     5  C   -0.171204
     6  C   -0.217438
     7  H    0.226658
     8  H    0.225468
     9  H    0.278313
    10  H    0.276493
    11  H    0.224312
    12  N    0.488066
    13  O   -0.459531
    14  O   -0.460613
    15  C   -0.301741
    16  C   -0.300564
    17  C   -0.475803
    18  H    0.153617
    19  H    0.153416
    20  H    0.149439
    21  H    0.150417
    22  H    0.157516
    23  H    0.156259
    24  H    0.157709
    25  C   -0.299689
    26  C   -0.300636
    27  C   -0.475020
    28  H    0.139066
    29  H    0.151867
    30  H    0.149222
    31  H    0.157388
    32  H    0.156724
    33  H    0.149891
    34  H    0.163053
 Sum of Mulliken charges =  -0.00000

 Dipole moment (field-independent basis, Debye):
    X=             -1.1238    Y=             -4.0992    Z=             -2.8727  Tot=              5.1302
 Quadrupole moment (field-independent basis, Debye-Ang):
   XX=            -96.1316   YY=            -97.9644   ZZ=            -92.9597
   XY=            -11.3879   XZ=             -5.5773   YZ=             -0.2854

 Normal termination of Gaussian 16 at Wed May  5 22:20:35 2021.
