 Gaussian 16, Revision A.03,
 Gaussian 16:  EM64L-G16RevA.03 25-Dec-2016

 -------------
 #p 6-31g* mp2
 -------------

 ------------------------------------------------------
 Input file generated by CHIRIPA (05-May-2021 14:51:10)
 ------------------------------------------------------
 Symbolic Z-matrix:
 Charge =  0 Multiplicity = 1

                         Standard orientation:
 ---------------------------------------------------------------------
 Center     Atomic      Atomic             Coordinates (Angstroms)
 Number     Number       Type             X           Y           Z
 ---------------------------------------------------------------------
      1          6           0        3.028376   -0.745832   -0.591041
      2          6           0        1.548348   -1.100838   -0.737574
      3          6           0        1.329859   -2.470448   -1.381176
      4          1           0        3.503823   -0.767304   -1.581210
      5          1           0        3.525734   -1.518603    0.011333
      6          1           0        1.053642   -0.326904   -1.338331
      7          1           0        1.076326   -1.078331    0.253034
      8          1           0        1.797561   -3.257334   -0.780621
      9          1           0        1.774748   -2.501637   -2.381028
     10          1           0        0.264847   -2.704036   -1.476293
     11          6           0        3.262983    0.620466    0.050767
     12          6           0        4.743012    0.975472    0.197300
     13          6           0        4.961500    2.345083    0.840903
     14          1           0        2.765625    1.393238   -0.551607
     15          1           0        2.787536    0.641938    1.040936
     16          1           0        5.215033    0.952966   -0.793308
     17          1           0        5.237717    0.201539    0.798057
     18          1           0        4.516612    2.376272    1.840754
     19          1           0        4.493799    3.131968    0.240347
     20          1           0        6.026512    2.578670    0.936019
     21          6           0       -3.234128    0.818872    0.331673
     22          6           0       -4.206767    1.401101   -0.694468
     23          6           0       -4.373195    2.914920   -0.558654
     24          1           0       -3.589421    1.060884    1.342683
     25          1           0       -2.256593    1.307765    0.218522
     26          1           0       -5.181794    0.910273   -0.580333
     27          1           0       -3.849218    1.157509   -1.703150
     28          1           0       -3.412246    3.421786   -0.693804
     29          1           0       -4.752393    3.173145    0.435392
     30          1           0       -5.072716    3.310177   -1.301825
     31          6           0       -3.057232   -0.693507    0.208600
     32          6           0       -2.084591   -1.275735    1.234742
     33          6           0       -1.918165   -2.789555    1.098929
     34          1           0       -4.034767   -1.182400    0.321752
     35          1           0       -2.701938   -0.935519   -0.802410
     36          1           0       -2.442140   -1.032144    2.243424
     37          1           0       -1.109565   -0.784908    1.120607
     38          1           0       -1.538966   -3.047780    0.104881
     39          1           0       -2.879113   -3.296421    1.234077
     40          1           0       -1.218643   -3.184812    1.842099
 ---------------------------------------------------------------------

 SCF Done:  E(RHF) =  -470.732656530     A.U. after   11 cycles
 E2 =    -0.1583733791D+01 EUMP2 =    -0.47231639032066D+03

 The electronic state is 1-A.
 Alpha  occ. eigenvalues --  -11.21643 -11.21629 -11.21587 -11.21538 -11.21444
 Alpha  occ. eigenvalues --  -11.21384 -11.21381 -11.21322 -11.21107 -11.21092
 Alpha  occ. eigenvalues --  -11.21061 -11.21029  -1.08480  -1.08397  -1.03605
 Alpha  occ. eigenvalues --   -1.03473  -0.96048  -0.95928  -0.87066  -0.86943
 Alpha  occ. eigenvalues --   -0.79715  -0.79504  -0.78321  -0.78183  -0.65178
 Alpha  occ. eigenvalues --   -0.64987  -0.61180  -0.60797  -0.59343  -0.59324
 Alpha  occ. eigenvalues --   -0.57643  -0.57558  -0.55383  -0.55138  -0.52751
 Alpha  occ. eigenvalues --   -0.52647  -0.52476  -0.52316  -0.50033  -0.49836
 Alpha  occ. eigenvalues --   -0.48041  -0.47872  -0.46861  -0.46443  -0.45946
 Alpha  occ. eigenvalues --   -0.45768  -0.45742  -0.45399  -0.43798  -0.43758
 Alpha virt. eigenvalues --    0.20416   0.23123   0.23550   0.25278   0.25695
 Alpha virt. eigenvalues --    0.26256   0.26657   0.27757   0.28545   0.29141
 Alpha virt. eigenvalues --    0.29927   0.30735   0.31546   0.31912   0.32436

 Mulliken charges:
               1
     1  C   -0.297636
     2  C   -0.305914
     3  C   -0.478088
     4  H    0.149783
     5  H    0.149738
     6  H    0.150971
     7  H    0.158388
     8  H    0.155778
     9  H    0.155181
    10  H    0.162708
    11  C   -0.298392
    12  C   -0.299665
    13  C   -0.475756
    14  H    0.149310
    15  H    0.149512
    16  H    0.152036
    17  H    0.152055
    18  H    0.155286
    19  H    0.155172
    20  H    0.160372
    21  C   -0.298537
    22  C   -0.299642
    23  C   -0.475688
    24  H    0.149567
    25  H    0.150013
    26  H    0.151881
    27  H    0.151815
    28  H    0.155142
    29  H    0.155175
    30  H    0.160169
    31  C   -0.297965
    32  C   -0.305774
    33  C   -0.479183
    34  H    0.149415
    35  H    0.149196
    36  H    0.151595
    37  H    0.158046
    38  H    0.159389
    39  H    0.155012
    40  H    0.159535
 Sum of Mulliken charges =  -0.00000

 Dipole moment (field-independent basis, Debye):
    X=              0.0307    Y=             -0.0054    Z=              0.0004  Tot=              0.0312
 Quadrupole moment (field-independent basis, Debye-Ang):
   XX=            -84.3874   YY=            -86.7022   ZZ=            -83.7311
   XY=              0.0074   XZ=             -0.6118   YZ=             -0.8881

 Normal termination of Gaussian 16 at Wed May  5 16:40:08 2021.
