 Gaussian 16, Revision A.03,
 Gaussian 16:  EM64L-G16RevA.03 25-Dec-2016

 -------------
 #p 6-31g* mp2
 -------------

 ------------------------------------------------------
 Input file generated by CHIRIPA (05-May-2021 14:57:22)
 ------------------------------------------------------
 Symbolic Z-matrix:
 Charge =  0 Multiplicity = 1

                         Standard orientation:
 ---------------------------------------------------------------------
 Center     Atomic      Atomic             Coordinates (Angstroms)
 Number     Number       Type             X           Y           Z
 ---------------------------------------------------------------------
      1          6           0        1.665501    2.377490   -0.384695
      2          6           0        1.154521    1.160840   -0.848574
      3          6           0        1.926023   -0.003376   -0.785862
      4          6           0        3.210186    0.085699   -0.250810
      5          6           0        3.747407    1.282984    0.219501
      6          6           0        2.958034    2.434578    0.146924
      7          1           0        1.059238    3.276979   -0.437243
      8          1           0        0.151058    1.113527   -1.261935
      9          1           0        1.555252   -0.958408   -1.137801
     10          1           0        4.751237    1.298770    0.626310
     11          1           0        3.357468    3.378067    0.507931
     12          7           0        4.036401   -1.140124   -0.179198
     13          8           0        5.164772   -1.035158    0.296615
     14          8           0        3.539972   -2.182680   -0.600237
     15          6           0       -0.872762   -1.024665    1.251211
     16          6           0       -1.329378    0.281636    1.455171
     17          6           0       -2.547534    0.700880    0.912143
     18          6           0       -3.286825   -0.216485    0.167039
     19          6           0       -2.858782   -1.524650   -0.053807
     20          6           0       -1.637573   -1.922057    0.498700
     21          1           0        0.074717   -1.341863    1.676731
     22          1           0       -0.737516    0.980715    2.039153
     23          1           0       -2.924762    1.706294    1.054481
     24          1           0       -3.470910   -2.198847   -0.640472
     25          1           0       -1.285447   -2.937164    0.338671
     26          7           0       -4.578048    0.215792   -0.412859
     27          8           0       -5.210681   -0.611555   -1.065477
     28          8           0       -4.933026    1.373770   -0.203784
 ---------------------------------------------------------------------

 SCF Done:  E(RHF) =  -868.337326495     A.U. after   16 cycles
 E2 =    -0.2602812564D+01 EUMP2 =    -0.87094013905857D+03

 The electronic state is 1-A.
 Alpha  occ. eigenvalues --  -20.61491 -20.61466 -20.61298 -20.61287 -15.86529
 Alpha  occ. eigenvalues --  -15.86351 -11.31886 -11.31782 -11.28370 -11.28361
 Alpha  occ. eigenvalues --  -11.28340 -11.28302 -11.28078 -11.27963 -11.27426
 Alpha  occ. eigenvalues --  -11.27329 -11.27307 -11.27275  -1.60559  -1.60373
 Alpha  occ. eigenvalues --   -1.40112  -1.39923  -1.20047  -1.19931  -1.09431
 Alpha  occ. eigenvalues --   -1.09298  -1.05425  -1.05311  -0.96270  -0.96120
 Alpha  occ. eigenvalues --   -0.86828  -0.86672  -0.83078  -0.82947  -0.78140
 Alpha  occ. eigenvalues --   -0.78009  -0.72738  -0.72558  -0.71895  -0.71706
 Alpha  occ. eigenvalues --   -0.71137  -0.70937  -0.65655  -0.65558  -0.65364
 Alpha  occ. eigenvalues --   -0.65288  -0.62739  -0.62662  -0.55892  -0.55752
 Alpha  occ. eigenvalues --   -0.54176  -0.53542  -0.53371  -0.53213  -0.49505
 Alpha  occ. eigenvalues --   -0.49491  -0.49325  -0.49314  -0.45518  -0.45315
 Alpha  occ. eigenvalues --   -0.38412  -0.38047  -0.37120  -0.36263
 Alpha virt. eigenvalues --    0.04063   0.04758   0.10000   0.11207   0.15716
 Alpha virt. eigenvalues --    0.16220   0.20600   0.21251   0.26466   0.26887
 Alpha virt. eigenvalues --    0.27598   0.28123   0.30419   0.30584   0.31673

 Mulliken charges:
               1
     1  C   -0.178403
     2  C   -0.213651
     3  C   -0.177488
     4  C    0.156513
     5  C   -0.173116
     6  C   -0.218412
     7  H    0.227685
     8  H    0.231265
     9  H    0.274194
    10  H    0.276739
    11  H    0.225512
    12  N    0.487700
    13  O   -0.457669
    14  O   -0.462416
    15  C   -0.172756
    16  C   -0.217246
    17  C   -0.179509
    18  C    0.157437
    19  C   -0.171942
    20  C   -0.224505
    21  H    0.232910
    22  H    0.225328
    23  H    0.274384
    24  H    0.278024
    25  H    0.230332
    26  N    0.487991
    27  O   -0.458047
    28  O   -0.460856
 Sum of Mulliken charges =  -0.00000

 Dipole moment (field-independent basis, Debye):
    X=              1.6380    Y=              2.7492    Z=              1.8039  Tot=              3.6736
 Quadrupole moment (field-independent basis, Debye-Ang):
   XX=           -151.6207   YY=            -98.1789   ZZ=           -103.6095
   XY=             20.9715   XZ=             -3.9850   YZ=              1.3662

 Normal termination of Gaussian 16 at Thu May  6 22:37:53 2021.
