 Gaussian 16, Revision A.03,
 Gaussian 16:  EM64L-G16RevA.03 25-Dec-2016

 -------------
 #p 6-31g* mp2
 -------------

 ------------------------------------------------------
 Input file generated by CHIRIPA (05-May-2021 14:55:19)
 ------------------------------------------------------
 Symbolic Z-matrix:
 Charge =  0 Multiplicity = 1

                         Standard orientation:
 ---------------------------------------------------------------------
 Center     Atomic      Atomic             Coordinates (Angstroms)
 Number     Number       Type             X           Y           Z
 ---------------------------------------------------------------------
      1          6           0       -3.383286    0.962660    0.506435
      2          6           0       -3.339847    0.328716   -0.739659
      3          6           0       -2.413482   -0.688814   -0.986699
      4          6           0       -1.541486   -1.048839    0.039603
      5          6           0       -1.560104   -0.436192    1.291644
      6          6           0       -2.494842    0.578860    1.516328
      7          1           0       -4.106160    1.752140    0.689658
      8          1           0       -4.028605    0.624713   -1.525816
      9          1           0       -2.358093   -1.196328   -1.942094
     10          1           0       -0.860668   -0.753051    2.055717
     11          1           0       -2.526296    1.069435    2.485035
     12          7           0       -0.556353   -2.124741   -0.210094
     13          8           0        0.201030   -2.423523    0.710633
     14          8           0       -0.560242   -2.648879   -1.321805
     15          6           0        2.638429    0.684325    0.330423
     16          6           0        3.168465   -0.554483   -0.392349
     17          6           0        4.082255   -1.407076    0.488485
     18          1           0        3.486988    1.290586    0.675880
     19          1           0        2.092253    0.369545    1.230422
     20          1           0        3.712299   -0.237529   -1.291460
     21          1           0        2.318544   -1.157767   -0.736294
     22          1           0        3.546899   -1.751500    1.379197
     23          1           0        4.948573   -0.826033    0.820876
     24          1           0        4.449790   -2.287389   -0.048010
     25          6           0        1.723421    1.546760   -0.537158
     26          6           0        1.193385    2.785569    0.185615
     27          6           0        0.279596    3.638161   -0.695220
     28          1           0        2.269599    1.861542   -1.437157
     29          1           0        0.874862    0.940500   -0.882615
     30          1           0        2.043307    3.388852    0.529559
     31          1           0        0.649552    2.468615    1.084725
     32          1           0       -0.586722    3.057118   -1.027611
     33          1           0        0.814952    3.982585   -1.585931
     34          1           0       -0.087939    4.518475   -0.158725
 ---------------------------------------------------------------------

 SCF Done:  E(RHF) =  -669.536431281     A.U. after   15 cycles
 E2 =    -0.2094735668D+01 EUMP2 =    -0.67163116694941D+03

 The electronic state is 1-A.
 Alpha  occ. eigenvalues --  -20.61052 -20.61047 -15.86065 -11.31395 -11.27962
 Alpha  occ. eigenvalues --  -11.27955 -11.27690 -11.26962 -11.26952 -11.21533
 Alpha  occ. eigenvalues --  -11.21127 -11.21083 -11.20807 -11.20574 -11.19996
 Alpha  occ. eigenvalues --   -1.60110  -1.39662  -1.19567  -1.08966  -1.07978
 Alpha  occ. eigenvalues --   -1.04955  -1.02994  -0.95806  -0.95481  -0.86507
 Alpha  occ. eigenvalues --   -0.86353  -0.82637  -0.79140  -0.77753  -0.77666
 Alpha  occ. eigenvalues --   -0.72288  -0.71462  -0.70659  -0.65220  -0.64949
 Alpha  occ. eigenvalues --   -0.64593  -0.62298  -0.60378  -0.58922  -0.57066
 Alpha  occ. eigenvalues --   -0.55450  -0.54777  -0.53269  -0.53041  -0.52184
 Alpha  occ. eigenvalues --   -0.51911  -0.49446  -0.49063  -0.49048  -0.47426
 Alpha  occ. eigenvalues --   -0.46198  -0.45332  -0.45143  -0.44928  -0.43279
 Alpha  occ. eigenvalues --   -0.37507  -0.36536
 Alpha virt. eigenvalues --    0.04775   0.11057   0.16241   0.20964   0.22859
 Alpha virt. eigenvalues --    0.24721   0.26166   0.26968   0.27783   0.28326
 Alpha virt. eigenvalues --    0.28826   0.30673   0.31748   0.31920   0.32228

 Mulliken charges:
               1
     1  C   -0.169977
     2  C   -0.218719
     3  C   -0.171951
     4  C    0.159673
     5  C   -0.170877
     6  C   -0.217922
     7  H    0.227079
     8  H    0.224754
     9  H    0.276632
    10  H    0.276345
    11  H    0.224774
    12  N    0.487469
    13  O   -0.459118
    14  O   -0.458547
    15  C   -0.299436
    16  C   -0.301590
    17  C   -0.474750
    18  H    0.146662
    19  H    0.147800
    20  H    0.146461
    21  H    0.166869
    22  H    0.162293
    23  H    0.147279
    24  H    0.161507
    25  C   -0.298959
    26  C   -0.297156
    27  C   -0.476531
    28  H    0.149829
    29  H    0.146255
    30  H    0.151840
    31  H    0.145925
    32  H    0.154107
    33  H    0.155912
    34  H    0.156067
 Sum of Mulliken charges =  -0.00000

 Dipole moment (field-independent basis, Debye):
    X=             -3.6509    Y=              3.5460    Z=              0.8774  Tot=              5.1646
 Quadrupole moment (field-independent basis, Debye-Ang):
   XX=            -83.9636   YY=           -103.8808   ZZ=            -90.5861
   XY=             -1.5476   XZ=             -0.2970   YZ=              0.0058

 Normal termination of Gaussian 16 at Wed May  5 20:32:19 2021.
