 Gaussian 16, Revision A.03,
 Gaussian 16:  EM64L-G16RevA.03 25-Dec-2016

 -------------
 #p 6-31g* mp2
 -------------

 ------------------------------------------------------
 Input file generated by CHIRIPA (05-May-2021 14:57:25)
 ------------------------------------------------------
 Symbolic Z-matrix:
 Charge =  0 Multiplicity = 1

                         Standard orientation:
 ---------------------------------------------------------------------
 Center     Atomic      Atomic             Coordinates (Angstroms)
 Number     Number       Type             X           Y           Z
 ---------------------------------------------------------------------
      1          6           0       -1.554428   -2.327946    1.196799
      2          6           0       -1.746453   -1.141507    1.912348
      3          6           0       -2.416895   -0.061729    1.329996
      4          6           0       -2.884236   -0.203516    0.024324
      5          6           0       -2.708540   -1.372585   -0.714390
      6          6           0       -2.035236   -2.439502   -0.111978
      7          1           0       -1.032502   -3.161748    1.656976
      8          1           0       -1.374134   -1.052037    2.928920
      9          1           0       -2.579340    0.868252    1.861188
     10          1           0       -3.091090   -1.431911   -1.726099
     11          1           0       -1.887552   -3.359703   -0.670069
     12          7           0       -3.595517    0.932789   -0.602804
     13          8           0       -3.997617    0.782661   -1.754505
     14          8           0       -3.737450    1.952036    0.069228
     15          6           0        1.320063    2.404856    0.336889
     16          6           0        0.744287    1.226421   -0.149214
     17          6           0        1.536335    0.104319   -0.410166
     18          6           0        2.906893    0.196081   -0.172596
     19          6           0        3.510130    1.355910    0.311340
     20          6           0        2.698716    2.465732    0.565212
     21          1           0        0.697259    3.271761    0.536853
     22          1           0       -0.326112    1.176267   -0.327465
     23          1           0        1.116687   -0.820581   -0.786828
     24          1           0        4.580108    1.375587    0.479199
     25          1           0        3.148606    3.379599    0.942691
     26          7           0        3.755650   -0.985338   -0.445106
     27          8           0        4.960622   -0.878898   -0.227507
     28          8           0        3.199862   -1.995403   -0.871139
 ---------------------------------------------------------------------

 SCF Done:  E(RHF) =  -868.338234677     A.U. after   16 cycles
 E2 =    -0.2602191805D+01 EUMP2 =    -0.87094042648137D+03

 The electronic state is 1-A.
 Alpha  occ. eigenvalues --  -20.61682 -20.61660 -20.60974 -20.60952 -15.86722
 Alpha  occ. eigenvalues --  -15.86013 -11.32037 -11.31241 -11.28592 -11.28580
 Alpha  occ. eigenvalues --  -11.28216 -11.27789 -11.27755 -11.27518 -11.27508
 Alpha  occ. eigenvalues --  -11.27442 -11.26773 -11.26661  -1.60762  -1.60043
 Alpha  occ. eigenvalues --   -1.40309  -1.39601  -1.20229  -1.19389  -1.09589
 Alpha  occ. eigenvalues --   -1.08803  -1.05574  -1.04763  -0.96425  -0.95662
 Alpha  occ. eigenvalues --   -0.86956  -0.86168  -0.83232  -0.82499  -0.78315
 Alpha  occ. eigenvalues --   -0.77584  -0.72916  -0.72237  -0.72129  -0.71367
 Alpha  occ. eigenvalues --   -0.71219  -0.70470  -0.65818  -0.65500  -0.65030
 Alpha  occ. eigenvalues --   -0.64779  -0.62889  -0.62156  -0.55981  -0.55283
 Alpha  occ. eigenvalues --   -0.54006  -0.53604  -0.53080  -0.52748  -0.49694
 Alpha  occ. eigenvalues --   -0.49671  -0.48998  -0.48974  -0.45706  -0.45037
 Alpha  occ. eigenvalues --   -0.38166  -0.37502  -0.37186  -0.36196
 Alpha virt. eigenvalues --    0.04145   0.04941   0.10319   0.11376   0.15680
 Alpha virt. eigenvalues --    0.16483   0.20829   0.21467   0.26719   0.26997
 Alpha virt. eigenvalues --    0.27677   0.28362   0.30368   0.31036   0.31849

 Mulliken charges:
               1
     1  C   -0.171092
     2  C   -0.213449
     3  C   -0.178082
     4  C    0.148138
     5  C   -0.175007
     6  C   -0.221159
     7  H    0.234002
     8  H    0.227980
     9  H    0.275118
    10  H    0.279179
    11  H    0.231224
    12  N    0.488417
    13  O   -0.456111
    14  O   -0.462228
    15  C   -0.174911
    16  C   -0.218650
    17  C   -0.175059
    18  C    0.157582
    19  C   -0.172077
    20  C   -0.218840
    21  H    0.230554
    22  H    0.228896
    23  H    0.272936
    24  H    0.274866
    25  H    0.223718
    26  N    0.488212
    27  O   -0.459996
    28  O   -0.464161
 Sum of Mulliken charges =  -0.00000

 Dipole moment (field-independent basis, Debye):
    X=             -0.6753    Y=             -0.0176    Z=              3.2608  Tot=              3.3300
 Quadrupole moment (field-independent basis, Debye-Ang):
   XX=           -134.5388   YY=            -98.9875   ZZ=           -101.7865
   XY=             25.9456   XZ=             -1.0137   YZ=              2.1502

 Normal termination of Gaussian 16 at Thu May  6 14:43:55 2021.
