 Gaussian 16, Revision A.03,
 Gaussian 16:  EM64L-G16RevA.03 25-Dec-2016

 -------------
 #p 6-31g* mp2
 -------------

 ------------------------------------------------------
 Input file generated by CHIRIPA (05-May-2021 14:57:26)
 ------------------------------------------------------
 Symbolic Z-matrix:
 Charge =  0 Multiplicity = 1

                         Standard orientation:
 ---------------------------------------------------------------------
 Center     Atomic      Atomic             Coordinates (Angstroms)
 Number     Number       Type             X           Y           Z
 ---------------------------------------------------------------------
      1          6           0       -0.759105   -1.453634    1.584597
      2          6           0       -1.238635   -0.201322    1.982451
      3          6           0       -2.209475    0.460628    1.224930
      4          6           0       -2.680777   -0.161615    0.069950
      5          6           0       -2.222843   -1.408623   -0.352612
      6          6           0       -1.251871   -2.052232    0.420388
      7          1           0       -0.004882   -1.960729    2.179070
      8          1           0       -0.857764    0.265947    2.886133
      9          1           0       -2.598210    1.430746    1.509842
     10          1           0       -2.621667   -1.849232   -1.258273
     11          1           0       -0.881297   -3.024729    0.108989
     12          7           0       -3.708632    0.529454   -0.740197
     13          8           0       -4.107679   -0.040009   -1.753661
     14          8           0       -4.095754    1.627491   -0.346386
     15          6           0        2.226587    2.734675    0.283698
     16          6           0        2.135293    1.800469    1.320734
     17          6           0        2.291401    0.435386    1.062416
     18          6           0        2.538906    0.037769   -0.250570
     19          6           0        2.635388    0.944258   -1.305208
     20          6           0        2.475904    2.304347   -1.023658
     21          1           0        2.104007    3.793165    0.493388
     22          1           0        1.941754    2.131788    2.337009
     23          1           0        2.225596   -0.309273    1.846361
     24          1           0        2.829189    0.583644   -2.308111
     25          1           0        2.547315    3.027619   -1.831014
     26          7           0        2.705958   -1.404739   -0.536337
     27          8           0        2.923273   -1.729428   -1.701665
     28          8           0        2.616415   -2.183376    0.410418
 ---------------------------------------------------------------------

 SCF Done:  E(RHF) =  -868.338392773     A.U. after   16 cycles
 E2 =    -0.2602480697D+01 EUMP2 =    -0.87094087346987D+03

 The electronic state is 1-A.
 Alpha  occ. eigenvalues --  -20.61564 -20.61511 -20.60754 -20.60736 -15.86568
 Alpha  occ. eigenvalues --  -15.85799 -11.31709 -11.31086 -11.28381 -11.28233
 Alpha  occ. eigenvalues --  -11.27970 -11.27714 -11.27586 -11.27295 -11.27285
 Alpha  occ. eigenvalues --  -11.27174 -11.26737 -11.26477  -1.60598  -1.59826
 Alpha  occ. eigenvalues --   -1.40166  -1.39381  -1.19881  -1.19249  -1.09305
 Alpha  occ. eigenvalues --   -1.08648  -1.05276  -1.04638  -0.96188  -0.95490
 Alpha  occ. eigenvalues --   -0.86683  -0.86035  -0.83042  -0.82327  -0.78128
 Alpha  occ. eigenvalues --   -0.77399  -0.72812  -0.72022  -0.71910  -0.71150
 Alpha  occ. eigenvalues --   -0.71025  -0.70288  -0.65551  -0.65293  -0.64889
 Alpha  occ. eigenvalues --   -0.64635  -0.62652  -0.61981  -0.55773  -0.55084
 Alpha  occ. eigenvalues --   -0.53766  -0.53379  -0.52799  -0.52713  -0.49574
 Alpha  occ. eigenvalues --   -0.49528  -0.48778  -0.48766  -0.45624  -0.44805
 Alpha  occ. eigenvalues --   -0.37935  -0.37521  -0.36620  -0.35993
 Alpha virt. eigenvalues --    0.04361   0.05130   0.10745   0.11421   0.15869
 Alpha virt. eigenvalues --    0.16754   0.19694   0.22197   0.25963   0.26587
 Alpha virt. eigenvalues --    0.27937   0.29325   0.30160   0.31421   0.32747

 Mulliken charges:
               1
     1  C   -0.174011
     2  C   -0.217192
     3  C   -0.171229
     4  C    0.157790
     5  C   -0.171583
     6  C   -0.222127
     7  H    0.234317
     8  H    0.214277
     9  H    0.272009
    10  H    0.276845
    11  H    0.235092
    12  N    0.488042
    13  O   -0.459609
    14  O   -0.463218
    15  C   -0.169024
    16  C   -0.219323
    17  C   -0.163575
    18  C    0.159652
    19  C   -0.169407
    20  C   -0.217994
    21  H    0.228262
    22  H    0.219673
    23  H    0.265561
    24  H    0.277364
    25  H    0.226939
    26  N    0.489549
    27  O   -0.456083
    28  O   -0.470997
 Sum of Mulliken charges =  -0.00000

 Dipole moment (field-independent basis, Debye):
    X=              3.1550    Y=              2.5960    Z=              3.6167  Tot=              5.4565
 Quadrupole moment (field-independent basis, Debye-Ang):
   XX=           -129.0798   YY=           -100.7630   ZZ=            -98.7896
   XY=             19.6984   XZ=             -5.7453   YZ=             -0.3330

 Normal termination of Gaussian 16 at Thu May  6 02:03:19 2021.
