 Gaussian 16, Revision A.03,
 Gaussian 16:  EM64L-G16RevA.03 25-Dec-2016

 -------------
 #p 6-31g* mp2
 -------------

 ------------------------------------------------------
 Input file generated by CHIRIPA (05-May-2021 14:51:13)
 ------------------------------------------------------
 Symbolic Z-matrix:
 Charge =  0 Multiplicity = 1

                         Standard orientation:
 ---------------------------------------------------------------------
 Center     Atomic      Atomic             Coordinates (Angstroms)
 Number     Number       Type             X           Y           Z
 ---------------------------------------------------------------------
      1          6           0        4.469277   -0.351225   -0.396579
      2          6           0        5.708017   -0.043773    0.445432
      3          6           0        6.971637    0.119692   -0.399753
      4          1           0        4.645774   -1.267853   -0.975877
      5          1           0        4.321167    0.456377   -1.126810
      6          1           0        5.852949   -0.851030    1.174779
      7          1           0        5.528478    0.872125    1.022938
      8          1           0        6.851987    0.937855   -1.117314
      9          1           0        7.178302   -0.795091   -0.964610
     10          1           0        7.845075    0.338970    0.222246
     11          6           0        3.198057   -0.517394    0.434152
     12          6           0        1.959317   -0.824846   -0.407858
     13          6           0        0.695697   -0.988310    0.437327
     14          1           0        3.346166   -1.324996    1.164383
     15          1           0        3.021559    0.399234    1.013450
     16          1           0        2.138856   -1.740744   -0.985364
     17          1           0        1.814385   -0.017589   -1.137205
     18          1           0        0.489032   -0.073528    1.002184
     19          1           0        0.815347   -1.806474    1.154888
     20          1           0       -0.177741   -1.207589   -0.184672
     21          6           0       -3.627490    1.143847   -0.212384
     22          6           0       -2.269646    1.557206    0.356280
     23          6           0       -1.871000    2.979196   -0.039722
     24          1           0       -3.599908    1.226927   -1.307501
     25          1           0       -4.393454    1.850714    0.135517
     26          1           0       -1.506698    0.848969    0.008534
     27          1           0       -2.300402    1.472948    1.450159
     28          1           0       -2.610717    3.701233    0.320946
     29          1           0       -1.812504    3.073708   -1.128871
     30          1           0       -0.897201    3.254046    0.377452
     31          6           0       -4.039844   -0.275228    0.174810
     32          6           0       -5.397688   -0.688587   -0.393854
     33          6           0       -5.796334   -2.110577    0.002148
     34          1           0       -3.273880   -0.982095   -0.173090
     35          1           0       -4.067426   -0.358308    1.269927
     36          1           0       -5.366931   -0.604329   -1.487732
     37          1           0       -6.160636    0.019650   -0.046108
     38          1           0       -5.854829   -2.205089    1.091298
     39          1           0       -5.056615   -2.832614   -0.358519
     40          1           0       -6.770133   -2.385428   -0.415025
 ---------------------------------------------------------------------

 SCF Done:  E(RHF) =  -470.732454300     A.U. after   11 cycles
 E2 =    -0.1583137009D+01 EUMP2 =    -0.47231559130931D+03

 The electronic state is 1-A.
 Alpha  occ. eigenvalues --  -11.21633 -11.21614 -11.21572 -11.21433 -11.21427
 Alpha  occ. eigenvalues --  -11.21367 -11.21355 -11.21289 -11.21081 -11.21076
 Alpha  occ. eigenvalues --  -11.21047 -11.21030  -1.08456  -1.08372  -1.03573
 Alpha  occ. eigenvalues --   -1.03462  -0.96016  -0.95930  -0.87054  -0.86930
 Alpha  occ. eigenvalues --   -0.79706  -0.79469  -0.78281  -0.78164  -0.65121
 Alpha  occ. eigenvalues --   -0.64987  -0.61080  -0.60788  -0.59422  -0.59258
 Alpha  occ. eigenvalues --   -0.57627  -0.57543  -0.55343  -0.55178  -0.52778
 Alpha  occ. eigenvalues --   -0.52595  -0.52428  -0.52350  -0.50058  -0.49810
 Alpha  occ. eigenvalues --   -0.47956  -0.47821  -0.46763  -0.46450  -0.45838
 Alpha  occ. eigenvalues --   -0.45756  -0.45689  -0.45544  -0.43774  -0.43704
 Alpha virt. eigenvalues --    0.21598   0.23002   0.23752   0.24655   0.25869
 Alpha virt. eigenvalues --    0.26497   0.26969   0.27321   0.27760   0.29208
 Alpha virt. eigenvalues --    0.30731   0.31443   0.31728   0.31887   0.32264

 Mulliken charges:
               1
     1  C   -0.298316
     2  C   -0.299680
     3  C   -0.475724
     4  H    0.149682
     5  H    0.149601
     6  H    0.151962
     7  H    0.151979
     8  H    0.155223
     9  H    0.155185
    10  H    0.160309
    11  C   -0.298560
    12  C   -0.300783
    13  C   -0.480329
    14  H    0.149726
    15  H    0.149880
    16  H    0.152055
    17  H    0.152156
    18  H    0.159861
    19  H    0.155842
    20  H    0.160852
    21  C   -0.297809
    22  C   -0.308599
    23  C   -0.475442
    24  H    0.148881
    25  H    0.148981
    26  H    0.164582
    27  H    0.150657
    28  H    0.154960
    29  H    0.154631
    30  H    0.158871
    31  C   -0.299285
    32  C   -0.299599
    33  C   -0.475640
    34  H    0.149885
    35  H    0.149886
    36  H    0.151734
    37  H    0.151985
    38  H    0.155218
    39  H    0.155066
    40  H    0.160117
 Sum of Mulliken charges =  -0.00000

 Dipole moment (field-independent basis, Debye):
    X=              0.0400    Y=             -0.0291    Z=              0.0130  Tot=              0.0511
 Quadrupole moment (field-independent basis, Debye-Ang):
   XX=            -85.8745   YY=            -84.8165   ZZ=            -84.3424
   XY=             -0.8663   XZ=              0.1730   YZ=              0.4811

 Normal termination of Gaussian 16 at Thu May  6 00:49:22 2021.
