 Gaussian 16, Revision A.03,
 Gaussian 16:  EM64L-G16RevA.03 25-Dec-2016

 -------------
 #p 6-31g* mp2
 -------------

 ------------------------------------------------------
 Input file generated by CHIRIPA (05-May-2021 14:51:14)
 ------------------------------------------------------
 Symbolic Z-matrix:
 Charge =  0 Multiplicity = 1

                         Standard orientation:
 ---------------------------------------------------------------------
 Center     Atomic      Atomic             Coordinates (Angstroms)
 Number     Number       Type             X           Y           Z
 ---------------------------------------------------------------------
      1          6           0        5.248506   -0.041403    0.184365
      2          6           0        5.913868   -1.146038   -0.637255
      3          6           0        7.434903   -1.002772   -0.698251
      4          1           0        5.509276    0.934948   -0.246544
      5          1           0        5.660000   -0.053379    1.203151
      6          1           0        5.500240   -1.132875   -1.653795
      7          1           0        5.651327   -2.119881   -0.204453
      8          1           0        7.865800   -1.037935    0.307578
      9          1           0        7.713855   -0.045322   -1.149999
     10          1           0        7.890066   -1.802741   -1.290481
     11          6           0        3.727979   -0.170969    0.254638
     12          6           0        3.062616    0.933666    1.076259
     13          6           0        1.541581    0.790400    1.137255
     14          1           0        3.316484   -0.158993   -0.764147
     15          1           0        3.467208   -1.147320    0.685548
     16          1           0        3.325157    1.907509    0.643457
     17          1           0        3.476244    0.920503    2.092799
     18          1           0        1.262629   -0.167051    1.589003
     19          1           0        1.110684    0.825563    0.131426
     20          1           0        1.086418    1.590369    1.729485
     21          6           0       -3.823545    0.411652    0.000271
     22          6           0       -3.240558    1.391981   -1.018093
     23          6           0       -1.910735    1.994735   -0.564163
     24          1           0       -3.962156    0.928675    0.959656
     25          1           0       -3.097745   -0.393297    0.181001
     26          1           0       -3.967810    2.194100   -1.197888
     27          1           0       -3.103498    0.872616   -1.975219
     28          1           0       -1.166282    1.208294   -0.403218
     29          1           0       -2.035505    2.537287    0.378530
     30          1           0       -1.511875    2.692562   -1.306999
     31          6           0       -5.152938   -0.199280   -0.439275
     32          6           0       -5.735926   -1.179609    0.579089
     33          6           0       -7.065749   -1.782362    0.125159
     34          1           0       -5.878740    0.605670   -0.620005
     35          1           0       -5.014328   -0.716303   -1.398660
     36          1           0       -5.872986   -0.660244    1.536215
     37          1           0       -5.008673   -1.981728    0.758884
     38          1           0       -6.940979   -2.324915   -0.817534
     39          1           0       -7.810202   -0.995923   -0.035787
     40          1           0       -7.464608   -2.480191    0.867996
 ---------------------------------------------------------------------

 SCF Done:  E(RHF) =  -470.733055147     A.U. after   11 cycles
 E2 =    -0.1582286136D+01 EUMP2 =    -0.47231534128261D+03

 The electronic state is 1-A.
 Alpha  occ. eigenvalues --  -11.21597 -11.21575 -11.21570 -11.21542 -11.21395
 Alpha  occ. eigenvalues --  -11.21364 -11.21335 -11.21303 -11.21067 -11.21051
 Alpha  occ. eigenvalues --  -11.21015 -11.20960  -1.08417  -1.08386  -1.03524
 Alpha  occ. eigenvalues --   -1.03472  -0.96000  -0.95897  -0.87052  -0.86882
 Alpha  occ. eigenvalues --   -0.79647  -0.79481  -0.78240  -0.78189  -0.65061
 Alpha  occ. eigenvalues --   -0.65008  -0.60991  -0.60818  -0.59331  -0.59298
 Alpha  occ. eigenvalues --   -0.57608  -0.57521  -0.55419  -0.55084  -0.52742
 Alpha  occ. eigenvalues --   -0.52614  -0.52461  -0.52223  -0.50085  -0.49693
 Alpha  occ. eigenvalues --   -0.47978  -0.47773  -0.46703  -0.46460  -0.45805
 Alpha  occ. eigenvalues --   -0.45730  -0.45698  -0.45597  -0.43763  -0.43737
 Alpha virt. eigenvalues --    0.22632   0.22955   0.23706   0.24638   0.26069
 Alpha virt. eigenvalues --    0.26722   0.26925   0.27573   0.27684   0.29041
 Alpha virt. eigenvalues --    0.30222   0.31334   0.31731   0.31987   0.32313

 Mulliken charges:
               1
     1  C   -0.298248
     2  C   -0.299635
     3  C   -0.475698
     4  H    0.149691
     5  H    0.149538
     6  H    0.151869
     7  H    0.151870
     8  H    0.155185
     9  H    0.155193
    10  H    0.160209
    11  C   -0.298449
    12  C   -0.299826
    13  C   -0.478273
    14  H    0.149416
    15  H    0.149445
    16  H    0.152100
    17  H    0.151680
    18  H    0.154352
    19  H    0.158246
    20  H    0.161519
    21  C   -0.298245
    22  C   -0.299551
    23  C   -0.480643
    24  H    0.149588
    25  H    0.149794
    26  H    0.151468
    27  H    0.151383
    28  H    0.162545
    29  H    0.154833
    30  H    0.159042
    31  C   -0.298245
    32  C   -0.299614
    33  C   -0.475676
    34  H    0.149419
    35  H    0.149503
    36  H    0.151902
    37  H    0.151902
    38  H    0.155120
    39  H    0.155133
    40  H    0.160154
 Sum of Mulliken charges =  -0.00000

 Dipole moment (field-independent basis, Debye):
    X=              0.0168    Y=              0.0022    Z=              0.0106  Tot=              0.0200
 Quadrupole moment (field-independent basis, Debye-Ang):
   XX=            -86.8770   YY=            -84.1690   ZZ=            -83.9446
   XY=             -0.8667   XZ=             -0.2332   YZ=             -0.2076

 Normal termination of Gaussian 16 at Wed May  5 15:24:21 2021.
