 Gaussian 16, Revision A.03,
 Gaussian 16:  EM64L-G16RevA.03 25-Dec-2016

 -------------
 #p 6-31g* mp2
 -------------

 ------------------------------------------------------
 Input file generated by CHIRIPA (05-May-2021 14:53:16)
 ------------------------------------------------------
 Symbolic Z-matrix:
 Charge =  0 Multiplicity = 1

                         Standard orientation:
 ---------------------------------------------------------------------
 Center     Atomic      Atomic             Coordinates (Angstroms)
 Number     Number       Type             X           Y           Z
 ---------------------------------------------------------------------
      1          6           0       -5.290990   -0.255637    0.462154
      2          6           0       -6.157461   -0.989243   -0.562070
      3          6           0       -7.294335   -1.781265    0.084469
      4          1           0       -4.875002   -0.985027    1.170596
      5          1           0       -5.924848    0.423569    1.048922
      6          1           0       -5.521921   -1.665845   -1.147660
      7          1           0       -6.571279   -0.258045   -1.268271
      8          1           0       -7.952014   -1.116325    0.653603
      9          1           0       -6.896694   -2.532124    0.774900
     10          1           0       -7.901084   -2.297807   -0.665796
     11          6           0       -4.150178    0.540647   -0.168884
     12          6           0       -3.283707    1.274254    0.855340
     13          6           0       -2.146833    2.066275    0.208801
     14          1           0       -3.516320   -0.138559   -0.755652
     15          1           0       -4.566165    1.270037   -0.877326
     16          1           0       -2.869889    0.543056    1.561541
     17          1           0       -3.919246    1.950856    1.440930
     18          1           0       -2.544473    2.817134   -0.481629
     19          1           0       -1.489153    1.401335   -0.360333
     20          1           0       -1.540083    2.582817    0.959067
     21          6           0        1.662619    1.278294   -0.691507
     22          6           0        1.597499   -0.117131   -0.762701
     23          6           0        2.713495   -0.897109   -0.445314
     24          6           0        3.883758   -0.245676   -0.058781
     25          6           0        3.979977    1.142683    0.021792
     26          6           0        2.851553    1.902647   -0.300178
     27          1           0        0.790860    1.876426   -0.939842
     28          1           0        0.675479   -0.604728   -1.066302
     29          1           0        2.690732   -1.979111   -0.491922
     30          1           0        4.913028    1.600115    0.327711
     31          1           0        2.905025    2.986174   -0.243996
     32          7           0        5.071791   -1.060810    0.279648
     33          8           0        6.091027   -0.462726    0.617420
     34          8           0        4.961239   -2.282362    0.200730
 ---------------------------------------------------------------------

 SCF Done:  E(RHF) =  -669.535306386     A.U. after   15 cycles
 E2 =    -0.2091090357D+01 EUMP2 =    -0.67162639674274D+03

 The electronic state is 1-A.
 Alpha  occ. eigenvalues --  -20.60724 -20.60719 -15.85779 -11.31129 -11.27713
 Alpha  occ. eigenvalues --  -11.27704 -11.27384 -11.26714 -11.26692 -11.22498
 Alpha  occ. eigenvalues --  -11.22295 -11.22171 -11.22118 -11.21977 -11.21486
 Alpha  occ. eigenvalues --   -1.59800  -1.39354  -1.19303  -1.09152  -1.08694
 Alpha  occ. eigenvalues --   -1.04710  -1.04277  -0.96756  -0.95530  -0.87781
 Alpha  occ. eigenvalues --   -0.86106  -0.82371  -0.80355  -0.78929  -0.77423
 Alpha  occ. eigenvalues --   -0.71996  -0.71124  -0.70416  -0.65784  -0.64955
 Alpha  occ. eigenvalues --   -0.64722  -0.62070  -0.61667  -0.60127  -0.58339
 Alpha  occ. eigenvalues --   -0.56129  -0.55166  -0.53428  -0.53163  -0.53021
 Alpha  occ. eigenvalues --   -0.52801  -0.50680  -0.48756  -0.48752  -0.48657
 Alpha  occ. eigenvalues --   -0.47366  -0.46480  -0.46381  -0.44763  -0.44516
 Alpha  occ. eigenvalues --   -0.37262  -0.36320
 Alpha virt. eigenvalues --    0.05113   0.11307   0.16588   0.20074   0.22327
 Alpha virt. eigenvalues --    0.23743   0.25468   0.26179   0.26755   0.27501
 Alpha virt. eigenvalues --    0.28855   0.29968   0.30891   0.31113   0.31769

 Mulliken charges:
               1
     1  C   -0.298976
     2  C   -0.300026
     3  C   -0.476126
     4  H    0.150901
     5  H    0.151253
     6  H    0.151610
     7  H    0.152522
     8  H    0.156058
     9  H    0.156070
    10  H    0.161692
    11  C   -0.298294
    12  C   -0.300244
    13  C   -0.479388
    14  H    0.146090
    15  H    0.150913
    16  H    0.154963
    17  H    0.155931
    18  H    0.157906
    19  H    0.144861
    20  H    0.163048
    21  C   -0.172790
    22  C   -0.220516
    23  C   -0.170909
    24  C    0.158050
    25  C   -0.170741
    26  C   -0.219965
    27  H    0.233011
    28  H    0.222265
    29  H    0.275254
    30  H    0.275354
    31  H    0.223423
    32  N    0.488119
    33  O   -0.460594
    34  O   -0.460724
 Sum of Mulliken charges =  -0.00000

 Dipole moment (field-independent basis, Debye):
    X=             -4.4202    Y=              2.9043    Z=             -1.1275  Tot=              5.4078
 Quadrupole moment (field-independent basis, Debye-Ang):
   XX=           -126.0210   YY=            -92.4699   ZZ=            -95.3688
   XY=             13.7164   XZ=             -3.6960   YZ=              1.2389

 Normal termination of Gaussian 16 at Thu May  6 02:43:39 2021.
