 Gaussian 16, Revision A.03,
 Gaussian 16:  EM64L-G16RevA.03 25-Dec-2016

 -------------
 #p 6-31g* mp2
 -------------

 ------------------------------------------------------
 Input file generated by CHIRIPA (05-May-2021 14:57:21)
 ------------------------------------------------------
 Symbolic Z-matrix:
 Charge =  0 Multiplicity = 1

                         Standard orientation:
 ---------------------------------------------------------------------
 Center     Atomic      Atomic             Coordinates (Angstroms)
 Number     Number       Type             X           Y           Z
 ---------------------------------------------------------------------
      1          6           0       -3.722051    2.182244    1.063503
      2          6           0       -2.488589    1.922810    0.457047
      3          6           0       -2.248841    0.695390   -0.167860
      4          6           0       -3.269473   -0.254135   -0.167562
      5          6           0       -4.508953   -0.025535    0.428024
      6          6           0       -4.726525    1.208959    1.047085
      7          1           0       -3.899679    3.138480    1.546674
      8          1           0       -1.706665    2.676809    0.468257
      9          1           0       -1.303246    0.468181   -0.644981
     10          1           0       -5.269068   -0.796827    0.400618
     11          1           0       -5.685423    1.407675    1.517267
     12          7           0       -3.027401   -1.557294   -0.826028
     13          8           0       -3.942912   -2.377222   -0.812062
     14          8           0       -1.926737   -1.734107   -1.343632
     15          6           0        3.467619   -2.263302    1.078173
     16          6           0        4.630912   -1.531334    0.818371
     17          6           0        4.555190   -0.254542    0.253911
     18          6           0        3.294071    0.261972   -0.039487
     19          6           0        2.116873   -0.442626    0.207566
     20          6           0        2.216518   -1.717573    0.772480
     21          1           0        3.535734   -3.254428    1.516835
     22          1           0        5.603885   -1.952637    1.054743
     23          1           0        5.439728    0.333899    0.042375
     24          1           0        1.161209    0.003867   -0.038949
     25          1           0        1.311409   -2.283747    0.973155
     26          7           0        3.201244    1.612678   -0.637296
     27          8           0        2.078171    2.045340   -0.886589
     28          8           0        4.253318    2.213124   -0.845245
 ---------------------------------------------------------------------

 SCF Done:  E(RHF) =  -868.339404488     A.U. after   16 cycles
 E2 =    -0.2599131368D+01 EUMP2 =    -0.87093853585588D+03

 The electronic state is 1-A.
 Alpha  occ. eigenvalues --  -20.61090 -20.61057 -20.61011 -20.60970 -15.86116
 Alpha  occ. eigenvalues --  -15.86036 -11.31316 -11.31184 -11.27843 -11.27840
 Alpha  occ. eigenvalues --  -11.27744 -11.27709 -11.27502 -11.27375 -11.26834
 Alpha  occ. eigenvalues --  -11.26723 -11.26692 -11.26605  -1.60152  -1.60060
 Alpha  occ. eigenvalues --   -1.39711  -1.39627  -1.19450  -1.19319  -1.08871
 Alpha  occ. eigenvalues --   -1.08749  -1.04813  -1.04680  -0.95742  -0.95628
 Alpha  occ. eigenvalues --   -0.86226  -0.86092  -0.82566  -0.82465  -0.77683
 Alpha  occ. eigenvalues --   -0.77518  -0.72339  -0.72266  -0.71473  -0.71370
 Alpha  occ. eigenvalues --   -0.70593  -0.70402  -0.65092  -0.64970  -0.64826
 Alpha  occ. eigenvalues --   -0.64640  -0.62270  -0.61927  -0.55322  -0.55175
 Alpha  occ. eigenvalues --   -0.53168  -0.53022  -0.52942  -0.52695  -0.49109
 Alpha  occ. eigenvalues --   -0.49073  -0.49037  -0.48986  -0.45154  -0.45079
 Alpha  occ. eigenvalues --   -0.37416  -0.37278  -0.36412  -0.36264
 Alpha virt. eigenvalues --    0.04831   0.04971   0.11198   0.11383   0.16401
 Alpha virt. eigenvalues --    0.16533   0.19733   0.22168   0.24945   0.27783
 Alpha virt. eigenvalues --    0.28038   0.29637   0.31094   0.31323   0.31699

 Mulliken charges:
               1
     1  C   -0.170975
     2  C   -0.221479
     3  C   -0.182305
     4  C    0.159066
     5  C   -0.171423
     6  C   -0.218234
     7  H    0.227526
     8  H    0.235228
     9  H    0.282211
    10  H    0.275021
    11  H    0.223819
    12  N    0.487269
    13  O   -0.458976
    14  O   -0.465793
    15  C   -0.170475
    16  C   -0.218648
    17  C   -0.170611
    18  C    0.157817
    19  C   -0.171732
    20  C   -0.219916
    21  H    0.227241
    22  H    0.223526
    23  H    0.274931
    24  H    0.274607
    25  H    0.231830
    26  N    0.488245
    27  O   -0.469547
    28  O   -0.458222
 Sum of Mulliken charges =  -0.00000

 Dipole moment (field-independent basis, Debye):
    X=             -0.5382    Y=             -0.1721    Z=              4.5036  Tot=              4.5389
 Quadrupole moment (field-independent basis, Debye-Ang):
   XX=            -87.4193   YY=           -109.9296   ZZ=           -107.0966
   XY=            -29.3438   XZ=             -1.7673   YZ=             -1.0492

 Normal termination of Gaussian 16 at Thu May  6 12:47:28 2021.
