 Gaussian 16, Revision A.03,
 Gaussian 16:  EM64L-G16RevA.03 25-Dec-2016

 -------------
 #p 6-31g* mp2
 -------------

 ------------------------------------------------------
 Input file generated by CHIRIPA (05-May-2021 14:51:13)
 ------------------------------------------------------
 Symbolic Z-matrix:
 Charge =  0 Multiplicity = 1

                         Standard orientation:
 ---------------------------------------------------------------------
 Center     Atomic      Atomic             Coordinates (Angstroms)
 Number     Number       Type             X           Y           Z
 ---------------------------------------------------------------------
      1          6           0        3.382533    0.761997   -0.321308
      2          6           0        4.175692    1.926229    0.273207
      3          6           0        4.193707    3.154939   -0.636596
      4          1           0        3.813466    0.492537   -1.295286
      5          1           0        2.352183    1.090696   -0.515556
      6          1           0        5.203869    1.595026    0.467561
      7          1           0        3.742939    2.192823    1.245970
      8          1           0        3.175561    3.512601   -0.821139
      9          1           0        4.644792    2.911408   -1.603972
     10          1           0        4.766101    3.975158   -0.192225
     11          6           0        3.355340   -0.473632    0.576583
     12          6           0        2.562180   -1.637863   -0.017933
     13          6           0        2.544165   -2.866573    0.891870
     14          1           0        4.385689   -0.802330    0.770830
     15          1           0        2.924406   -0.204172    1.550561
     16          1           0        2.994934   -1.904457   -0.990696
     17          1           0        1.534003   -1.306661   -0.212286
     18          1           0        2.093080   -2.623042    1.859247
     19          1           0        3.562311   -3.224236    1.076414
     20          1           0        1.971772   -3.686792    0.447500
     21          6           0       -3.166675   -0.792632   -0.476975
     22          6           0       -1.708460   -1.183070   -0.233765
     23          6           0       -1.318868   -2.482484   -0.939128
     24          1           0       -3.819662   -1.607214   -0.134913
     25          1           0       -3.335931   -0.689237   -1.557742
     26          1           0       -1.541657   -1.284347    0.846297
     27          1           0       -1.058875   -0.367383   -0.576270
     28          1           0       -1.457057   -2.389820   -2.021218
     29          1           0       -1.942582   -3.311993   -0.590567
     30          1           0       -0.272446   -2.742820   -0.751809
     31          6           0       -3.571197    0.504266    0.221700
     32          6           0       -5.029413    0.894704   -0.021509
     33          6           0       -5.419005    2.194117    0.683853
     34          1           0       -3.401943    0.400871    1.302466
     35          1           0       -2.918209    1.318849   -0.120362
     36          1           0       -5.678998    0.079016    0.320995
     37          1           0       -5.196216    0.995980   -1.101573
     38          1           0       -4.795291    3.023628    0.335292
     39          1           0       -5.280816    2.101454    1.765943
     40          1           0       -6.465426    2.454454    0.496534
 ---------------------------------------------------------------------

 SCF Done:  E(RHF) =  -470.732914301     A.U. after   11 cycles
 E2 =    -0.1583339223D+01 EUMP2 =    -0.47231625352363D+03

 The electronic state is 1-A.
 Alpha  occ. eigenvalues --  -11.21645 -11.21622 -11.21600 -11.21561 -11.21434
 Alpha  occ. eigenvalues --  -11.21400 -11.21375 -11.21339 -11.21090 -11.21085
 Alpha  occ. eigenvalues --  -11.21074 -11.21025  -1.08468  -1.08416  -1.03598
 Alpha  occ. eigenvalues --   -1.03489  -0.96043  -0.95938  -0.87018  -0.86991
 Alpha  occ. eigenvalues --   -0.79621  -0.79594  -0.78299  -0.78219  -0.65109
 Alpha  occ. eigenvalues --   -0.65048  -0.61022  -0.60929  -0.59638  -0.59128
 Alpha  occ. eigenvalues --   -0.57811  -0.57349  -0.55278  -0.55261  -0.52790
 Alpha  occ. eigenvalues --   -0.52600  -0.52443  -0.52332  -0.49932  -0.49917
 Alpha  occ. eigenvalues --   -0.47933  -0.47905  -0.46694  -0.46571  -0.45868
 Alpha  occ. eigenvalues --   -0.45768  -0.45753  -0.45607  -0.43803  -0.43778
 Alpha virt. eigenvalues --    0.21128   0.23127   0.23325   0.24864   0.25753
 Alpha virt. eigenvalues --    0.26718   0.26766   0.27221   0.28018   0.29022
 Alpha virt. eigenvalues --    0.30463   0.31146   0.31428   0.31722   0.32348

 Mulliken charges:
               1
     1  C   -0.298437
     2  C   -0.299663
     3  C   -0.475690
     4  H    0.149635
     5  H    0.149231
     6  H    0.151989
     7  H    0.152044
     8  H    0.155046
     9  H    0.155152
    10  H    0.160285
    11  C   -0.297466
    12  C   -0.308291
    13  C   -0.477660
    14  H    0.149362
    15  H    0.149708
    16  H    0.151783
    17  H    0.160984
    18  H    0.155427
    19  H    0.155712
    20  H    0.160978
    21  C   -0.298385
    22  C   -0.300511
    23  C   -0.483544
    24  H    0.149983
    25  H    0.149798
    26  H    0.151948
    27  H    0.151437
    28  H    0.155108
    29  H    0.155148
    30  H    0.168970
    31  C   -0.298310
    32  C   -0.299680
    33  C   -0.475722
    34  H    0.149447
    35  H    0.149415
    36  H    0.152047
    37  H    0.152033
    38  H    0.155154
    39  H    0.155171
    40  H    0.160366
 Sum of Mulliken charges =  -0.00000

 Dipole moment (field-independent basis, Debye):
    X=             -0.0041    Y=             -0.0064    Z=              0.0014  Tot=              0.0077
 Quadrupole moment (field-independent basis, Debye-Ang):
   XX=            -84.2019   YY=            -86.1808   ZZ=            -84.3918
   XY=              0.1365   XZ=             -0.3844   YZ=             -0.1803

 Normal termination of Gaussian 16 at Thu May  6 07:09:42 2021.
