 Gaussian 16, Revision A.03,
 Gaussian 16:  EM64L-G16RevA.03 25-Dec-2016

 -------------
 #p 6-31g* mp2
 -------------

 ------------------------------------------------------
 Input file generated by CHIRIPA (05-May-2021 14:51:12)
 ------------------------------------------------------
 Symbolic Z-matrix:
 Charge =  0 Multiplicity = 1

                         Standard orientation:
 ---------------------------------------------------------------------
 Center     Atomic      Atomic             Coordinates (Angstroms)
 Number     Number       Type             X           Y           Z
 ---------------------------------------------------------------------
      1          6           0        4.015336   -0.176788   -0.294812
      2          6           0        3.183159    1.105934   -0.285213
      3          6           0        1.721533    0.865199   -0.664011
      4          1           0        3.964050   -0.632112   -1.293308
      5          1           0        3.569393   -0.900112    0.401845
      6          1           0        3.631334    1.827130   -0.980649
      7          1           0        3.236589    1.558359    0.713322
      8          1           0        1.252622    0.165287    0.035164
      9          1           0        1.649610    0.435585   -1.668432
     10          1           0        1.144937    1.795372   -0.650791
     11          6           0        5.478729    0.047634    0.081809
     12          6           0        6.310906   -1.235088    0.072210
     13          6           0        7.772532   -0.994352    0.451009
     14          1           0        5.924673    0.770958   -0.614848
     15          1           0        5.530016    0.502958    1.080305
     16          1           0        6.257477   -1.687513   -0.926325
     17          1           0        5.862731   -1.956284    0.767646
     18          1           0        7.844455   -0.564739    1.455429
     19          1           0        8.241444   -0.294440   -0.248167
     20          1           0        8.349128   -1.924526    0.437788
     21          6           0       -5.226873   -0.383199   -0.284245
     22          6           0       -6.500196   -0.727798    0.488985
     23          6           0       -7.450161   -1.624205   -0.305883
     24          1           0       -5.500079    0.113127   -1.225502
     25          1           0       -4.710489   -1.313184   -0.559690
     26          1           0       -7.013308    0.202605    0.764088
     27          1           0       -6.223918   -1.223189    1.428599
     28          1           0       -6.960596   -2.567737   -0.567941
     29          1           0       -7.754471   -1.133842   -1.236228
     30          1           0       -8.353778   -1.858136    0.265617
     31          6           0       -4.267192    0.512353    0.497248
     32          6           0       -2.993870    0.856953   -0.275982
     33          6           0       -2.043904    1.753359    0.518886
     34          1           0       -4.783578    1.442338    0.772692
     35          1           0       -3.993985    0.016027    1.438505
     36          1           0       -3.270148    1.352344   -1.215596
     37          1           0       -2.480758   -0.073451   -0.551085
     38          1           0       -1.739595    1.262996    1.449230
     39          1           0       -2.533469    2.696891    0.780944
     40          1           0       -1.140287    1.987290   -0.052614
 ---------------------------------------------------------------------

 SCF Done:  E(RHF) =  -470.733064079     A.U. after   11 cycles
 E2 =    -0.1582273728D+01 EUMP2 =    -0.47231533780657D+03

 The electronic state is 1-A.
 Alpha  occ. eigenvalues --  -11.21605 -11.21603 -11.21574 -11.21528 -11.21410
 Alpha  occ. eigenvalues --  -11.21361 -11.21350 -11.21300 -11.21074 -11.21072
 Alpha  occ. eigenvalues --  -11.21050 -11.20945  -1.08435  -1.08381  -1.03543
 Alpha  occ. eigenvalues --   -1.03467  -0.96019  -0.95895  -0.87065  -0.86887
 Alpha  occ. eigenvalues --   -0.79624  -0.79514  -0.78246  -0.78195  -0.65066
 Alpha  occ. eigenvalues --   -0.65011  -0.60948  -0.60857  -0.59607  -0.59114
 Alpha  occ. eigenvalues --   -0.57667  -0.57460  -0.55306  -0.55177  -0.53014
 Alpha  occ. eigenvalues --   -0.52454  -0.52408  -0.52167  -0.49952  -0.49832
 Alpha  occ. eigenvalues --   -0.47944  -0.47824  -0.46634  -0.46566  -0.45789
 Alpha  occ. eigenvalues --   -0.45737  -0.45712  -0.45663  -0.43958  -0.43530
 Alpha virt. eigenvalues --    0.22249   0.22992   0.23539   0.24869   0.26563
 Alpha virt. eigenvalues --    0.26712   0.26917   0.27457   0.27588   0.29001
 Alpha virt. eigenvalues --    0.29291   0.31299   0.31606   0.31826   0.32044

 Mulliken charges:
               1
     1  C   -0.298684
     2  C   -0.299495
     3  C   -0.478691
     4  H    0.149616
     5  H    0.149476
     6  H    0.151845
     7  H    0.152298
     8  H    0.156417
     9  H    0.155082
    10  H    0.162844
    11  C   -0.298277
    12  C   -0.299627
    13  C   -0.475703
    14  H    0.149551
    15  H    0.149710
    16  H    0.151930
    17  H    0.151899
    18  H    0.155200
    19  H    0.155197
    20  H    0.160251
    21  C   -0.298191
    22  C   -0.299591
    23  C   -0.475671
    24  H    0.149562
    25  H    0.149455
    26  H    0.151861
    27  H    0.151836
    28  H    0.155135
    29  H    0.155139
    30  H    0.160140
    31  C   -0.298352
    32  C   -0.299264
    33  C   -0.480978
    34  H    0.149349
    35  H    0.149362
    36  H    0.151515
    37  H    0.152328
    38  H    0.154225
    39  H    0.153943
    40  H    0.167361
 Sum of Mulliken charges =  -0.00000

 Dipole moment (field-independent basis, Debye):
    X=              0.0359    Y=              0.0009    Z=             -0.0100  Tot=              0.0373
 Quadrupole moment (field-independent basis, Debye-Ang):
   XX=            -86.5006   YY=            -84.5100   ZZ=            -83.9328
   XY=             -0.8418   XZ=             -0.6401   YZ=             -0.8046

 Normal termination of Gaussian 16 at Thu May  6 05:30:45 2021.
