 Gaussian 16, Revision A.03,
 Gaussian 16:  EM64L-G16RevA.03 25-Dec-2016

 -------------
 #p 6-31g* mp2
 -------------

 ------------------------------------------------------
 Input file generated by CHIRIPA (05-May-2021 14:53:16)
 ------------------------------------------------------
 Symbolic Z-matrix:
 Charge =  0 Multiplicity = 1

                         Standard orientation:
 ---------------------------------------------------------------------
 Center     Atomic      Atomic             Coordinates (Angstroms)
 Number     Number       Type             X           Y           Z
 ---------------------------------------------------------------------
      1          6           0       -2.776160    0.643346   -0.319748
      2          6           0       -2.764101   -0.879323   -0.180757
      3          6           0       -3.994506   -1.539554   -0.803646
      4          1           0       -3.685467    1.040991    0.151404
      5          1           0       -2.835156    0.906884   -1.384860
      6          1           0       -2.703750   -1.139904    0.883701
      7          1           0       -1.854623   -1.273372   -0.652127
      8          1           0       -4.056270   -1.308629   -1.872037
      9          1           0       -4.910222   -1.174403   -0.327482
     10          1           0       -3.965369   -2.628019   -0.692946
     11          6           0       -1.552601    1.317787    0.298120
     12          6           0       -1.564661    2.840456    0.159129
     13          6           0       -0.334255    3.500687    0.782018
     14          1           0       -1.493606    1.054250    1.363232
     15          1           0       -0.643295    0.920143   -0.173033
     16          1           0       -2.474139    3.234506    0.630499
     17          1           0       -1.625012    3.101038   -0.905330
     18          1           0        0.581460    3.135536    0.305854
     19          1           0       -0.272492    3.269763    1.850409
     20          1           0       -0.363392    4.589152    0.671318
     21          6           0        0.430153   -2.648362    1.119012
     22          6           0        0.560111   -2.618627   -0.273378
     23          6           0        1.256506   -1.580556   -0.899468
     24          6           0        1.812809   -0.584095   -0.098917
     25          6           0        1.700520   -0.585823    1.290572
     26          6           0        0.999767   -1.633654    1.895174
     27          1           0       -0.112516   -3.458551    1.597028
     28          1           0        0.118779   -3.405319   -0.878675
     29          1           0        1.372286   -1.532919   -1.975453
     30          1           0        2.151395    0.212540    1.867414
     31          1           0        0.900429   -1.654166    2.976727
     32          7           0        2.552358    0.520031   -0.750356
     33          8           0        3.033230    1.385970   -0.022656
     34          8           0        2.637141    0.498600   -1.976321
 ---------------------------------------------------------------------

 SCF Done:  E(RHF) =  -669.533798649     A.U. after   15 cycles
 E2 =    -0.2097029018D+01 EUMP2 =    -0.67163082766724D+03

 The electronic state is 1-A.
 Alpha  occ. eigenvalues --  -20.60978 -20.60962 -15.85989 -11.31272 -11.27860
 Alpha  occ. eigenvalues --  -11.27848 -11.27591 -11.26868 -11.26854 -11.21659
 Alpha  occ. eigenvalues --  -11.21373 -11.21349 -11.21284 -11.21198 -11.20511
 Alpha  occ. eigenvalues --   -1.60032  -1.39586  -1.19489  -1.08889  -1.08357
 Alpha  occ. eigenvalues --   -1.04884  -1.03432  -0.95880  -0.95723  -0.86892
 Alpha  occ. eigenvalues --   -0.86276  -0.82562  -0.79517  -0.78191  -0.77613
 Alpha  occ. eigenvalues --   -0.72213  -0.71357  -0.70576  -0.65137  -0.65030
 Alpha  occ. eigenvalues --   -0.64859  -0.62222  -0.60839  -0.59312  -0.57499
 Alpha  occ. eigenvalues --   -0.55371  -0.55179  -0.53412  -0.52963  -0.52513
 Alpha  occ. eigenvalues --   -0.52298  -0.49841  -0.48981  -0.48973  -0.47852
 Alpha  occ. eigenvalues --   -0.46586  -0.45669  -0.45521  -0.44899  -0.43681
 Alpha  occ. eigenvalues --   -0.37348  -0.36374
 Alpha virt. eigenvalues --    0.04859   0.11094   0.16273   0.21089   0.22989
 Alpha virt. eigenvalues --    0.24109   0.26393   0.27314   0.27473   0.27904
 Alpha virt. eigenvalues --    0.28307   0.30638   0.31642   0.31791   0.32300

 Mulliken charges:
               1
     1  C   -0.297760
     2  C   -0.303718
     3  C   -0.475155
     4  H    0.148719
     5  H    0.150322
     6  H    0.145779
     7  H    0.156844
     8  H    0.156021
     9  H    0.156141
    10  H    0.153620
    11  C   -0.299739
    12  C   -0.299705
    13  C   -0.482002
    14  H    0.144489
    15  H    0.151669
    16  H    0.149121
    17  H    0.153753
    18  H    0.170004
    19  H    0.148484
    20  H    0.160575
    21  C   -0.165310
    22  C   -0.218973
    23  C   -0.173654
    24  C    0.158318
    25  C   -0.168172
    26  C   -0.217289
    27  H    0.226387
    28  H    0.224677
    29  H    0.275824
    30  H    0.276448
    31  H    0.223893
    32  N    0.488615
    33  O   -0.458877
    34  O   -0.459349
 Sum of Mulliken charges =  -0.00000

 Dipole moment (field-independent basis, Debye):
    X=             -2.3723    Y=             -3.9208    Z=              2.2783  Tot=              5.1177
 Quadrupole moment (field-independent basis, Debye-Ang):
   XX=           -105.7935   YY=            -90.2694   ZZ=            -90.7082
   XY=             -5.6838   XZ=              4.6860   YZ=              0.6511

 Normal termination of Gaussian 16 at Thu May  6 12:14:23 2021.
