 Gaussian 16, Revision A.03,
 Gaussian 16:  EM64L-G16RevA.03 25-Dec-2016

 -------------
 #p 6-31g* mp2
 -------------

 ------------------------------------------------------
 Input file generated by CHIRIPA (05-May-2021 14:55:19)
 ------------------------------------------------------
 Symbolic Z-matrix:
 Charge =  0 Multiplicity = 1

                         Standard orientation:
 ---------------------------------------------------------------------
 Center     Atomic      Atomic             Coordinates (Angstroms)
 Number     Number       Type             X           Y           Z
 ---------------------------------------------------------------------
      1          6           0        2.328927    2.731417    0.080521
      2          6           0        3.617088    2.387917    0.503805
      3          6           0        4.068728    1.068528    0.404903
      4          6           0        3.201905    0.113757   -0.124550
      5          6           0        1.912948    0.424772   -0.554840
      6          6           0        1.482460    1.750478   -0.446521
      7          1           0        1.986298    3.758804    0.161009
      8          1           0        4.276636    3.147640    0.913515
      9          1           0        5.061100    0.775051    0.725040
     10          1           0        1.278349   -0.354547   -0.959022
     11          1           0        0.481546    2.014357   -0.776040
     12          7           0        3.668839   -1.286365   -0.234238
     13          8           0        2.885858   -2.108954   -0.704265
     14          8           0        4.808962   -1.534680    0.151892
     15          6           0       -4.744366   -0.378424   -0.022899
     16          6           0       -5.249518    1.064632   -0.003035
     17          6           0       -6.740601    1.173457   -0.323381
     18          1           0       -4.941355   -0.815575   -1.011353
     19          1           0       -5.320161   -0.971114    0.701375
     20          1           0       -4.672010    1.654735   -0.726137
     21          1           0       -5.051130    1.498460    0.985425
     22          1           0       -7.333076    0.608959    0.403887
     23          1           0       -6.951802    0.766122   -1.317400
     24          1           0       -7.080583    2.213593   -0.303718
     25          6           0       -3.255502   -0.503532    0.295469
     26          6           0       -2.750350   -1.946588    0.275604
     27          6           0       -1.259266   -2.055411    0.595951
     28          1           0       -2.679707    0.089158   -0.428806
     29          1           0       -3.058512   -0.066380    1.283922
     30          1           0       -2.948738   -2.380416   -0.712855
     31          1           0       -3.327858   -2.536692    0.998708
     32          1           0       -1.048067   -1.648079    1.589971
     33          1           0       -0.666792   -1.490915   -0.131317
     34          1           0       -0.919285   -3.095549    0.576289
 ---------------------------------------------------------------------

 SCF Done:  E(RHF) =  -669.535313083     A.U. after   15 cycles
 E2 =    -0.2091246949D+01 EUMP2 =    -0.67162656003161D+03

 The electronic state is 1-A.
 Alpha  occ. eigenvalues --  -20.60725 -20.60718 -15.85775 -11.31146 -11.27723
 Alpha  occ. eigenvalues --  -11.27707 -11.27470 -11.26743 -11.26731 -11.21945
 Alpha  occ. eigenvalues --  -11.21784 -11.21729 -11.21659 -11.21349 -11.21156
 Alpha  occ. eigenvalues --   -1.59797  -1.39351  -1.19324  -1.08720  -1.08718
 Alpha  occ. eigenvalues --   -1.04732  -1.03767  -0.96211  -0.95552  -0.87224
 Alpha  occ. eigenvalues --   -0.86127  -0.82384  -0.79833  -0.78551  -0.77428
 Alpha  occ. eigenvalues --   -0.71996  -0.71119  -0.70445  -0.65358  -0.64978
 Alpha  occ. eigenvalues --   -0.64743  -0.62123  -0.61146  -0.59567  -0.57822
 Alpha  occ. eigenvalues --   -0.55542  -0.55212  -0.53071  -0.52918  -0.52846
 Alpha  occ. eigenvalues --   -0.52542  -0.50153  -0.48756  -0.48749  -0.48143
 Alpha  occ. eigenvalues --   -0.46874  -0.46085  -0.46017  -0.44752  -0.44019
 Alpha  occ. eigenvalues --   -0.37306  -0.36323
 Alpha virt. eigenvalues --    0.05087   0.11293   0.16586   0.20242   0.22735
 Alpha virt. eigenvalues --    0.23917   0.25464   0.26624   0.26931   0.28146
 Alpha virt. eigenvalues --    0.29079   0.30270   0.31449   0.31622   0.31881

 Mulliken charges:
               1
     1  C   -0.170836
     2  C   -0.218654
     3  C   -0.170760
     4  C    0.158068
     5  C   -0.173560
     6  C   -0.220191
     7  H    0.225508
     8  H    0.223277
     9  H    0.275491
    10  H    0.281742
    11  H    0.223603
    12  N    0.487555
    13  O   -0.460283
    14  O   -0.460701
    15  C   -0.298346
    16  C   -0.299365
    17  C   -0.475795
    18  H    0.150800
    19  H    0.151475
    20  H    0.148874
    21  H    0.151569
    22  H    0.156410
    23  H    0.155963
    24  H    0.160131
    25  C   -0.296623
    26  C   -0.300996
    27  C   -0.474800
    28  H    0.140796
    29  H    0.149706
    30  H    0.153534
    31  H    0.153920
    32  H    0.155326
    33  H    0.146446
    34  H    0.170717
 Sum of Mulliken charges =  -0.00000

 Dipole moment (field-independent basis, Debye):
    X=             -1.7019    Y=              4.8182    Z=              0.4422  Tot=              5.1290
 Quadrupole moment (field-independent basis, Debye-Ang):
   XX=           -102.4707   YY=            -93.5607   ZZ=            -93.9026
   XY=             17.5935   XZ=              2.9686   YZ=             -0.0614

 Normal termination of Gaussian 16 at Thu May  6 07:41:14 2021.
