 Gaussian 16, Revision A.03,
 Gaussian 16:  EM64L-G16RevA.03 25-Dec-2016

 -------------
 #p 6-31g* mp2
 -------------

 ------------------------------------------------------
 Input file generated by CHIRIPA (05-May-2021 14:57:26)
 ------------------------------------------------------
 Symbolic Z-matrix:
 Charge =  0 Multiplicity = 1

                         Standard orientation:
 ---------------------------------------------------------------------
 Center     Atomic      Atomic             Coordinates (Angstroms)
 Number     Number       Type             X           Y           Z
 ---------------------------------------------------------------------
      1          6           0       -3.658244    2.000989    0.402335
      2          6           0       -3.790584    1.002493    1.372908
      3          6           0       -3.239361   -0.265645    1.166690
      4          6           0       -2.559183   -0.501816   -0.026989
      5          6           0       -2.410463    0.472260   -1.013067
      6          6           0       -2.969820    1.733158   -0.785461
      7          1           0       -4.089607    2.983297    0.570837
      8          1           0       -4.324695    1.207658    2.296314
      9          1           0       -3.326932   -1.056956    1.901249
     10          1           0       -1.872464    0.237846   -1.923575
     11          1           0       -2.865483    2.506683   -1.540985
     12          7           0       -1.971322   -1.840505   -0.256624
     13          8           0       -1.376788   -2.023332   -1.316690
     14          8           0       -2.116222   -2.681594    0.627803
     15          6           0        2.198848    2.750776   -0.251664
     16          6           0        1.521119    1.831407   -1.059108
     17          6           0        1.766485    0.460723   -0.934344
     18          6           0        2.700272    0.042433    0.012423
     19          6           0        3.391591    0.933780    0.831489
     20          6           0        3.130279    2.299823    0.689397
     21          1           0        2.002048    3.813754   -0.355315
     22          1           0        0.797223    2.178755   -1.790797
     23          1           0        1.256000   -0.272766   -1.546566
     24          1           0        4.107575    0.557308    1.551943
     25          1           0        3.658099    3.011538    1.317819
     26          7           0        2.968471   -1.406193    0.153677
     27          8           0        3.795892   -1.749194    0.995319
     28          8           0        2.346186   -2.171194   -0.579925
 ---------------------------------------------------------------------

 SCF Done:  E(RHF) =  -868.336066886     A.U. after   16 cycles
 E2 =    -0.2601691961D+01 EUMP2 =    -0.87093775884622D+03

 The electronic state is 1-A.
 Alpha  occ. eigenvalues --  -20.60817 -20.60806 -20.60194 -20.60115 -15.85859
 Alpha  occ. eigenvalues --  -15.85217 -11.31471 -11.30886 -11.28152 -11.28013
 Alpha  occ. eigenvalues --  -11.27838 -11.27525 -11.27442 -11.27373 -11.27194
 Alpha  occ. eigenvalues --  -11.27080 -11.26657 -11.26607  -1.59859  -1.59236
 Alpha  occ. eigenvalues --   -1.39416  -1.38774  -1.19662  -1.19112  -1.09004
 Alpha  occ. eigenvalues --   -1.08463  -1.05115  -1.04563  -0.95802  -0.95233
 Alpha  occ. eigenvalues --   -0.86498  -0.85948  -0.82641  -0.82064  -0.77666
 Alpha  occ. eigenvalues --   -0.77034  -0.72068  -0.71433  -0.71181  -0.70775
 Alpha  occ. eigenvalues --   -0.70572  -0.70215  -0.65320  -0.65126  -0.64760
 Alpha  occ. eigenvalues --   -0.64588  -0.62492  -0.61871  -0.55591  -0.55083
 Alpha  occ. eigenvalues --   -0.53432  -0.53216  -0.52857  -0.52664  -0.48831
 Alpha  occ. eigenvalues --   -0.48815  -0.48229  -0.48156  -0.44760  -0.44098
 Alpha  occ. eigenvalues --   -0.37645  -0.37142  -0.36794  -0.36082
 Alpha virt. eigenvalues --    0.04829   0.05515   0.10881   0.11479   0.16278
 Alpha virt. eigenvalues --    0.16921   0.19946   0.21975   0.25499   0.27354
 Alpha virt. eigenvalues --    0.28155   0.29143   0.30397   0.31385   0.32027

 Mulliken charges:
               1
     1  C   -0.171144
     2  C   -0.217904
     3  C   -0.169980
     4  C    0.160915
     5  C   -0.172741
     6  C   -0.218915
     7  H    0.225259
     8  H    0.224749
     9  H    0.278262
    10  H    0.269439
    11  H    0.219216
    12  N    0.488694
    13  O   -0.458750
    14  O   -0.454070
    15  C   -0.171454
    16  C   -0.217306
    17  C   -0.177472
    18  C    0.157294
    19  C   -0.170710
    20  C   -0.219081
    21  H    0.221673
    22  H    0.213971
    23  H    0.288353
    24  H    0.275621
    25  H    0.221789
    26  N    0.486428
    27  O   -0.464039
    28  O   -0.448094
 Sum of Mulliken charges =  -0.00000

 Dipole moment (field-independent basis, Debye):
    X=             -3.1228    Y=              9.4356    Z=              0.4139  Tot=              9.9476
 Quadrupole moment (field-independent basis, Debye-Ang):
   XX=            -97.7350   YY=           -109.6857   ZZ=            -98.9451
   XY=              3.9040   XZ=             -2.8559   YZ=             -0.9652

 Normal termination of Gaussian 16 at Thu May  6 16:30:10 2021.
