 Gaussian 16, Revision A.03,
 Gaussian 16:  EM64L-G16RevA.03 25-Dec-2016

 -------------
 #p 6-31g* mp2
 -------------

 ------------------------------------------------------
 Input file generated by CHIRIPA (05-May-2021 14:53:15)
 ------------------------------------------------------
 Symbolic Z-matrix:
 Charge =  0 Multiplicity = 1

                         Standard orientation:
 ---------------------------------------------------------------------
 Center     Atomic      Atomic             Coordinates (Angstroms)
 Number     Number       Type             X           Y           Z
 ---------------------------------------------------------------------
      1          6           0        3.642587   -0.129048   -0.021418
      2          6           0        3.002950   -1.513072   -0.136858
      3          6           0        1.480110   -1.473305   -0.005822
      4          1           0        3.367772    0.315442    0.944941
      5          1           0        3.223863    0.526610   -0.797420
      6          1           0        3.423770   -2.166318    0.638253
      7          1           0        3.279477   -1.954399   -1.102974
      8          1           0        1.042492   -0.843968   -0.787504
      9          1           0        1.187606   -1.057092    0.963616
     10          1           0        1.043552   -2.473286   -0.091349
     11          6           0        5.164608   -0.152412   -0.150390
     12          6           0        5.804245    1.231612   -0.034950
     13          6           0        7.327085    1.191845   -0.165987
     14          1           0        5.583333   -0.808070    0.625611
     15          1           0        5.439423   -0.596902   -1.116749
     16          1           0        5.527719    1.672939    0.931166
     17          1           0        5.383425    1.884858   -0.810061
     18          1           0        7.619589    0.775632   -1.135424
     19          1           0        7.764703    0.562508    0.615696
     20          1           0        7.763643    2.191826   -0.080459
     21          6           0       -2.668983   -2.286348    0.236686
     22          6           0       -2.013245   -1.286843    0.962992
     23          6           0       -2.432008    0.044223    0.876698
     24          6           0       -3.514880    0.341610    0.050719
     25          6           0       -4.188713   -0.631768   -0.685334
     26          6           0       -3.752713   -1.956202   -0.583713
     27          1           0       -2.336983   -3.317776    0.309674
     28          1           0       -1.171317   -1.540322    1.600919
     29          1           0       -1.942452    0.837817    1.428024
     30          1           0       -5.024944   -0.348346   -1.312875
     31          1           0       -4.263864   -2.730354   -1.148920
     32          7           0       -3.967329    1.747240   -0.048750
     33          8           0       -4.923910    1.983283   -0.783510
     34          8           0       -3.356810    2.586313    0.609929
 ---------------------------------------------------------------------

 SCF Done:  E(RHF) =  -669.535178490     A.U. after   15 cycles
 E2 =    -0.2091491264D+01 EUMP2 =    -0.67162666975389D+03

 The electronic state is 1-A.
 Alpha  occ. eigenvalues --  -20.60719 -20.60713 -15.85771 -11.31123 -11.27681
 Alpha  occ. eigenvalues --  -11.27665 -11.27415 -11.26708 -11.26650 -11.22151
 Alpha  occ. eigenvalues --  -11.21877 -11.21815 -11.21788 -11.21671 -11.21242
 Alpha  occ. eigenvalues --   -1.59794  -1.39348  -1.19288  -1.08817  -1.08685
 Alpha  occ. eigenvalues --   -1.04690  -1.03948  -0.96421  -0.95524  -0.87460
 Alpha  occ. eigenvalues --   -0.86075  -0.82358  -0.80025  -0.78599  -0.77401
 Alpha  occ. eigenvalues --   -0.71989  -0.71117  -0.70397  -0.65450  -0.64939
 Alpha  occ. eigenvalues --   -0.64699  -0.62068  -0.61325  -0.59803  -0.58012
 Alpha  occ. eigenvalues --   -0.55722  -0.55184  -0.53339  -0.52958  -0.52890
 Alpha  occ. eigenvalues --   -0.52579  -0.50344  -0.48747  -0.48745  -0.48325
 Alpha  occ. eigenvalues --   -0.47033  -0.46148  -0.46051  -0.44757  -0.44199
 Alpha  occ. eigenvalues --   -0.37257  -0.36258
 Alpha virt. eigenvalues --    0.05117   0.11325   0.16585   0.20637   0.22612
 Alpha virt. eigenvalues --    0.23979   0.25742   0.26537   0.27060   0.27872
 Alpha virt. eigenvalues --    0.28860   0.29942   0.31282   0.31656   0.32379

 Mulliken charges:
               1
     1  C   -0.299040
     2  C   -0.300814
     3  C   -0.474801
     4  H    0.149393
     5  H    0.152128
     6  H    0.151561
     7  H    0.153934
     8  H    0.162661
     9  H    0.146980
    10  H    0.154144
    11  C   -0.298589
    12  C   -0.300112
    13  C   -0.475958
    14  H    0.149337
    15  H    0.150245
    16  H    0.152494
    17  H    0.153418
    18  H    0.155418
    19  H    0.155023
    20  H    0.161537
    21  C   -0.172890
    22  C   -0.212764
    23  C   -0.173226
    24  C    0.158409
    25  C   -0.171457
    26  C   -0.218493
    27  H    0.225121
    28  H    0.226277
    29  H    0.275043
    30  H    0.275216
    31  H    0.223006
    32  N    0.488082
    33  O   -0.460698
    34  O   -0.460584
 Sum of Mulliken charges =  -0.00000

 Dipole moment (field-independent basis, Debye):
    X=              1.7204    Y=             -4.9268    Z=              0.2975  Tot=              5.2270
 Quadrupole moment (field-independent basis, Debye-Ang):
   XX=           -104.7407   YY=            -98.5028   ZZ=            -92.1856
   XY=             19.2518   XZ=              1.5542   YZ=              0.8148

 Normal termination of Gaussian 16 at Thu May  6 17:09:25 2021.
