 Gaussian 16, Revision A.03,
 Gaussian 16:  EM64L-G16RevA.03 25-Dec-2016

 -------------
 #p 6-31g* mp2
 -------------

 ------------------------------------------------------
 Input file generated by CHIRIPA (05-May-2021 14:55:22)
 ------------------------------------------------------
 Symbolic Z-matrix:
 Charge =  0 Multiplicity = 1

                         Standard orientation:
 ---------------------------------------------------------------------
 Center     Atomic      Atomic             Coordinates (Angstroms)
 Number     Number       Type             X           Y           Z
 ---------------------------------------------------------------------
      1          6           0        4.551675    2.246077   -0.198809
      2          6           0        4.762161    1.206440   -1.110604
      3          6           0        4.104063   -0.017350   -0.956353
      4          6           0        3.238487   -0.167703    0.125989
      5          6           0        3.007912    0.849143    1.051272
      6          6           0        3.676765    2.064431    0.877322
      7          1           0        5.067079    3.193445   -0.326287
      8          1           0        5.441062    1.344676   -1.947282
      9          1           0        4.248605   -0.838942   -1.647375
     10          1           0        2.325186    0.681495    1.875407
     11          1           0        3.511369    2.870073    1.586991
     12          7           0        2.536096   -1.458774    0.299715
     13          8           0        1.778557   -1.566036    1.261623
     14          8           0        2.756400   -2.339007   -0.529316
     15          6           0       -4.755755    0.525735   -0.295778
     16          6           0       -6.183203    0.339713    0.219755
     17          6           0       -7.096113    1.515172   -0.130506
     18          1           0       -4.339500    1.452431    0.122446
     19          1           0       -4.781591    0.658895   -1.386188
     20          1           0       -6.154561    0.205561    1.308699
     21          1           0       -6.596040   -0.586748   -0.199593
     22          1           0       -7.154420    1.647619   -1.215707
     23          1           0       -6.710433    2.444430    0.301155
     24          1           0       -8.111628    1.361339    0.247545
     25          6           0       -3.831126   -0.641143    0.046545
     26          6           0       -2.403678   -0.455122   -0.468988
     27          6           0       -1.490767   -1.630581   -0.118726
     28          1           0       -3.805289   -0.774304    1.136956
     29          1           0       -4.247380   -1.567840   -0.371678
     30          1           0       -1.990841    0.471340   -0.049640
     31          1           0       -2.432320   -0.320969   -1.557932
     32          1           0       -1.876446   -2.559838   -0.550388
     33          1           0       -1.432459   -1.763028    0.966473
     34          1           0       -0.475252   -1.476747   -0.496778
 ---------------------------------------------------------------------

 SCF Done:  E(RHF) =  -669.535422196     A.U. after   15 cycles
 E2 =    -0.2091327500D+01 EUMP2 =    -0.67162674969595D+03

 The electronic state is 1-A.
 Alpha  occ. eigenvalues --  -20.60871 -20.60854 -15.85890 -11.31253 -11.27820
 Alpha  occ. eigenvalues --  -11.27817 -11.27562 -11.26833 -11.26823 -11.21258
 Alpha  occ. eigenvalues --  -11.20960 -11.20833 -11.20817 -11.20758 -11.19776
 Alpha  occ. eigenvalues --   -1.59932  -1.39484  -1.19424  -1.08823  -1.07888
 Alpha  occ. eigenvalues --   -1.04825  -1.02905  -0.95663  -0.95313  -0.86321
 Alpha  occ. eigenvalues --   -0.86222  -0.82492  -0.78985  -0.77689  -0.77541
 Alpha  occ. eigenvalues --   -0.72115  -0.71273  -0.70532  -0.65078  -0.64828
 Alpha  occ. eigenvalues --   -0.64528  -0.62172  -0.60305  -0.58734  -0.56937
 Alpha  occ. eigenvalues --   -0.55328  -0.54604  -0.53161  -0.52917  -0.51976
 Alpha  occ. eigenvalues --   -0.51743  -0.49274  -0.48875  -0.48849  -0.47290
 Alpha  occ. eigenvalues --   -0.46054  -0.45222  -0.45171  -0.44844  -0.43110
 Alpha  occ. eigenvalues --   -0.37404  -0.36427
 Alpha virt. eigenvalues --    0.04971   0.11226   0.16454   0.21354   0.23357
 Alpha virt. eigenvalues --    0.24931   0.27139   0.27281   0.27974   0.28164
 Alpha virt. eigenvalues --    0.28760   0.30896   0.32006   0.32298   0.32510

 Mulliken charges:
               1
     1  C   -0.170634
     2  C   -0.218546
     3  C   -0.170924
     4  C    0.158071
     5  C   -0.170748
     6  C   -0.218542
     7  H    0.225860
     8  H    0.223703
     9  H    0.275822
    10  H    0.275672
    11  H    0.223652
    12  N    0.486276
    13  O   -0.456947
    14  O   -0.459817
    15  C   -0.297332
    16  C   -0.299226
    17  C   -0.475293
    18  H    0.147168
    19  H    0.148263
    20  H    0.151594
    21  H    0.152047
    22  H    0.154529
    23  H    0.153861
    24  H    0.159351
    25  C   -0.297712
    26  C   -0.301081
    27  C   -0.469493
    28  H    0.149347
    29  H    0.149594
    30  H    0.146047
    31  H    0.147905
    32  H    0.152057
    33  H    0.162085
    34  H    0.163391
 Sum of Mulliken charges =  -0.00000

 Dipole moment (field-independent basis, Debye):
    X=              2.6885    Y=              4.4591    Z=             -0.5470  Tot=              5.2355
 Quadrupole moment (field-independent basis, Debye-Ang):
   XX=            -79.6009   YY=            -96.5156   ZZ=            -91.0996
   XY=             14.6425   XZ=             -3.9249   YZ=              2.8611

 Normal termination of Gaussian 16 at Thu May  6 07:50:37 2021.
