 Gaussian 16, Revision A.03,
 Gaussian 16:  EM64L-G16RevA.03 25-Dec-2016

 -------------
 #p 6-31g* mp2
 -------------

 ------------------------------------------------------
 Input file generated by CHIRIPA (05-May-2021 14:51:08)
 ------------------------------------------------------
 Symbolic Z-matrix:
 Charge =  0 Multiplicity = 1

                         Standard orientation:
 ---------------------------------------------------------------------
 Center     Atomic      Atomic             Coordinates (Angstroms)
 Number     Number       Type             X           Y           Z
 ---------------------------------------------------------------------
      1          6           0       -3.688133    0.230627    0.465754
      2          6           0       -2.286565   -0.184307    0.016952
      3          6           0       -1.181803    0.585707    0.741088
      4          1           0       -3.817202    1.308055    0.294184
      5          1           0       -3.780116    0.073450    1.549373
      6          1           0       -2.197713   -0.027694   -1.065727
      7          1           0       -2.160886   -1.260909    0.189432
      8          1           0       -1.241971    0.420730    1.821719
      9          1           0       -1.279007    1.660952    0.559428
     10          1           0       -0.188160    0.273322    0.405011
     11          6           0       -4.803265   -0.530337   -0.249187
     12          6           0       -6.204833   -0.115403    0.199615
     13          6           0       -7.309595   -0.885416   -0.524521
     14          1           0       -4.711282   -0.373160   -1.332806
     15          1           0       -4.674196   -1.607764   -0.077617
     16          1           0       -6.330513    0.961199    0.027135
     17          1           0       -6.293685   -0.272016    1.282294
     18          1           0       -7.212391   -1.960661   -0.342861
     19          1           0       -7.249427   -0.720440   -1.605152
     20          1           0       -8.303239   -0.573032   -0.188444
     21          6           0        4.199480    0.905524   -0.006992
     22          6           0        2.847416    1.490611   -0.416359
     23          6           0        2.770372    3.003351   -0.207854
     24          1           0        4.389457    1.141694    1.048979
     25          1           0        4.994099    1.397215   -0.585106
     26          1           0        2.055463    0.996987    0.161362
     27          1           0        2.660550    1.252856   -1.471428
     28          1           0        3.539717    3.513086   -0.796818
     29          1           0        2.931193    3.255763    0.845249
     30          1           0        1.795407    3.400690   -0.506895
     31          6           0        4.291918   -0.605814   -0.209574
     32          6           0        5.643982   -1.190901    0.199792
     33          6           0        5.721026   -2.703641   -0.008713
     34          1           0        3.497299   -1.097505    0.368540
     35          1           0        4.101941   -0.841984   -1.265547
     36          1           0        5.830849   -0.953146    1.254860
     37          1           0        6.435935   -0.697277   -0.377929
     38          1           0        5.560205   -2.956054   -1.061816
     39          1           0        4.951681   -3.213376    0.580251
     40          1           0        6.695992   -3.100980    0.290328
 ---------------------------------------------------------------------

 SCF Done:  E(RHF) =  -470.733276172     A.U. after   11 cycles
 E2 =    -0.1582374051D+01 EUMP2 =    -0.47231565022254D+03

 The electronic state is 1-A.
 Alpha  occ. eigenvalues --  -11.21604 -11.21603 -11.21593 -11.21548 -11.21406
 Alpha  occ. eigenvalues --  -11.21389 -11.21347 -11.21327 -11.21072 -11.21065
 Alpha  occ. eigenvalues --  -11.21063 -11.21032  -1.08434  -1.08409  -1.03542
 Alpha  occ. eigenvalues --   -1.03496  -0.95993  -0.95946  -0.87012  -0.86964
 Alpha  occ. eigenvalues --   -0.79643  -0.79529  -0.78251  -0.78219  -0.65063
 Alpha  occ. eigenvalues --   -0.65046  -0.60946  -0.60911  -0.59457  -0.59228
 Alpha  occ. eigenvalues --   -0.57639  -0.57519  -0.55275  -0.55235  -0.52738
 Alpha  occ. eigenvalues --   -0.52622  -0.52431  -0.52355  -0.49923  -0.49893
 Alpha  occ. eigenvalues --   -0.48001  -0.47805  -0.46634  -0.46590  -0.45790
 Alpha  occ. eigenvalues --   -0.45764  -0.45712  -0.45693  -0.43791  -0.43697
 Alpha virt. eigenvalues --    0.22034   0.23005   0.23616   0.24780   0.25990
 Alpha virt. eigenvalues --    0.26632   0.27043   0.27381   0.27898   0.28776
 Alpha virt. eigenvalues --    0.30417   0.31142   0.31657   0.31828   0.32297

 Mulliken charges:
               1
     1  C   -0.298638
     2  C   -0.299014
     3  C   -0.482025
     4  H    0.149645
     5  H    0.149460
     6  H    0.152153
     7  H    0.151830
     8  H    0.154807
     9  H    0.155329
    10  H    0.166524
    11  C   -0.298229
    12  C   -0.299625
    13  C   -0.475701
    14  H    0.149547
    15  H    0.149641
    16  H    0.151949
    17  H    0.151911
    18  H    0.155178
    19  H    0.155191
    20  H    0.160255
    21  C   -0.297574
    22  C   -0.307117
    23  C   -0.475181
    24  H    0.149619
    25  H    0.149399
    26  H    0.159512
    27  H    0.151316
    28  H    0.154848
    29  H    0.155196
    30  H    0.160372
    31  C   -0.298351
    32  C   -0.299608
    33  C   -0.475712
    34  H    0.149043
    35  H    0.149562
    36  H    0.151984
    37  H    0.151970
    38  H    0.155147
    39  H    0.155156
    40  H    0.160231
 Sum of Mulliken charges =  -0.00000

 Dipole moment (field-independent basis, Debye):
    X=             -0.0072    Y=              0.0008    Z=              0.0033  Tot=              0.0079
 Quadrupole moment (field-independent basis, Debye-Ang):
   XX=            -85.6292   YY=            -85.6800   ZZ=            -83.5411
   XY=             -0.1667   XZ=             -0.6677   YZ=             -0.9834

 Normal termination of Gaussian 16 at Thu May  6 03:40:19 2021.
