 Gaussian 16, Revision A.03,
 Gaussian 16:  EM64L-G16RevA.03 25-Dec-2016

 -------------
 #p 6-31g* mp2
 -------------

 ------------------------------------------------------
 Input file generated by CHIRIPA (05-May-2021 14:57:24)
 ------------------------------------------------------
 Symbolic Z-matrix:
 Charge =  0 Multiplicity = 1

                         Standard orientation:
 ---------------------------------------------------------------------
 Center     Atomic      Atomic             Coordinates (Angstroms)
 Number     Number       Type             X           Y           Z
 ---------------------------------------------------------------------
      1          6           0        2.860160    2.540477   -0.501886
      2          6           0        1.936552    1.492626   -0.575894
      3          6           0        2.338886    0.173870   -0.344468
      4          6           0        3.678660   -0.062040   -0.040092
      5          6           0        4.622642    0.960513    0.040980
      6          6           0        4.197899    2.271550   -0.194228
      7          1           0        2.538913    3.561920   -0.683133
      8          1           0        0.897003    1.698516   -0.814626
      9          1           0        1.644832   -0.656265   -0.395288
     10          1           0        5.652142    0.724058    0.281057
     11          1           0        4.917384    3.083341   -0.136075
     12          7           0        4.116455   -1.454062    0.206910
     13          8           0        5.302515   -1.635547    0.473295
     14          8           0        3.265248   -2.337286    0.129449
     15          6           0       -6.066529    0.373824   -0.065151
     16          6           0       -5.296512    0.892652    0.980991
     17          6           0       -3.932582    0.599406    1.071826
     18          6           0       -3.368680   -0.219703    0.094911
     19          6           0       -4.109339   -0.751810   -0.959402
     20          6           0       -5.471534   -0.445306   -1.030307
     21          1           0       -7.125389    0.606775   -0.127972
     22          1           0       -5.755919    1.529076    1.731960
     23          1           0       -3.313052    0.987665    1.871110
     24          1           0       -3.623208   -1.383315   -1.693089
     25          1           0       -6.067086   -0.849638   -1.843866
     26          7           0       -1.925667   -0.537168    0.180524
     27          8           0       -1.452651   -1.261265   -0.692732
     28          8           0       -1.294972   -0.055888    1.119263
 ---------------------------------------------------------------------

 SCF Done:  E(RHF) =  -868.340134356     A.U. after   16 cycles
 E2 =    -0.2599347783D+01 EUMP2 =    -0.87093948213822D+03

 The electronic state is 1-A.
 Alpha  occ. eigenvalues --  -20.61688 -20.61660 -20.59578 -20.59539 -15.86655
 Alpha  occ. eigenvalues --  -15.84608 -11.31783 -11.29844 -11.28321 -11.28304
 Alpha  occ. eigenvalues --  -11.28012 -11.27274 -11.27258 -11.26551 -11.26294
 Alpha  occ. eigenvalues --  -11.26203 -11.25578 -11.25368  -1.60726  -1.58642
 Alpha  occ. eigenvalues --   -1.40276  -1.38193  -1.19930  -1.18053  -1.09373
 Alpha  occ. eigenvalues --   -1.07506  -1.05289  -1.03413  -0.96243  -0.94335
 Alpha  occ. eigenvalues --   -0.86699  -0.84846  -0.83075  -0.81152  -0.78157
 Alpha  occ. eigenvalues --   -0.76184  -0.72856  -0.72028  -0.71028  -0.70835
 Alpha  occ. eigenvalues --   -0.69964  -0.69191  -0.65579  -0.65286  -0.63710
 Alpha  occ. eigenvalues --   -0.63444  -0.62634  -0.60732  -0.55798  -0.54025
 Alpha  occ. eigenvalues --   -0.53637  -0.53373  -0.51800  -0.51515  -0.49642
 Alpha  occ. eigenvalues --   -0.49609  -0.47604  -0.47569  -0.45721  -0.43625
 Alpha  occ. eigenvalues --   -0.37898  -0.36881  -0.36111  -0.35000
 Alpha virt. eigenvalues --    0.04337   0.06317   0.10777   0.12623   0.15885
 Alpha virt. eigenvalues --    0.17789   0.20950   0.22653   0.26892   0.27784
 Alpha virt. eigenvalues --    0.28524   0.29603   0.30626   0.31977   0.32154

 Mulliken charges:
               1
     1  C   -0.172169
     2  C   -0.217372
     3  C   -0.170415
     4  C    0.155472
     5  C   -0.172164
     6  C   -0.220222
     7  H    0.219275
     8  H    0.222264
     9  H    0.296164
    10  H    0.271185
    11  H    0.217657
    12  N    0.487597
    13  O   -0.466957
    14  O   -0.456316
    15  C   -0.169816
    16  C   -0.218682
    17  C   -0.171170
    18  C    0.157276
    19  C   -0.170551
    20  C   -0.218647
    21  H    0.227723
    22  H    0.225158
    23  H    0.276133
    24  H    0.277400
    25  H    0.225710
    26  N    0.486954
    27  O   -0.460330
    28  O   -0.461157
 Sum of Mulliken charges =  -0.00000

 Dipole moment (field-independent basis, Debye):
    X=             -7.2822    Y=              5.8177    Z=             -1.1595  Tot=              9.3925
 Quadrupole moment (field-independent basis, Debye-Ang):
   XX=            -78.9624   YY=           -105.5471   ZZ=           -102.2968
   XY=             16.9504   XZ=             -1.3475   YZ=              3.1843

 Normal termination of Gaussian 16 at Wed May  5 16:21:45 2021.
