 Gaussian 16, Revision A.03,
 Gaussian 16:  EM64L-G16RevA.03 25-Dec-2016

 -------------
 #p 6-31g* mp2
 -------------

 ------------------------------------------------------
 Input file generated by CHIRIPA (05-May-2021 14:51:08)
 ------------------------------------------------------
 Symbolic Z-matrix:
 Charge =  0 Multiplicity = 1

                         Standard orientation:
 ---------------------------------------------------------------------
 Center     Atomic      Atomic             Coordinates (Angstroms)
 Number     Number       Type             X           Y           Z
 ---------------------------------------------------------------------
      1          6           0       -3.997181    0.834718    0.224297
      2          6           0       -2.953951    1.750609   -0.416639
      3          6           0       -3.013140    3.180882    0.120585
      4          1           0       -4.998469    1.252050    0.050513
      5          1           0       -3.847184    0.825040    1.312783
      6          1           0       -3.105000    1.757472   -1.503724
      7          1           0       -1.955042    1.330948   -0.241474
      8          1           0       -2.840444    3.193810    1.201607
      9          1           0       -3.996936    3.622757   -0.067814
     10          1           0       -2.258904    3.818444   -0.351117
     11          6           0       -3.950515   -0.598471   -0.302503
     12          6           0       -4.993745   -1.514362    0.338433
     13          6           0       -4.934555   -2.944635   -0.198791
     14          1           0       -4.100512   -0.588793   -1.390989
     15          1           0       -2.949226   -1.015802   -0.128719
     16          1           0       -5.992653   -1.094701    0.163268
     17          1           0       -4.842695   -1.521224    1.425518
     18          1           0       -3.950760   -3.386510   -0.010392
     19          1           0       -5.107252   -2.957563   -1.279813
     20          1           0       -5.688792   -3.582196    0.272911
     21          6           0        3.319613    0.122946   -0.272817
     22          6           0        2.102633   -0.094159    0.627077
     23          6           0        0.801304    0.393177   -0.010763
     24          1           0        3.404701    1.191794   -0.512129
     25          1           0        3.159601   -0.399087   -1.226375
     26          1           0        2.265490    0.426982    1.579184
     27          1           0        2.020543   -1.162588    0.864432
     28          1           0        0.611811   -0.134745   -0.950971
     29          1           0        0.858150    1.463856   -0.232159
     30          1           0       -0.055796    0.228326    0.649587
     31          6           0        4.628082   -0.359194    0.351023
     32          6           0        5.845063   -0.142089   -0.548871
     33          6           0        7.146391   -0.629424    0.088969
     34          1           0        4.788095    0.162839    1.304581
     35          1           0        4.542994   -1.428042    0.590336
     36          1           0        5.927153    0.926341   -0.786225
     37          1           0        5.682205   -0.663228   -1.500977
     38          1           0        7.089545   -1.700103    0.310364
     39          1           0        7.335884   -0.101503    1.029178
     40          1           0        8.003492   -0.464573   -0.571381
 ---------------------------------------------------------------------

 SCF Done:  E(RHF) =  -470.732944920     A.U. after   11 cycles
 E2 =    -0.1582818920D+01 EUMP2 =    -0.47231576383959D+03

 The electronic state is 1-A.
 Alpha  occ. eigenvalues --  -11.21657 -11.21624 -11.21564 -11.21442 -11.21409
 Alpha  occ. eigenvalues --  -11.21381 -11.21338 -11.21273 -11.21158 -11.21089
 Alpha  occ. eigenvalues --  -11.21046 -11.20983  -1.08472  -1.08355  -1.03585
 Alpha  occ. eigenvalues --   -1.03447  -0.96038  -0.95911  -0.87073  -0.86918
 Alpha  occ. eigenvalues --   -0.79708  -0.79464  -0.78291  -0.78149  -0.65099
 Alpha  occ. eigenvalues --   -0.65003  -0.60986  -0.60875  -0.59435  -0.59238
 Alpha  occ. eigenvalues --   -0.57640  -0.57521  -0.55328  -0.55192  -0.52815
 Alpha  occ. eigenvalues --   -0.52584  -0.52454  -0.52326  -0.49975  -0.49844
 Alpha  occ. eigenvalues --   -0.47963  -0.47824  -0.46684  -0.46534  -0.45856
 Alpha  occ. eigenvalues --   -0.45746  -0.45693  -0.45632  -0.43760  -0.43680
 Alpha virt. eigenvalues --    0.21608   0.22992   0.23986   0.24712   0.25956
 Alpha virt. eigenvalues --    0.26592   0.27116   0.27378   0.27898   0.29038
 Alpha virt. eigenvalues --    0.30969   0.31181   0.31511   0.31805   0.32234

 Mulliken charges:
               1
     1  C   -0.297606
     2  C   -0.311521
     3  C   -0.474894
     4  H    0.149236
     5  H    0.148454
     6  H    0.150931
     7  H    0.167312
     8  H    0.154355
     9  H    0.154654
    10  H    0.159529
    11  C   -0.299127
    12  C   -0.299532
    13  C   -0.475638
    14  H    0.149481
    15  H    0.149980
    16  H    0.151945
    17  H    0.151679
    18  H    0.155002
    19  H    0.155114
    20  H    0.160099
    21  C   -0.298729
    22  C   -0.300139
    23  C   -0.478084
    24  H    0.149823
    25  H    0.149700
    26  H    0.152148
    27  H    0.151983
    28  H    0.156611
    29  H    0.156354
    30  H    0.160541
    31  C   -0.298360
    32  C   -0.299646
    33  C   -0.475726
    34  H    0.149589
    35  H    0.149700
    36  H    0.152007
    37  H    0.152001
    38  H    0.155209
    39  H    0.155214
    40  H    0.160351
 Sum of Mulliken charges =  -0.00000

 Dipole moment (field-independent basis, Debye):
    X=              0.0677    Y=             -0.0107    Z=             -0.0104  Tot=              0.0694
 Quadrupole moment (field-independent basis, Debye-Ang):
   XX=            -85.5870   YY=            -85.2148   ZZ=            -84.2836
   XY=              0.2695   XZ=              0.2115   YZ=              0.0002

 Normal termination of Gaussian 16 at Wed May  5 19:40:52 2021.
