 Gaussian 16, Revision A.03,
 Gaussian 16:  EM64L-G16RevA.03 25-Dec-2016

 -------------
 #p 6-31g* mp2
 -------------

 ------------------------------------------------------
 Input file generated by CHIRIPA (05-May-2021 14:53:12)
 ------------------------------------------------------
 Symbolic Z-matrix:
 Charge =  0 Multiplicity = 1

                         Standard orientation:
 ---------------------------------------------------------------------
 Center     Atomic      Atomic             Coordinates (Angstroms)
 Number     Number       Type             X           Y           Z
 ---------------------------------------------------------------------
      1          6           0       -2.691728    1.132321   -0.343305
      2          6           0       -3.049669    2.316071    0.555918
      3          6           0       -2.523631    3.647206    0.018186
      4          1           0       -1.599782    1.079675   -0.452051
      5          1           0       -3.097848    1.308793   -1.348948
      6          1           0       -2.644182    2.136779    1.559935
      7          1           0       -4.140881    2.365790    0.662692
      8          1           0       -2.938016    3.852594   -0.974135
      9          1           0       -1.432813    3.622282   -0.071794
     10          1           0       -2.790813    4.479818    0.676389
     11          6           0       -3.210714   -0.205404    0.180980
     12          6           0       -2.852773   -1.389153   -0.718242
     13          6           0       -3.378811   -2.720288   -0.180510
     14          1           0       -2.804594   -0.381875    1.186624
     15          1           0       -4.302660   -0.152757    0.289727
     16          1           0       -1.761561   -1.438872   -0.825016
     17          1           0       -3.258260   -1.209861   -1.722259
     18          1           0       -4.469629   -2.695364   -0.090530
     19          1           0       -2.964426   -2.925676    0.811811
     20          1           0       -3.111629   -3.552900   -0.838713
     21          6           0        3.758718    1.641528   -0.426550
     22          6           0        3.428496    1.322630    0.894729
     23          6           0        2.624090    0.214810    1.177953
     24          6           0        2.165163   -0.555779    0.110775
     25          6           0        2.476810   -0.263846   -1.216230
     26          6           0        3.282661    0.848669   -1.475962
     27          1           0        4.384161    2.503933   -0.637441
     28          1           0        3.796786    1.936584    1.711717
     29          1           0        2.353123   -0.054828    2.191506
     30          1           0        2.094690   -0.894729   -2.009571
     31          1           0        3.537510    1.093944   -2.503064
     32          7           0        1.312810   -1.731063    0.398177
     33          8           0        0.921150   -2.394028   -0.559799
     34          8           0        1.052534   -1.967032    1.575977
 ---------------------------------------------------------------------

 SCF Done:  E(RHF) =  -669.536397646     A.U. after   15 cycles
 E2 =    -0.2091718445D+01 EUMP2 =    -0.67162811609121D+03

 The electronic state is 1-A.
 Alpha  occ. eigenvalues --  -20.61021 -20.61010 -15.86035 -11.31341 -11.27896
 Alpha  occ. eigenvalues --  -11.27892 -11.27625 -11.26893 -11.26883 -11.21310
 Alpha  occ. eigenvalues --  -11.20952 -11.20943 -11.20610 -11.20458 -11.19866
 Alpha  occ. eigenvalues --   -1.60073  -1.39629  -1.19502  -1.08910  -1.07808
 Alpha  occ. eigenvalues --   -1.04892  -1.02840  -0.95754  -0.95319  -0.86343
 Alpha  occ. eigenvalues --   -0.86293  -0.82587  -0.78967  -0.77651  -0.77551
 Alpha  occ. eigenvalues --   -0.72255  -0.71391  -0.70606  -0.65155  -0.64892
 Alpha  occ. eigenvalues --   -0.64438  -0.62238  -0.60224  -0.58746  -0.56902
 Alpha  occ. eigenvalues --   -0.55395  -0.54616  -0.53224  -0.52981  -0.52014
 Alpha  occ. eigenvalues --   -0.51745  -0.49277  -0.49024  -0.49015  -0.47274
 Alpha  occ. eigenvalues --   -0.46053  -0.45370  -0.45075  -0.44590  -0.43111
 Alpha  occ. eigenvalues --   -0.37477  -0.36491
 Alpha virt. eigenvalues --    0.04848   0.11160   0.16322   0.21297   0.23318
 Alpha virt. eigenvalues --    0.25037   0.27054   0.27246   0.27955   0.28300
 Alpha virt. eigenvalues --    0.28624   0.30860   0.32027   0.32177   0.32577

 Mulliken charges:
               1
     1  C   -0.296543
     2  C   -0.298950
     3  C   -0.475147
     4  H    0.144819
     5  H    0.147716
     6  H    0.151599
     7  H    0.152101
     8  H    0.154491
     9  H    0.152175
    10  H    0.158605
    11  C   -0.299631
    12  C   -0.305841
    13  C   -0.473835
    14  H    0.152927
    15  H    0.146588
    16  H    0.166301
    17  H    0.145048
    18  H    0.147508
    19  H    0.162209
    20  H    0.162127
    21  C   -0.170451
    22  C   -0.218607
    23  C   -0.170992
    24  C    0.158025
    25  C   -0.170892
    26  C   -0.218467
    27  H    0.226327
    28  H    0.224071
    29  H    0.275843
    30  H    0.276296
    31  H    0.224220
    32  N    0.487297
    33  O   -0.458082
    34  O   -0.458852
 Sum of Mulliken charges =  -0.00000

 Dipole moment (field-independent basis, Debye):
    X=              3.2287    Y=              3.9991    Z=             -0.9688  Tot=              5.2303
 Quadrupole moment (field-independent basis, Debye-Ang):
   XX=            -82.3434   YY=           -101.0008   ZZ=            -89.9872
   XY=              7.3413   XZ=             -1.2239   YZ=              2.2596

 Normal termination of Gaussian 16 at Thu May  6 10:26:30 2021.
