 Gaussian 16, Revision A.03,
 Gaussian 16:  EM64L-G16RevA.03 25-Dec-2016

 -------------
 #p 6-31g* mp2
 -------------

 ------------------------------------------------------
 Input file generated by CHIRIPA (05-May-2021 14:53:18)
 ------------------------------------------------------
 Symbolic Z-matrix:
 Charge =  0 Multiplicity = 1

                         Standard orientation:
 ---------------------------------------------------------------------
 Center     Atomic      Atomic             Coordinates (Angstroms)
 Number     Number       Type             X           Y           Z
 ---------------------------------------------------------------------
      1          6           0        3.048133    0.924911    0.201023
      2          6           0        3.473634    2.143694   -0.618430
      3          6           0        3.209674    3.464276    0.105575
      4          1           0        1.978852    1.006565    0.439593
      5          1           0        3.583833    0.931621    1.160385
      6          1           0        2.938323    2.133940   -1.576534
      7          1           0        4.541983    2.059035   -0.855240
      8          1           0        3.756250    3.499852    1.053515
      9          1           0        2.143478    3.575182    0.328123
     10          1           0        3.521286    4.322358   -0.498124
     11          6           0        3.305678   -0.402727   -0.509452
     12          6           0        2.880176   -1.621510    0.310001
     13          6           0        3.144136   -2.942091   -0.414004
     14          1           0        2.769978   -0.409437   -1.468814
     15          1           0        4.374959   -0.484380   -0.748022
     16          1           0        1.811827   -1.536851    0.546811
     17          1           0        3.415487   -1.611756    1.268105
     18          1           0        4.210332   -3.052998   -0.636552
     19          1           0        2.597561   -2.977667   -1.361944
     20          1           0        2.832525   -3.800174    0.189695
     21          6           0       -0.915425   -2.122828    0.599973
     22          6           0       -1.847267   -2.222628   -0.438406
     23          6           0       -2.720186   -1.165687   -0.713057
     24          6           0       -2.633403   -0.018471    0.074124
     25          6           0       -1.715882    0.111170    1.115583
     26          6           0       -0.852817   -0.958301    1.372292
     27          1           0       -0.241148   -2.948753    0.806359
     28          1           0       -1.898146   -3.125811   -1.039836
     29          1           0       -3.451201   -1.216295   -1.510850
     30          1           0       -1.688947    1.024207    1.697868
     31          1           0       -0.130144   -0.878000    2.179349
     32          7           0       -3.552309    1.107098   -0.207139
     33          8           0       -3.455773    2.107074    0.500933
     34          8           0       -4.351681    0.968030   -1.130340
 ---------------------------------------------------------------------

 SCF Done:  E(RHF) =  -669.534653585     A.U. after   15 cycles
 E2 =    -0.2093513308D+01 EUMP2 =    -0.67162816689367D+03

 The electronic state is 1-A.
 Alpha  occ. eigenvalues --  -20.60831 -20.60826 -15.85886 -11.31276 -11.27852
 Alpha  occ. eigenvalues --  -11.27848 -11.27567 -11.26856 -11.26845 -11.22306
 Alpha  occ. eigenvalues --  -11.21926 -11.21918 -11.21882 -11.21800 -11.21250
 Alpha  occ. eigenvalues --   -1.59906  -1.39459  -1.19460  -1.08970  -1.08821
 Alpha  occ. eigenvalues --   -1.04863  -1.04048  -0.96492  -0.95677  -0.87507
 Alpha  occ. eigenvalues --   -0.86262  -0.82503  -0.80144  -0.78749  -0.77541
 Alpha  occ. eigenvalues --   -0.72103  -0.71231  -0.70577  -0.65616  -0.65102
 Alpha  occ. eigenvalues --   -0.64832  -0.62208  -0.61437  -0.59900  -0.58107
 Alpha  occ. eigenvalues --   -0.55796  -0.55301  -0.53280  -0.53146  -0.52944
 Alpha  occ. eigenvalues --   -0.52906  -0.50425  -0.48866  -0.48857  -0.48442
 Alpha  occ. eigenvalues --   -0.47165  -0.46284  -0.46177  -0.44859  -0.44288
 Alpha  occ. eigenvalues --   -0.37355  -0.36436
 Alpha virt. eigenvalues --    0.04943   0.11056   0.16336   0.20389   0.22785
 Alpha virt. eigenvalues --    0.23661   0.25827   0.26333   0.26558   0.28548
 Alpha virt. eigenvalues --    0.28982   0.30498   0.30995   0.31518   0.32179

 Mulliken charges:
               1
     1  C   -0.300559
     2  C   -0.300095
     3  C   -0.476460
     4  H    0.148883
     5  H    0.148108
     6  H    0.154230
     7  H    0.152326
     8  H    0.154289
     9  H    0.157131
    10  H    0.162526
    11  C   -0.296558
    12  C   -0.309739
    13  C   -0.477134
    14  H    0.151954
    15  H    0.151229
    16  H    0.153067
    17  H    0.150963
    18  H    0.160288
    19  H    0.155993
    20  H    0.154056
    21  C   -0.171281
    22  C   -0.220325
    23  C   -0.170765
    24  C    0.158336
    25  C   -0.173024
    26  C   -0.217868
    27  H    0.229753
    28  H    0.224191
    29  H    0.276014
    30  H    0.276175
    31  H    0.226546
    32  N    0.488087
    33  O   -0.460174
    34  O   -0.460163
 Sum of Mulliken charges =  -0.00000

 Dipole moment (field-independent basis, Debye):
    X=              3.2236    Y=             -3.8982    Z=              0.9221  Tot=              5.1418
 Quadrupole moment (field-independent basis, Debye-Ang):
   XX=           -110.6516   YY=            -94.7604   ZZ=            -92.1287
   XY=             12.0200   XZ=             -0.3980   YZ=              1.5524

 Normal termination of Gaussian 16 at Wed May  5 22:04:34 2021.
