 Gaussian 16, Revision A.03,
 Gaussian 16:  EM64L-G16RevA.03 25-Dec-2016

 -------------
 #p 6-31g* mp2
 -------------

 ------------------------------------------------------
 Input file generated by CHIRIPA (05-May-2021 14:53:18)
 ------------------------------------------------------
 Symbolic Z-matrix:
 Charge =  0 Multiplicity = 1

                         Standard orientation:
 ---------------------------------------------------------------------
 Center     Atomic      Atomic             Coordinates (Angstroms)
 Number     Number       Type             X           Y           Z
 ---------------------------------------------------------------------
      1          6           0        3.319734    0.691497   -0.007605
      2          6           0        3.474452    1.774470    1.060672
      3          6           0        2.588949    2.993265    0.799486
      4          1           0        3.561287    1.118073   -0.990779
      5          1           0        2.267426    0.378433   -0.052708
      6          1           0        4.526408    2.084415    1.104706
      7          1           0        3.232687    1.345217    2.041441
      8          1           0        1.533165    2.704503    0.776277
      9          1           0        2.834237    3.447901   -0.165781
     10          1           0        2.715365    3.754977    1.575162
     11          6           0        4.198601   -0.533320    0.239664
     12          6           0        4.043883   -1.616293   -0.828614
     13          6           0        4.929386   -2.835088   -0.567428
     14          1           0        5.250909   -0.220256    0.284766
     15          1           0        3.957048   -0.959896    1.222837
     16          1           0        4.285648   -1.187040   -1.809383
     17          1           0        2.991927   -1.926238   -0.872648
     18          1           0        4.684098   -3.289724    0.397839
     19          1           0        5.985169   -2.546326   -0.544218
     20          1           0        4.802970   -3.596800   -1.343104
     21          6           0       -1.848069    2.056866   -0.922383
     22          6           0       -3.241869    1.971159   -0.841796
     23          6           0       -3.855965    0.802220   -0.382432
     24          6           0       -3.042109   -0.266612   -0.010238
     25          6           0       -1.650867   -0.211911   -0.079119
     26          6           0       -1.058408    0.966979   -0.541459
     27          1           0       -1.379428    2.968791   -1.280385
     28          1           0       -3.857637    2.816003   -1.136948
     29          1           0       -4.932737    0.708787   -0.309975
     30          1           0       -1.063449   -1.070709    0.222249
     31          1           0        0.024273    1.030702   -0.602989
     32          7           0       -3.680771   -1.509382    0.477645
     33          8           0       -2.941468   -2.436995    0.799515
     34          8           0       -4.908566   -1.532320    0.528940
 ---------------------------------------------------------------------

 SCF Done:  E(RHF) =  -669.535464582     A.U. after   15 cycles
 E2 =    -0.2091737634D+01 EUMP2 =    -0.67162720221567D+03

 The electronic state is 1-A.
 Alpha  occ. eigenvalues --  -20.60749 -20.60744 -15.85802 -11.31163 -11.27732
 Alpha  occ. eigenvalues --  -11.27728 -11.27461 -11.26739 -11.26691 -11.22426
 Alpha  occ. eigenvalues --  -11.22342 -11.22131 -11.22021 -11.22015 -11.21422
 Alpha  occ. eigenvalues --   -1.59825  -1.39378  -1.19332  -1.09183  -1.08724
 Alpha  occ. eigenvalues --   -1.04736  -1.04212  -0.96680  -0.95562  -0.87693
 Alpha  occ. eigenvalues --   -0.86135  -0.82399  -0.80294  -0.79006  -0.77442
 Alpha  occ. eigenvalues --   -0.72021  -0.71148  -0.70436  -0.65863  -0.64982
 Alpha  occ. eigenvalues --   -0.64720  -0.62127  -0.61557  -0.60047  -0.58286
 Alpha  occ. eigenvalues --   -0.55985  -0.55228  -0.53336  -0.53138  -0.53037
 Alpha  occ. eigenvalues --   -0.52848  -0.50625  -0.48800  -0.48776  -0.48576
 Alpha  occ. eigenvalues --   -0.47311  -0.46510  -0.46429  -0.44785  -0.44485
 Alpha  occ. eigenvalues --   -0.37306  -0.36334
 Alpha virt. eigenvalues --    0.05090   0.11217   0.16573   0.19352   0.22670
 Alpha virt. eigenvalues --    0.23680   0.24865   0.26477   0.26566   0.28611
 Alpha virt. eigenvalues --    0.29520   0.30100   0.31051   0.31206   0.31579

 Mulliken charges:
               1
     1  C   -0.303181
     2  C   -0.299967
     3  C   -0.480094
     4  H    0.150784
     5  H    0.141969
     6  H    0.156073
     7  H    0.155806
     8  H    0.150185
     9  H    0.154554
    10  H    0.165541
    11  C   -0.298549
    12  C   -0.299959
    13  C   -0.476319
    14  H    0.152479
    15  H    0.152641
    16  H    0.152246
    17  H    0.150411
    18  H    0.157434
    19  H    0.155905
    20  H    0.162722
    21  C   -0.172877
    22  C   -0.218439
    23  C   -0.171064
    24  C    0.158682
    25  C   -0.173602
    26  C   -0.227845
    27  H    0.226983
    28  H    0.223347
    29  H    0.275539
    30  H    0.274548
    31  H    0.237068
    32  N    0.488132
    33  O   -0.460623
    34  O   -0.460531
 Sum of Mulliken charges =  -0.00000

 Dipole moment (field-independent basis, Debye):
    X=              2.4692    Y=              4.3601    Z=             -1.6757  Tot=              5.2835
 Quadrupole moment (field-independent basis, Debye-Ang):
   XX=           -103.2391   YY=            -97.2352   ZZ=            -95.1019
   XY=            -15.4402   XZ=              5.6792   YZ=             -0.0250

 Normal termination of Gaussian 16 at Thu May  6 17:21:23 2021.
