 Gaussian 16, Revision A.03,
 Gaussian 16:  EM64L-G16RevA.03 25-Dec-2016

 -------------
 #p 6-31g* mp2
 -------------

 ------------------------------------------------------
 Input file generated by CHIRIPA (05-May-2021 14:53:15)
 ------------------------------------------------------
 Symbolic Z-matrix:
 Charge =  0 Multiplicity = 1

                         Standard orientation:
 ---------------------------------------------------------------------
 Center     Atomic      Atomic             Coordinates (Angstroms)
 Number     Number       Type             X           Y           Z
 ---------------------------------------------------------------------
      1          6           0       -4.046446   -0.294023    0.176317
      2          6           0       -4.749767   -1.410895   -0.595643
      3          6           0       -5.528033   -2.360176    0.315928
      4          1           0       -3.363642   -0.739624    0.912635
      5          1           0       -4.793710    0.274572    0.747009
      6          1           0       -4.001570   -1.976354   -1.165796
      7          1           0       -5.430833   -0.962582   -1.330340
      8          1           0       -6.295367   -1.814838    0.874862
      9          1           0       -4.857983   -2.834370    1.040341
     10          1           0       -6.022936   -3.150839   -0.256594
     11          6           0       -3.264195    0.663146   -0.721257
     12          6           0       -2.560874    1.780017    0.050703
     13          6           0       -1.782608    2.729298   -0.860868
     14          1           0       -2.516931    0.094550   -1.291949
     15          1           0       -3.946999    1.108746   -1.457575
     16          1           0       -1.879808    1.331705    0.785400
     17          1           0       -3.309071    2.345476    0.620856
     18          1           0       -2.452658    3.203492   -1.585281
     19          1           0       -1.015274    2.183961   -1.419802
     20          1           0       -1.287705    3.519962   -0.288346
     21          6           0        1.053903    1.312453    1.211655
     22          6           0        2.116865    1.894016    0.512786
     23          6           0        3.120804    1.096680   -0.044807
     24          6           0        3.029912   -0.285011    0.116308
     25          6           0        1.983509   -0.894239    0.807084
     26          6           0        0.990729   -0.077368    1.356319
     27          1           0        0.278353    1.939430    1.641561
     28          1           0        2.168512    2.973089    0.398869
     29          1           0        3.954877    1.520611   -0.590721
     30          1           0        1.959264   -1.972859    0.904094
     31          1           0        0.166389   -0.531774    1.898559
     32          7           0        4.086831   -1.139455   -0.469566
     33          8           0        3.983758   -2.354241   -0.313650
     34          8           0        4.998303   -0.578204   -1.073596
 ---------------------------------------------------------------------

 SCF Done:  E(RHF) =  -669.534976977     A.U. after   15 cycles
 E2 =    -0.2092707175D+01 EUMP2 =    -0.67162768415189D+03

 The electronic state is 1-A.
 Alpha  occ. eigenvalues --  -20.60781 -20.60776 -15.85836 -11.31206 -11.27789
 Alpha  occ. eigenvalues --  -11.27779 -11.27494 -11.26797 -11.26775 -11.22529
 Alpha  occ. eigenvalues --  -11.22125 -11.22089 -11.22029 -11.21934 -11.21518
 Alpha  occ. eigenvalues --   -1.59857  -1.39410  -1.19387  -1.09142  -1.08772
 Alpha  occ. eigenvalues --   -1.04790  -1.04229  -0.96667  -0.95606  -0.87677
 Alpha  occ. eigenvalues --   -0.86186  -0.82445  -0.80311  -0.78939  -0.77488
 Alpha  occ. eigenvalues --   -0.72054  -0.71181  -0.70529  -0.65782  -0.65035
 Alpha  occ. eigenvalues --   -0.64782  -0.62138  -0.61622  -0.60066  -0.58293
 Alpha  occ. eigenvalues --   -0.55983  -0.55208  -0.53379  -0.53101  -0.53057
 Alpha  occ. eigenvalues --   -0.52878  -0.50587  -0.48813  -0.48809  -0.48615
 Alpha  occ. eigenvalues --   -0.47333  -0.46485  -0.46377  -0.44815  -0.44483
 Alpha  occ. eigenvalues --   -0.37318  -0.36394
 Alpha virt. eigenvalues --    0.05027   0.11162   0.16461   0.19746   0.22509
 Alpha virt. eigenvalues --    0.23820   0.24935   0.26225   0.26475   0.28395
 Alpha virt. eigenvalues --    0.28961   0.30511   0.30612   0.31113   0.32046

 Mulliken charges:
               1
     1  C   -0.297538
     2  C   -0.300492
     3  C   -0.475916
     4  H    0.143994
     5  H    0.150526
     6  H    0.153736
     7  H    0.153778
     8  H    0.155638
     9  H    0.154282
    10  H    0.162692
    11  C   -0.299033
    12  C   -0.301678
    13  C   -0.477607
    14  H    0.153261
    15  H    0.152730
    16  H    0.141874
    17  H    0.153471
    18  H    0.159845
    19  H    0.162125
    20  H    0.151528
    21  C   -0.167693
    22  C   -0.219978
    23  C   -0.171166
    24  C    0.158158
    25  C   -0.171224
    26  C   -0.220323
    27  H    0.229011
    28  H    0.223965
    29  H    0.275775
    30  H    0.275598
    31  H    0.223379
    32  N    0.488123
    33  O   -0.460509
    34  O   -0.460332
 Sum of Mulliken charges =  -0.00000

 Dipole moment (field-independent basis, Debye):
    X=             -3.8282    Y=              2.9911    Z=              1.9473  Tot=              5.2339
 Quadrupole moment (field-independent basis, Debye-Ang):
   XX=           -116.0056   YY=            -93.6560   ZZ=            -94.6023
   XY=             11.6404   XZ=              5.6430   YZ=             -1.6144

 Normal termination of Gaussian 16 at Thu May  6 15:30:20 2021.
