 Gaussian 16, Revision A.03,
 Gaussian 16:  EM64L-G16RevA.03 25-Dec-2016

 -------------
 #p 6-31g* mp2
 -------------

 ------------------------------------------------------
 Input file generated by CHIRIPA (05-May-2021 14:51:08)
 ------------------------------------------------------
 Symbolic Z-matrix:
 Charge =  0 Multiplicity = 1

                         Standard orientation:
 ---------------------------------------------------------------------
 Center     Atomic      Atomic             Coordinates (Angstroms)
 Number     Number       Type             X           Y           Z
 ---------------------------------------------------------------------
      1          6           0       -2.887292    1.000124   -0.505409
      2          6           0       -2.509090    2.111603    0.474163
      3          6           0       -1.773799    3.269721   -0.201044
      4          1           0       -1.977240    0.624204   -0.992681
      5          1           0       -3.516962    1.421093   -1.301459
      6          1           0       -1.881462    1.688383    1.268885
      7          1           0       -3.420128    2.484789    0.959300
      8          1           0       -2.396651    3.718795   -0.981422
      9          1           0       -0.849242    2.917864   -0.670077
     10          1           0       -1.512931    4.053024    0.517458
     11          6           0       -3.622999   -0.164682    0.154661
     12          6           0       -4.001201   -1.276161   -0.824911
     13          6           0       -4.736492   -2.434279   -0.149704
     14          1           0       -2.993329   -0.585651    0.950711
     15          1           0       -4.533052    0.211238    0.641933
     16          1           0       -3.090163   -1.649347   -1.310048
     17          1           0       -4.628829   -0.852941   -1.619633
     18          1           0       -5.661049   -2.082422    0.319329
     19          1           0       -4.113640   -2.883353    0.630674
     20          1           0       -4.997360   -3.217582   -0.868206
     21          6           0        3.905833   -0.667652   -0.136993
     22          6           0        5.035253    0.362043   -0.090930
     23          6           0        6.330477   -0.152666   -0.719629
     24          1           0        4.229223   -1.580627    0.381505
     25          1           0        3.719808   -0.951025   -1.182214
     26          1           0        5.218155    0.644421    0.953782
     27          1           0        4.709065    1.272744   -0.609432
     28          1           0        6.170490   -0.416615   -1.770027
     29          1           0        6.682472   -1.048508   -0.197930
     30          1           0        7.124458    0.599362   -0.675930
     31          6           0        2.604458   -0.167790    0.487740
     32          6           0        1.475038   -1.197485    0.441679
     33          6           0        0.179814   -0.682776    1.070376
     34          1           0        2.790483    0.115583    1.532963
     35          1           0        2.281068    0.745185   -0.030757
     36          1           0        1.801226   -2.108186    0.960179
     37          1           0        1.292136   -1.479863   -0.603035
     38          1           0       -0.172180    0.213066    0.548678
     39          1           0        0.339802   -0.418827    2.120775
     40          1           0       -0.614166   -1.434804    1.026679
 ---------------------------------------------------------------------

 SCF Done:  E(RHF) =  -470.731895853     A.U. after   11 cycles
 E2 =    -0.1584515555D+01 EUMP2 =    -0.47231641140791D+03

 The electronic state is 1-A.
 Alpha  occ. eigenvalues --  -11.21668 -11.21629 -11.21560 -11.21513 -11.21456
 Alpha  occ. eigenvalues --  -11.21393 -11.21321 -11.21255 -11.21120 -11.21092
 Alpha  occ. eigenvalues --  -11.21073 -11.21052  -1.08497  -1.08367  -1.03599
 Alpha  occ. eigenvalues --   -1.03485  -0.96065  -0.95923  -0.87085  -0.86950
 Alpha  occ. eigenvalues --   -0.79669  -0.79551  -0.78299  -0.78182  -0.65304
 Alpha  occ. eigenvalues --   -0.64914  -0.61177  -0.60763  -0.59402  -0.59312
 Alpha  occ. eigenvalues --   -0.57652  -0.57537  -0.55428  -0.55130  -0.52743
 Alpha  occ. eigenvalues --   -0.52645  -0.52475  -0.52349  -0.50133  -0.49724
 Alpha  occ. eigenvalues --   -0.48068  -0.47761  -0.46685  -0.46574  -0.45900
 Alpha  occ. eigenvalues --   -0.45781  -0.45653  -0.45577  -0.43803  -0.43722
 Alpha virt. eigenvalues --    0.20559   0.22896   0.23407   0.24792   0.25957
 Alpha virt. eigenvalues --    0.26384   0.27283   0.27517   0.28078   0.29773
 Alpha virt. eigenvalues --    0.30237   0.30938   0.31714   0.31804   0.32608

 Mulliken charges:
               1
     1  C   -0.300144
     2  C   -0.305437
     3  C   -0.476015
     4  H    0.150249
     5  H    0.149823
     6  H    0.157064
     7  H    0.152686
     8  H    0.155471
     9  H    0.153564
    10  H    0.160522
    11  C   -0.301488
    12  C   -0.300284
    13  C   -0.475490
    14  H    0.154804
    15  H    0.149296
    16  H    0.151819
    17  H    0.151798
    18  H    0.155278
    19  H    0.154494
    20  H    0.160106
    21  C   -0.298315
    22  C   -0.299698
    23  C   -0.475741
    24  H    0.149807
    25  H    0.149586
    26  H    0.152014
    27  H    0.152083
    28  H    0.155237
    29  H    0.155209
    30  H    0.160397
    31  C   -0.298580
    32  C   -0.300332
    33  C   -0.483829
    34  H    0.149798
    35  H    0.149389
    36  H    0.152165
    37  H    0.151687
    38  H    0.164134
    39  H    0.155117
    40  H    0.161756
 Sum of Mulliken charges =  -0.00000

 Dipole moment (field-independent basis, Debye):
    X=              0.0248    Y=             -0.0028    Z=              0.0269  Tot=              0.0367
 Quadrupole moment (field-independent basis, Debye-Ang):
   XX=            -85.2773   YY=            -85.4106   ZZ=            -84.2166
   XY=             -0.7897   XZ=              0.9861   YZ=             -0.1859

 Normal termination of Gaussian 16 at Thu May  6 02:06:02 2021.
