 Gaussian 16, Revision A.03,
 Gaussian 16:  EM64L-G16RevA.03 25-Dec-2016

 -------------
 #p 6-31g* mp2
 -------------

 ------------------------------------------------------
 Input file generated by CHIRIPA (05-May-2021 14:51:11)
 ------------------------------------------------------
 Symbolic Z-matrix:
 Charge =  0 Multiplicity = 1

                         Standard orientation:
 ---------------------------------------------------------------------
 Center     Atomic      Atomic             Coordinates (Angstroms)
 Number     Number       Type             X           Y           Z
 ---------------------------------------------------------------------
      1          6           0        2.943075   -0.352367   -0.205874
      2          6           0        3.390644   -1.524796    0.667669
      3          6           0        2.900667   -2.874413    0.142071
      4          1           0        1.846211   -0.347132   -0.267576
      5          1           0        3.312986   -0.504541   -1.229301
      6          1           0        3.021170   -1.369767    1.689467
      7          1           0        4.486562   -1.527127    0.727455
      8          1           0        3.280664   -3.055194   -0.868632
      9          1           0        1.806946   -2.896940    0.098845
     10          1           0        3.231965   -3.698544    0.781531
     11          6           0        3.425146    1.003605    0.306643
     12          6           0        2.977577    2.176034   -0.566900
     13          6           0        3.467554    3.525651   -0.041302
     14          1           0        3.055235    1.155779    1.330070
     15          1           0        4.522010    0.998370    0.368346
     16          1           0        1.881659    2.178365   -0.626686
     17          1           0        3.347051    2.021005   -1.588698
     18          1           0        4.561275    3.548178    0.001924
     19          1           0        3.087557    3.706432    0.969402
     20          1           0        3.136255    4.349782   -0.680762
     21          6           0       -3.331752    0.418313   -0.140931
     22          6           0       -4.703257    0.833621    0.392436
     23          6           0       -4.984031    2.324756    0.204079
     24          1           0       -2.554674    1.006169    0.366534
     25          1           0       -3.268837    0.672273   -1.208142
     26          1           0       -4.764074    0.577694    1.457997
     27          1           0       -5.477147    0.244573   -0.116220
     28          1           0       -4.950579    2.592026   -0.857075
     29          1           0       -4.233455    2.927039    0.726085
     30          1           0       -5.969649    2.599865    0.592319
     31          6           0       -3.036469   -1.069551    0.040161
     32          6           0       -1.664964   -1.484859   -0.493205
     33          6           0       -1.384191   -2.975994   -0.304848
     34          1           0       -3.099384   -1.323511    1.107373
     35          1           0       -3.813547   -1.657406   -0.467303
     36          1           0       -0.891073   -0.895811    0.015450
     37          1           0       -1.604147   -1.228932   -1.558766
     38          1           0       -2.134767   -3.578277   -0.826854
     39          1           0       -1.417642   -3.243265    0.756306
     40          1           0       -0.398572   -3.251104   -0.693088
 ---------------------------------------------------------------------

 SCF Done:  E(RHF) =  -470.733213457     A.U. after   11 cycles
 E2 =    -0.1583050088D+01 EUMP2 =    -0.47231626354469D+03

 The electronic state is 1-A.
 Alpha  occ. eigenvalues --  -11.21668 -11.21633 -11.21592 -11.21584 -11.21450
 Alpha  occ. eigenvalues --  -11.21393 -11.21391 -11.21332 -11.21102 -11.21096
 Alpha  occ. eigenvalues --  -11.21066 -11.21020  -1.08478  -1.08416  -1.03583
 Alpha  occ. eigenvalues --   -1.03507  -0.96039  -0.95950  -0.87072  -0.86950
 Alpha  occ. eigenvalues --   -0.79642  -0.79574  -0.78306  -0.78214  -0.65148
 Alpha  occ. eigenvalues --   -0.65016  -0.61042  -0.60873  -0.59448  -0.59288
 Alpha  occ. eigenvalues --   -0.57716  -0.57502  -0.55347  -0.55224  -0.52810
 Alpha  occ. eigenvalues --   -0.52653  -0.52507  -0.52253  -0.50019  -0.49838
 Alpha  occ. eigenvalues --   -0.47978  -0.47843  -0.46693  -0.46595  -0.45937
 Alpha  occ. eigenvalues --   -0.45777  -0.45741  -0.45557  -0.43809  -0.43770
 Alpha virt. eigenvalues --    0.20518   0.23181   0.23438   0.25001   0.25498
 Alpha virt. eigenvalues --    0.26755   0.26912   0.27139   0.28505   0.29052
 Alpha virt. eigenvalues --    0.30682   0.31228   0.31623   0.31771   0.31978

 Mulliken charges:
               1
     1  C   -0.303037
     2  C   -0.298811
     3  C   -0.483463
     4  H    0.153936
     5  H    0.149549
     6  H    0.151449
     7  H    0.151887
     8  H    0.154729
     9  H    0.163146
    10  H    0.160283
    11  C   -0.298063
    12  C   -0.299714
    13  C   -0.475681
    14  H    0.149117
    15  H    0.149721
    16  H    0.152066
    17  H    0.151995
    18  H    0.155173
    19  H    0.155005
    20  H    0.160299
    21  C   -0.298270
    22  C   -0.299695
    23  C   -0.475740
    24  H    0.149193
    25  H    0.149770
    26  H    0.151964
    27  H    0.152093
    28  H    0.155286
    29  H    0.155155
    30  H    0.160383
    31  C   -0.298186
    32  C   -0.303498
    33  C   -0.480934
    34  H    0.149584
    35  H    0.150121
    36  H    0.153936
    37  H    0.152711
    38  H    0.155900
    39  H    0.155133
    40  H    0.165510
 Sum of Mulliken charges =  -0.00000

 Dipole moment (field-independent basis, Debye):
    X=             -0.0326    Y=             -0.0112    Z=             -0.0142  Tot=              0.0373
 Quadrupole moment (field-independent basis, Debye-Ang):
   XX=            -84.1055   YY=            -86.9396   ZZ=            -83.6843
   XY=              0.1203   XZ=             -0.1897   YZ=              0.0514

 Normal termination of Gaussian 16 at Thu May  6 05:28:09 2021.
