 Gaussian 16, Revision A.03,
 Gaussian 16:  EM64L-G16RevA.03 25-Dec-2016

 -------------
 #p 6-31g* mp2
 -------------

 ------------------------------------------------------
 Input file generated by CHIRIPA (05-May-2021 14:55:24)
 ------------------------------------------------------
 Symbolic Z-matrix:
 Charge =  0 Multiplicity = 1

                         Standard orientation:
 ---------------------------------------------------------------------
 Center     Atomic      Atomic             Coordinates (Angstroms)
 Number     Number       Type             X           Y           Z
 ---------------------------------------------------------------------
      1          6           0        3.174069    2.542031    0.628521
      2          6           0        3.467994    2.109332   -0.668746
      3          6           0        3.178211    0.799745   -1.063152
      4          6           0        2.591863   -0.054373   -0.130432
      5          6           0        2.287044    0.347015    1.169284
      6          6           0        2.585570    1.661044    1.541786
      7          1           0        3.402576    3.561075    0.926397
      8          1           0        3.925031    2.791333   -1.380109
      9          1           0        3.395191    0.438541   -2.061085
     10          1           0        1.831458   -0.355866    1.856175
     11          1           0        2.356197    1.994334    2.549928
     12          7           0        2.280455   -1.443126   -0.536378
     13          8           0        1.763871   -2.176163    0.304119
     14          8           0        2.558854   -1.772297   -1.687368
     15          6           0       -3.598914    0.501955    0.185399
     16          6           0       -4.763380    0.923041   -0.711647
     17          6           0       -5.183321    2.376694   -0.491791
     18          1           0       -3.882701    0.648149    1.236606
     19          1           0       -2.742518    1.164368   -0.002193
     20          1           0       -5.616871    0.259161   -0.523415
     21          1           0       -4.476857    0.775647   -1.760835
     22          1           0       -4.348703    3.054311   -0.698788
     23          1           0       -5.495194    2.534889    0.545664
     24          1           0       -6.017139    2.656599   -1.143143
     25          6           0       -3.167644   -0.948700   -0.022768
     26          6           0       -2.003177   -1.369786    0.874277
     27          6           0       -1.583237   -2.823439    0.654421
     28          1           0       -4.024039   -1.611113    0.164823
     29          1           0       -2.883856   -1.094893   -1.073975
     30          1           0       -2.289701   -1.222392    1.923466
     31          1           0       -1.149686   -0.705905    0.686045
     32          1           0       -1.271363   -2.981635   -0.383033
     33          1           0       -2.417856   -3.501056    0.861419
     34          1           0       -0.749419   -3.103343    1.305774
 ---------------------------------------------------------------------

 SCF Done:  E(RHF) =  -669.535878497     A.U. after   15 cycles
 E2 =    -0.2091968599D+01 EUMP2 =    -0.67162784709596D+03

 The electronic state is 1-A.
 Alpha  occ. eigenvalues --  -20.60931 -20.60910 -15.85947 -11.31287 -11.27845
 Alpha  occ. eigenvalues --  -11.27841 -11.27582 -11.26858 -11.26846 -11.21386
 Alpha  occ. eigenvalues --  -11.21096 -11.20964 -11.20929 -11.20850 -11.19787
 Alpha  occ. eigenvalues --   -1.59980  -1.39537  -1.19453  -1.08854  -1.07997
 Alpha  occ. eigenvalues --   -1.04849  -1.02995  -0.95707  -0.95395  -0.86421
 Alpha  occ. eigenvalues --   -0.86246  -0.82528  -0.79097  -0.77802  -0.77579
 Alpha  occ. eigenvalues --   -0.72183  -0.71300  -0.70557  -0.65111  -0.64850
 Alpha  occ. eigenvalues --   -0.64632  -0.62195  -0.60394  -0.58826  -0.57008
 Alpha  occ. eigenvalues --   -0.55352  -0.54700  -0.53182  -0.52939  -0.52052
 Alpha  occ. eigenvalues --   -0.51835  -0.49393  -0.48931  -0.48899  -0.47389
 Alpha  occ. eigenvalues --   -0.46153  -0.45340  -0.45261  -0.44887  -0.43231
 Alpha  occ. eigenvalues --   -0.37428  -0.36446
 Alpha virt. eigenvalues --    0.04927   0.11137   0.16410   0.21228   0.23225
 Alpha virt. eigenvalues --    0.24670   0.26762   0.27206   0.27674   0.28110
 Alpha virt. eigenvalues --    0.28935   0.30753   0.31619   0.32043   0.32284

 Mulliken charges:
               1
     1  C   -0.170710
     2  C   -0.218465
     3  C   -0.171030
     4  C    0.157789
     5  C   -0.171029
     6  C   -0.218587
     7  H    0.226040
     8  H    0.223804
     9  H    0.275760
    10  H    0.276612
    11  H    0.224166
    12  N    0.490364
    13  O   -0.460378
    14  O   -0.459519
    15  C   -0.297365
    16  C   -0.299251
    17  C   -0.475245
    18  H    0.147388
    19  H    0.146488
    20  H    0.152205
    21  H    0.152311
    22  H    0.153243
    23  H    0.154158
    24  H    0.159726
    25  C   -0.297905
    26  C   -0.300570
    27  C   -0.471646
    28  H    0.149018
    29  H    0.150975
    30  H    0.145419
    31  H    0.145899
    32  H    0.161658
    33  H    0.145738
    34  H    0.172937
 Sum of Mulliken charges =  -0.00000

 Dipole moment (field-independent basis, Debye):
    X=              1.3307    Y=              4.7875    Z=              1.3904  Tot=              5.1599
 Quadrupole moment (field-independent basis, Debye-Ang):
   XX=            -89.4360   YY=            -96.4840   ZZ=            -90.5951
   XY=             13.8965   XZ=              1.3828   YZ=             -1.8535

 Normal termination of Gaussian 16 at Thu May  6 15:58:23 2021.
