 Gaussian 16, Revision A.03,
 Gaussian 16:  EM64L-G16RevA.03 25-Dec-2016

 -------------
 #p 6-31g* mp2
 -------------

 ------------------------------------------------------
 Input file generated by CHIRIPA (05-May-2021 14:53:15)
 ------------------------------------------------------
 Symbolic Z-matrix:
 Charge =  0 Multiplicity = 1

                         Standard orientation:
 ---------------------------------------------------------------------
 Center     Atomic      Atomic             Coordinates (Angstroms)
 Number     Number       Type             X           Y           Z
 ---------------------------------------------------------------------
      1          6           0        3.910292    0.814439   -0.095097
      2          6           0        4.843351    1.829735    0.565631
      3          6           0        4.380797    3.273630    0.368135
      4          1           0        3.840400    1.034931   -1.169082
      5          1           0        2.898255    0.935630    0.315379
      6          1           0        5.853623    1.705738    0.155033
      7          1           0        4.911180    1.606683    1.638134
      8          1           0        3.382941    3.420162    0.794062
      9          1           0        4.330740    3.519780   -0.697466
     10          1           0        5.062184    3.982739    0.848486
     11          6           0        4.359412   -0.633460    0.093595
     12          6           0        3.426353   -1.648756   -0.567133
     13          6           0        3.888907   -3.092651   -0.369638
     14          1           0        5.371448   -0.754651   -0.316881
     15          1           0        4.429303   -0.853952    1.167580
     16          1           0        3.358524   -1.425704   -1.639636
     17          1           0        2.416080   -1.524759   -0.156536
     18          1           0        3.938964   -3.338801    0.695963
     19          1           0        4.886762   -3.239183   -0.795564
     20          1           0        3.207520   -3.801760   -0.849989
     21          6           0       -0.946532   -1.138209    0.103033
     22          6           0       -1.985142   -1.629159    0.901016
     23          6           0       -3.254587   -1.045465    0.852442
     24          6           0       -3.451144    0.032508   -0.009317
     25          6           0       -2.436581    0.544374   -0.816748
     26          6           0       -1.175163   -0.054920   -0.751796
     27          1           0        0.036487   -1.597697    0.147128
     28          1           0       -1.810472   -2.470334    1.565819
     29          1           0       -4.076494   -1.405494    1.459289
     30          1           0       -2.641139    1.384198   -1.469640
     31          1           0       -0.370435    0.328460   -1.372665
     32          7           0       -4.790800    0.658697   -0.069411
     33          8           0       -4.938269    1.607294   -0.836908
     34          8           0       -5.667986    0.189049    0.652124
 ---------------------------------------------------------------------

 SCF Done:  E(RHF) =  -669.535621662     A.U. after   15 cycles
 E2 =    -0.2091127951D+01 EUMP2 =    -0.67162674961289D+03

 The electronic state is 1-A.
 Alpha  occ. eigenvalues --  -20.60733 -20.60728 -15.85787 -11.31147 -11.27717
 Alpha  occ. eigenvalues --  -11.27710 -11.27432 -11.26729 -11.26710 -11.22818
 Alpha  occ. eigenvalues --  -11.22320 -11.22274 -11.22215 -11.22067 -11.21620
 Alpha  occ. eigenvalues --   -1.59809  -1.39363  -1.19318  -1.09335  -1.08712
 Alpha  occ. eigenvalues --   -1.04720  -1.04396  -0.96809  -0.95550  -0.87827
 Alpha  occ. eigenvalues --   -0.86115  -0.82385  -0.80492  -0.79142  -0.77429
 Alpha  occ. eigenvalues --   -0.72005  -0.71132  -0.70445  -0.65965  -0.64968
 Alpha  occ. eigenvalues --   -0.64719  -0.62067  -0.61796  -0.60205  -0.58431
 Alpha  occ. eigenvalues --   -0.56090  -0.55234  -0.53505  -0.53227  -0.53051
 Alpha  occ. eigenvalues --   -0.52808  -0.50749  -0.48802  -0.48760  -0.48744
 Alpha  occ. eigenvalues --   -0.47527  -0.46670  -0.46583  -0.44769  -0.44646
 Alpha  occ. eigenvalues --   -0.37296  -0.36327
 Alpha virt. eigenvalues --    0.05101   0.11316   0.16583   0.19224   0.22554
 Alpha virt. eigenvalues --    0.23515   0.25068   0.26015   0.26779   0.27759
 Alpha virt. eigenvalues --    0.29027   0.30393   0.30887   0.31146   0.31967

 Mulliken charges:
               1
     1  C   -0.299517
     2  C   -0.300141
     3  C   -0.476520
     4  H    0.149474
     5  H    0.146416
     6  H    0.153821
     7  H    0.153518
     8  H    0.155888
     9  H    0.155489
    10  H    0.163007
    11  C   -0.297749
    12  C   -0.305924
    13  C   -0.476295
    14  H    0.153650
    15  H    0.151661
    16  H    0.154280
    17  H    0.142690
    18  H    0.156579
    19  H    0.160272
    20  H    0.160306
    21  C   -0.177705
    22  C   -0.220234
    23  C   -0.170754
    24  C    0.158288
    25  C   -0.170928
    26  C   -0.222338
    27  H    0.236468
    28  H    0.223789
    29  H    0.275378
    30  H    0.275556
    31  H    0.224651
    32  N    0.488000
    33  O   -0.460519
    34  O   -0.460554
 Sum of Mulliken charges =  -0.00000

 Dipole moment (field-independent basis, Debye):
    X=              4.9760    Y=             -2.1861    Z=              0.2159  Tot=              5.4394
 Quadrupole moment (field-independent basis, Debye-Ang):
   XX=           -126.0701   YY=            -94.1299   ZZ=            -92.1205
   XY=              9.2768   XZ=             -2.5820   YZ=             -2.5192

 Normal termination of Gaussian 16 at Thu May  6 20:23:35 2021.
