 Gaussian 16, Revision A.03,
 Gaussian 16:  EM64L-G16RevA.03 25-Dec-2016

 -------------
 #p 6-31g* mp2
 -------------

 ------------------------------------------------------
 Input file generated by CHIRIPA (05-May-2021 14:53:13)
 ------------------------------------------------------
 Symbolic Z-matrix:
 Charge =  0 Multiplicity = 1

                         Standard orientation:
 ---------------------------------------------------------------------
 Center     Atomic      Atomic             Coordinates (Angstroms)
 Number     Number       Type             X           Y           Z
 ---------------------------------------------------------------------
      1          6           0        4.230292    0.792658    0.406552
      2          6           0        2.735396    0.856652    0.721474
      3          6           0        2.301032    2.223225    1.252135
      4          1           0        4.800389    1.033191    1.314340
      5          1           0        4.475948    1.568655   -0.331606
      6          1           0        2.492377    0.079861    1.457784
      7          1           0        2.168794    0.615752   -0.187121
      8          1           0        2.515089    3.007164    0.518501
      9          1           0        2.840511    2.468228    2.172752
     10          1           0        1.228870    2.246740    1.470710
     11          6           0        4.679772   -0.567215   -0.124900
     12          6           0        6.174668   -0.631209   -0.439822
     13          6           0        6.609033   -1.997781   -0.970483
     14          1           0        4.434116   -1.343211    0.613258
     15          1           0        4.109676   -0.807747   -1.032688
     16          1           0        6.741270   -0.390309    0.468773
     17          1           0        6.417687    0.145583   -1.176132
     18          1           0        6.069553   -2.242785   -1.891101
     19          1           0        6.394975   -2.781721   -0.236849
     20          1           0        7.681195   -2.021297   -1.189058
     21          6           0       -2.375188    2.091976   -0.735839
     22          6           0       -1.663313    1.128011   -0.014364
     23          6           0       -2.265653   -0.083476    0.337821
     24          6           0       -3.587351   -0.298822   -0.049518
     25          6           0       -4.322899    0.641917   -0.768733
     26          6           0       -3.700374    1.846286   -1.110061
     27          1           0       -1.899435    3.030324   -1.005207
     28          1           0       -0.634029    1.316095    0.277601
     29          1           0       -1.737740   -0.847114    0.896017
     30          1           0       -5.347593    0.425733   -1.045654
     31          1           0       -4.255657    2.593093   -1.670403
     32          7           0       -4.235707   -1.577601    0.317577
     33          8           0       -5.401262   -1.743098   -0.035594
     34          8           0       -3.566056   -2.390198    0.951528
 ---------------------------------------------------------------------

 SCF Done:  E(RHF) =  -669.535557722     A.U. after   15 cycles
 E2 =    -0.2090986928D+01 EUMP2 =    -0.67162654465044D+03

 The electronic state is 1-A.
 Alpha  occ. eigenvalues --  -20.60728 -20.60723 -15.85781 -11.31139 -11.27713
 Alpha  occ. eigenvalues --  -11.27699 -11.27448 -11.26727 -11.26680 -11.22526
 Alpha  occ. eigenvalues --  -11.22156 -11.22054 -11.21982 -11.21853 -11.21351
 Alpha  occ. eigenvalues --   -1.59804  -1.39357  -1.19311  -1.09056  -1.08708
 Alpha  occ. eigenvalues --   -1.04714  -1.04189  -0.96636  -0.95544  -0.87650
 Alpha  occ. eigenvalues --   -0.86112  -0.82376  -0.80266  -0.78821  -0.77426
 Alpha  occ. eigenvalues --   -0.72000  -0.71127  -0.70421  -0.65684  -0.64962
 Alpha  occ. eigenvalues --   -0.64755  -0.62126  -0.61561  -0.60024  -0.58234
 Alpha  occ. eigenvalues --   -0.55897  -0.55212  -0.53416  -0.53128  -0.53041
 Alpha  occ. eigenvalues --   -0.52641  -0.50555  -0.48758  -0.48755  -0.48575
 Alpha  occ. eigenvalues --   -0.47288  -0.46370  -0.46260  -0.44765  -0.44428
 Alpha  occ. eigenvalues --   -0.37294  -0.36315
 Alpha virt. eigenvalues --    0.05108   0.11302   0.16583   0.19580   0.22573
 Alpha virt. eigenvalues --    0.23706   0.25908   0.26164   0.26932   0.28336
 Alpha virt. eigenvalues --    0.28875   0.30245   0.30782   0.31350   0.32185

 Mulliken charges:
               1
     1  C   -0.298357
     2  C   -0.303864
     3  C   -0.480591
     4  H    0.152152
     5  H    0.150346
     6  H    0.154803
     7  H    0.149429
     8  H    0.156838
     9  H    0.162494
    10  H    0.152557
    11  C   -0.299233
    12  C   -0.300216
    13  C   -0.476153
    14  H    0.151427
    15  H    0.150409
    16  H    0.152737
    17  H    0.152053
    18  H    0.155885
    19  H    0.156464
    20  H    0.161438
    21  C   -0.173049
    22  C   -0.228837
    23  C   -0.173156
    24  C    0.158865
    25  C   -0.171221
    26  C   -0.218477
    27  H    0.225873
    28  H    0.237911
    29  H    0.275977
    30  H    0.275417
    31  H    0.223167
    32  N    0.488069
    33  O   -0.460676
    34  O   -0.460479
 Sum of Mulliken charges =  -0.00000

 Dipole moment (field-independent basis, Debye):
    X=              2.5167    Y=              4.4873    Z=             -1.2834  Tot=              5.3026
 Quadrupole moment (field-independent basis, Debye-Ang):
   XX=           -107.1176   YY=            -98.3724   ZZ=            -93.4664
   XY=            -18.0662   XZ=              7.2822   YZ=             -1.3152

 Normal termination of Gaussian 16 at Thu May  6 07:21:42 2021.
