 Gaussian 16, Revision A.03,
 Gaussian 16:  EM64L-G16RevA.03 25-Dec-2016

 -------------
 #p 6-31g* mp2
 -------------

 ------------------------------------------------------
 Input file generated by CHIRIPA (05-May-2021 14:53:16)
 ------------------------------------------------------
 Symbolic Z-matrix:
 Charge =  0 Multiplicity = 1

                         Standard orientation:
 ---------------------------------------------------------------------
 Center     Atomic      Atomic             Coordinates (Angstroms)
 Number     Number       Type             X           Y           Z
 ---------------------------------------------------------------------
      1          6           0       -2.850242    0.624300   -0.739501
      2          6           0       -1.925489    1.816362   -0.490898
      3          6           0       -1.468009    2.489656   -1.785186
      4          1           0       -2.331127   -0.108662   -1.372140
      5          1           0       -3.727684    0.962158   -1.308134
      6          1           0       -1.050722    1.476625    0.078293
      7          1           0       -2.446796    2.546484    0.141382
      8          1           0       -2.328775    2.855867   -2.354020
      9          1           0       -0.924770    1.779929   -2.417467
     10          1           0       -0.807896    3.339193   -1.584193
     11          6           0       -3.316043   -0.059266    0.544825
     12          6           0       -4.240797   -1.251328    0.296222
     13          6           0       -4.698276   -1.924622    1.590510
     14          1           0       -2.438602   -0.397124    1.113457
     15          1           0       -3.835158    0.673696    1.177464
     16          1           0       -3.719490   -1.981450   -0.336058
     17          1           0       -5.115563   -0.911591   -0.272969
     18          1           0       -5.241516   -1.214895    2.222791
     19          1           0       -3.837510   -2.290833    2.159344
     20          1           0       -5.358389   -2.774159    1.389517
     21          6           0        2.539076    1.624448    1.791940
     22          6           0        1.697944    1.758493    0.682413
     23          6           0        1.617731    0.742516   -0.274615
     24          6           0        2.396101   -0.399100   -0.089841
     25          6           0        3.243608   -0.562217    1.004880
     26          6           0        3.307869    0.466562    1.949355
     27          1           0        2.595192    2.418656    2.530507
     28          1           0        1.099742    2.656612    0.557579
     29          1           0        0.974906    0.820203   -1.143040
     30          1           0        3.827837   -1.469214    1.102094
     31          1           0        3.961979    0.359727    2.810035
     32          7           0        2.319627   -1.481446   -1.096359
     33          8           0        3.015579   -2.477326   -0.910585
     34          8           0        1.565184   -1.313414   -2.051984
 ---------------------------------------------------------------------

 SCF Done:  E(RHF) =  -669.534058033     A.U. after   15 cycles
 E2 =    -0.2094051640D+01 EUMP2 =    -0.67162810967285D+03

 The electronic state is 1-A.
 Alpha  occ. eigenvalues --  -20.60821 -20.60814 -15.85870 -11.31204 -11.27783
 Alpha  occ. eigenvalues --  -11.27729 -11.27515 -11.26794 -11.26750 -11.22065
 Alpha  occ. eigenvalues --  -11.21763 -11.21586 -11.21562 -11.21470 -11.21052
 Alpha  occ. eigenvalues --   -1.59893  -1.39448  -1.19391  -1.08787  -1.08653
 Alpha  occ. eigenvalues --   -1.04818  -1.03807  -0.96270  -0.95621  -0.87277
 Alpha  occ. eigenvalues --   -0.86184  -0.82478  -0.79895  -0.78428  -0.77507
 Alpha  occ. eigenvalues --   -0.72092  -0.71217  -0.70521  -0.65405  -0.65000
 Alpha  occ. eigenvalues --   -0.64780  -0.62375  -0.60964  -0.59645  -0.57852
 Alpha  occ. eigenvalues --   -0.55598  -0.55200  -0.53165  -0.52996  -0.52882
 Alpha  occ. eigenvalues --   -0.52627  -0.50195  -0.48847  -0.48843  -0.48189
 Alpha  occ. eigenvalues --   -0.46919  -0.45964  -0.45852  -0.44857  -0.44031
 Alpha  occ. eigenvalues --   -0.37373  -0.36304
 Alpha virt. eigenvalues --    0.04984   0.11228   0.16360   0.19895   0.22948
 Alpha virt. eigenvalues --    0.23922   0.25734   0.26389   0.27246   0.28163
 Alpha virt. eigenvalues --    0.29092   0.30699   0.31334   0.31960   0.32737

 Mulliken charges:
               1
     1  C   -0.299747
     2  C   -0.312367
     3  C   -0.486442
     4  H    0.158666
     5  H    0.150727
     6  H    0.152863
     7  H    0.152113
     8  H    0.163697
     9  H    0.161535
    10  H    0.153584
    11  C   -0.298573
    12  C   -0.300770
    13  C   -0.475885
    14  H    0.150281
    15  H    0.147770
    16  H    0.156773
    17  H    0.151847
    18  H    0.153752
    19  H    0.155551
    20  H    0.161440
    21  C   -0.171693
    22  C   -0.222622
    23  C   -0.175659
    24  C    0.156737
    25  C   -0.170616
    26  C   -0.218974
    27  H    0.225998
    28  H    0.228227
    29  H    0.286380
    30  H    0.275636
    31  H    0.223578
    32  N    0.487704
    33  O   -0.460019
    34  O   -0.461492
 Sum of Mulliken charges =  -0.00000

 Dipole moment (field-independent basis, Debye):
    X=              0.2044    Y=              3.7242    Z=              3.4960  Tot=              5.1121
 Quadrupole moment (field-independent basis, Debye-Ang):
   XX=            -90.9357   YY=            -96.9862   ZZ=            -95.1160
   XY=              6.4663   XZ=             11.2626   YZ=             -2.7801

 Normal termination of Gaussian 16 at Thu May  6 17:15:46 2021.
