 Gaussian 16, Revision A.03,
 Gaussian 16:  EM64L-G16RevA.03 25-Dec-2016

 -------------
 #p 6-31g* mp2
 -------------

 ------------------------------------------------------
 Input file generated by CHIRIPA (05-May-2021 14:53:16)
 ------------------------------------------------------
 Symbolic Z-matrix:
 Charge =  0 Multiplicity = 1

                         Standard orientation:
 ---------------------------------------------------------------------
 Center     Atomic      Atomic             Coordinates (Angstroms)
 Number     Number       Type             X           Y           Z
 ---------------------------------------------------------------------
      1          6           0       -3.450533   -0.616511   -0.567999
      2          6           0       -3.345338   -1.699266    0.506506
      3          6           0       -3.638799   -3.099064   -0.034085
      4          1           0       -4.458486   -0.638708   -1.004444
      5          1           0       -2.751704   -0.849682   -1.383269
      6          1           0       -4.043161   -1.463384    1.320152
      7          1           0       -2.337579   -1.674362    0.940577
      8          1           0       -2.935221   -3.359418   -0.831452
      9          1           0       -4.650494   -3.147241   -0.449720
     10          1           0       -3.557972   -3.857613    0.750728
     11          6           0       -3.159902    0.788321   -0.042921
     12          6           0       -3.265096    1.871075   -1.117427
     13          6           0       -2.971636    3.270874   -0.576836
     14          1           0       -3.858731    1.021491    0.772349
     15          1           0       -2.151949    0.810517    0.393523
     16          1           0       -4.272856    1.846172   -1.551497
     17          1           0       -2.567273    1.635194   -1.931072
     18          1           0       -1.959941    3.319051   -0.161200
     19          1           0       -3.675214    3.531228    0.220531
     20          1           0       -3.052463    4.029423   -1.361648
     21          6           0        4.578608   -0.404528   -1.266827
     22          6           0        4.512726    0.715974   -0.432168
     23          6           0        3.411382    0.913107    0.406121
     24          6           0        2.389196   -0.034493    0.384184
     25          6           0        2.425714   -1.161025   -0.436109
     26          6           0        3.536730   -1.337807   -1.266134
     27          1           0        5.437915   -0.549761   -1.914820
     28          1           0        5.320395    1.442412   -0.430613
     29          1           0        3.334680    1.771608    1.062254
     30          1           0        1.605129   -1.867876   -0.415608
     31          1           0        3.585202   -2.208943   -1.913296
     32          7           0        1.218133    0.163429    1.267269
     33          8           0        0.330639   -0.686012    1.229325
     34          8           0        1.209922    1.164256    1.980652
 ---------------------------------------------------------------------

 SCF Done:  E(RHF) =  -669.536511197     A.U. after   15 cycles
 E2 =    -0.2091808083D+01 EUMP2 =    -0.67162831927928D+03

 The electronic state is 1-A.
 Alpha  occ. eigenvalues --  -20.61114 -20.61106 -15.86134 -11.31393 -11.27948
 Alpha  occ. eigenvalues --  -11.27943 -11.27673 -11.26939 -11.26930 -11.20715
 Alpha  occ. eigenvalues --  -11.20328 -11.20258 -11.20252 -11.20186 -11.20098
 Alpha  occ. eigenvalues --   -1.60164  -1.39722  -1.19554  -1.08970  -1.07322
 Alpha  occ. eigenvalues --   -1.04940  -1.02524  -0.95821  -0.95002  -0.86344
 Alpha  occ. eigenvalues --   -0.86024  -0.82660  -0.78569  -0.77721  -0.77102
 Alpha  occ. eigenvalues --   -0.72357  -0.71474  -0.70662  -0.65214  -0.64942
 Alpha  occ. eigenvalues --   -0.63939  -0.62288  -0.59923  -0.58371  -0.56602
 Alpha  occ. eigenvalues --   -0.55447  -0.54302  -0.53275  -0.53031  -0.51737
 Alpha  occ. eigenvalues --   -0.51424  -0.49139  -0.49111  -0.48941  -0.46896
 Alpha  occ. eigenvalues --   -0.45572  -0.45247  -0.44688  -0.44354  -0.42749
 Alpha  occ. eigenvalues --   -0.37528  -0.36538
 Alpha virt. eigenvalues --    0.04775   0.11118   0.16272   0.21202   0.23914
 Alpha virt. eigenvalues --    0.25166   0.27164   0.27520   0.28176   0.28747
 Alpha virt. eigenvalues --    0.29097   0.30912   0.32027   0.32526   0.32735

 Mulliken charges:
               1
     1  C   -0.294257
     2  C   -0.310951
     3  C   -0.474148
     4  H    0.143589
     5  H    0.143006
     6  H    0.148611
     7  H    0.179947
     8  H    0.149020
     9  H    0.150966
    10  H    0.157941
    11  C   -0.305349
    12  C   -0.298574
    13  C   -0.475412
    14  H    0.147363
    15  H    0.168910
    16  H    0.148051
    17  H    0.146575
    18  H    0.158459
    19  H    0.155066
    20  H    0.155034
    21  C   -0.170340
    22  C   -0.218591
    23  C   -0.170395
    24  C    0.157395
    25  C   -0.170554
    26  C   -0.218529
    27  H    0.226441
    28  H    0.224229
    29  H    0.276126
    30  H    0.275717
    31  H    0.224292
    32  N    0.494166
    33  O   -0.465996
    34  O   -0.457809
 Sum of Mulliken charges =  -0.00000

 Dipole moment (field-independent basis, Debye):
    X=              4.5146    Y=             -0.6708    Z=             -2.9011  Tot=              5.4081
 Quadrupole moment (field-independent basis, Debye-Ang):
   XX=            -74.7987   YY=            -93.1406   ZZ=            -97.4080
   XY=             -0.3326   XZ=             -6.1774   YZ=              1.4710

 Normal termination of Gaussian 16 at Thu May  6 09:06:09 2021.
