 Gaussian 16, Revision A.03,
 Gaussian 16:  EM64L-G16RevA.03 25-Dec-2016

 -------------
 #p 6-31g* mp2
 -------------

 ------------------------------------------------------
 Input file generated by CHIRIPA (05-May-2021 14:51:10)
 ------------------------------------------------------
 Symbolic Z-matrix:
 Charge =  0 Multiplicity = 1

                         Standard orientation:
 ---------------------------------------------------------------------
 Center     Atomic      Atomic             Coordinates (Angstroms)
 Number     Number       Type             X           Y           Z
 ---------------------------------------------------------------------
      1          6           0        4.138405    0.313816    0.029924
      2          6           0        4.236439   -1.151003   -0.397488
      3          6           0        5.632932   -1.736427   -0.185642
      4          1           0        4.874181    0.903646   -0.533706
      5          1           0        4.415633    0.398608    1.089806
      6          1           0        3.957773   -1.233200   -1.455885
      7          1           0        3.500212   -1.737382    0.167087
      8          1           0        5.916628   -1.683664    0.870452
      9          1           0        6.376789   -1.176617   -0.761742
     10          1           0        5.680529   -2.784364   -0.497768
     11          6           0        2.748376    0.913181   -0.175769
     12          6           0        2.650342    2.378000    0.251644
     13          6           0        1.253849    2.963424    0.039797
     14          1           0        2.471148    0.828390   -1.235651
     15          1           0        2.012600    0.323352    0.387862
     16          1           0        3.386569    2.964379   -0.312931
     17          1           0        2.929008    2.460198    1.310041
     18          1           0        0.509992    2.403615    0.615898
     19          1           0        0.970153    2.910661   -1.016296
     20          1           0        1.206252    4.011361    0.351924
     21          6           0       -2.803704   -0.689530    0.483353
     22          6           0       -1.790638   -1.647351   -0.144549
     23          6           0       -0.516170   -1.788984    0.688195
     24          1           0       -2.336143    0.296351    0.611295
     25          1           0       -3.060337   -1.046801    1.490275
     26          1           0       -1.537040   -1.289134   -1.150523
     27          1           0       -2.260728   -2.631015   -0.271187
     28          1           0       -0.749602   -2.168531    1.688222
     29          1           0       -0.021803   -0.819027    0.803889
     30          1           0        0.194144   -2.478217    0.220997
     31          6           0       -4.083075   -0.537467   -0.337509
     32          6           0       -5.096143    0.420354    0.290394
     33          6           0       -6.370612    0.561986   -0.542351
     34          1           0       -3.826444   -0.180197   -1.344431
     35          1           0       -4.550638   -1.523348   -0.465450
     36          1           0       -4.626053    1.404017    0.417032
     37          1           0       -5.349740    0.062137    1.296368
     38          1           0       -6.864978   -0.407971   -0.658044
     39          1           0       -6.137179    0.941534   -1.542377
     40          1           0       -7.080924    1.251219   -0.075152
 ---------------------------------------------------------------------

 SCF Done:  E(RHF) =  -470.733310887     A.U. after   11 cycles
 E2 =    -0.1582927491D+01 EUMP2 =    -0.47231623837711D+03

 The electronic state is 1-A.
 Alpha  occ. eigenvalues --  -11.21612 -11.21600 -11.21591 -11.21573 -11.21402
 Alpha  occ. eigenvalues --  -11.21379 -11.21343 -11.21318 -11.21125 -11.21073
 Alpha  occ. eigenvalues --  -11.21061 -11.21051  -1.08435  -1.08412  -1.03537
 Alpha  occ. eigenvalues --   -1.03520  -0.96000  -0.95961  -0.87022  -0.86975
 Alpha  occ. eigenvalues --   -0.79620  -0.79567  -0.78277  -0.78193  -0.65126
 Alpha  occ. eigenvalues --   -0.64991  -0.60990  -0.60867  -0.59374  -0.59318
 Alpha  occ. eigenvalues --   -0.57622  -0.57562  -0.55384  -0.55171  -0.52704
 Alpha  occ. eigenvalues --   -0.52650  -0.52477  -0.52341  -0.50045  -0.49829
 Alpha  occ. eigenvalues --   -0.48004  -0.47838  -0.46763  -0.46557  -0.45889
 Alpha  occ. eigenvalues --   -0.45737  -0.45725  -0.45425  -0.43790  -0.43765
 Alpha virt. eigenvalues --    0.20799   0.23047   0.23677   0.24423   0.25735
 Alpha virt. eigenvalues --    0.26450   0.26970   0.27305   0.28358   0.29568
 Alpha virt. eigenvalues --    0.29646   0.31476   0.31760   0.31906   0.31996

 Mulliken charges:
               1
     1  C   -0.297606
     2  C   -0.300605
     3  C   -0.475695
     4  H    0.149467
     5  H    0.149440
     6  H    0.151661
     7  H    0.153380
     8  H    0.155215
     9  H    0.155066
    10  H    0.160140
    11  C   -0.306514
    12  C   -0.299168
    13  C   -0.476706
    14  H    0.148991
    15  H    0.158524
    16  H    0.152061
    17  H    0.151969
    18  H    0.154589
    19  H    0.155130
    20  H    0.160680
    21  C   -0.299015
    22  C   -0.299131
    23  C   -0.482311
    24  H    0.150093
    25  H    0.149387
    26  H    0.152539
    27  H    0.151908
    28  H    0.154892
    29  H    0.160372
    30  H    0.160988
    31  C   -0.298283
    32  C   -0.299745
    33  C   -0.475711
    34  H    0.149728
    35  H    0.149616
    36  H    0.152231
    37  H    0.151822
    38  H    0.155111
    39  H    0.155239
    40  H    0.160253
 Sum of Mulliken charges =  -0.00000

 Dipole moment (field-independent basis, Debye):
    X=             -0.0029    Y=             -0.0048    Z=             -0.0014  Tot=              0.0058
 Quadrupole moment (field-independent basis, Debye-Ang):
   XX=            -86.4600   YY=            -84.4704   ZZ=            -83.8811
   XY=              1.1482   XZ=             -1.0019   YZ=             -0.5269

 Normal termination of Gaussian 16 at Wed May  5 21:24:58 2021.
