 Gaussian 16, Revision A.03,
 Gaussian 16:  EM64L-G16RevA.03 25-Dec-2016

 -------------
 #p 6-31g* mp2
 -------------

 ------------------------------------------------------
 Input file generated by CHIRIPA (05-May-2021 14:53:16)
 ------------------------------------------------------
 Symbolic Z-matrix:
 Charge =  0 Multiplicity = 1

                         Standard orientation:
 ---------------------------------------------------------------------
 Center     Atomic      Atomic             Coordinates (Angstroms)
 Number     Number       Type             X           Y           Z
 ---------------------------------------------------------------------
      1          6           0       -3.166607   -0.333499   -0.000488
      2          6           0       -2.280331   -1.418602   -0.612902
      3          6           0       -0.788658   -1.130954   -0.439803
      4          1           0       -2.922371    0.633602   -0.460933
      5          1           0       -2.932199   -0.238656    1.068835
      6          1           0       -2.517313   -1.512330   -1.680456
      7          1           0       -2.526840   -2.383264   -0.151082
      8          1           0       -0.531027   -1.058076    0.621760
      9          1           0       -0.521446   -0.182194   -0.916304
     10          1           0       -0.173499   -1.919218   -0.884865
     11          6           0       -4.660516   -0.606888   -0.165481
     12          6           0       -5.546792    0.478215    0.446933
     13          6           0       -7.038466    0.190567    0.273834
     14          1           0       -4.894924   -0.701731   -1.234805
     15          1           0       -4.904753   -1.573989    0.294964
     16          1           0       -5.300284    1.442877   -0.014887
     17          1           0       -5.309811    0.571943    1.514487
     18          1           0       -7.305678   -0.758193    0.750334
     19          1           0       -7.296097    0.117689   -0.787729
     20          1           0       -7.653624    0.978831    0.718896
     21          6           0        4.859511   -1.377887    0.334569
     22          6           0        4.559131   -0.872200   -0.934514
     23          6           0        3.562625    0.095017   -1.095806
     24          6           0        2.883256    0.536060    0.038754
     25          6           0        3.159516    0.051603    1.316358
     26          6           0        4.159978   -0.915187    1.453981
     27          1           0        5.635157   -2.129079    0.450671
     28          1           0        5.100770   -1.229693   -1.805647
     29          1           0        3.309773    0.503596   -2.066655
     30          1           0        2.602439    0.427418    2.165973
     31          1           0        4.391128   -1.306120    2.440788
     32          7           0        1.826205    1.559784   -0.119469
     33          8           0        1.242155    1.931925    0.895929
     34          8           0        1.601755    1.970654   -1.255887
 ---------------------------------------------------------------------

 SCF Done:  E(RHF) =  -669.536175770     A.U. after   15 cycles
 E2 =    -0.2091669569D+01 EUMP2 =    -0.67162784533851D+03

 The electronic state is 1-A.
 Alpha  occ. eigenvalues --  -20.60818 -20.60807 -15.85840 -11.31183 -11.27751
 Alpha  occ. eigenvalues --  -11.27747 -11.27495 -11.26766 -11.26756 -11.21077
 Alpha  occ. eigenvalues --  -11.21076 -11.20844 -11.20682 -11.20646 -11.20504
 Alpha  occ. eigenvalues --   -1.59875  -1.39431  -1.19352  -1.08755  -1.07859
 Alpha  occ. eigenvalues --   -1.04755  -1.03003  -0.95596  -0.95457  -0.86483
 Alpha  occ. eigenvalues --   -0.86155  -0.82433  -0.79081  -0.77655  -0.77482
 Alpha  occ. eigenvalues --   -0.72072  -0.71190  -0.70468  -0.65012  -0.64763
 Alpha  occ. eigenvalues --   -0.64488  -0.62106  -0.60399  -0.58824  -0.57057
 Alpha  occ. eigenvalues --   -0.55264  -0.54735  -0.53087  -0.52852  -0.52171
 Alpha  occ. eigenvalues --   -0.51871  -0.49400  -0.48834  -0.48824  -0.47381
 Alpha  occ. eigenvalues --   -0.46111  -0.45201  -0.45133  -0.44791  -0.43253
 Alpha  occ. eigenvalues --   -0.37322  -0.36353
 Alpha virt. eigenvalues --    0.05032   0.11282   0.16522   0.21405   0.23442
 Alpha virt. eigenvalues --    0.24822   0.27200   0.27354   0.27853   0.28244
 Alpha virt. eigenvalues --    0.28570   0.30959   0.31688   0.32290   0.32427

 Mulliken charges:
               1
     1  C   -0.299090
     2  C   -0.298644
     3  C   -0.484967
     4  H    0.157865
     5  H    0.150285
     6  H    0.150954
     7  H    0.148137
     8  H    0.154322
     9  H    0.167862
    10  H    0.154087
    11  C   -0.298209
    12  C   -0.299537
    13  C   -0.475440
    14  H    0.148431
    15  H    0.146877
    16  H    0.154361
    17  H    0.151873
    18  H    0.153572
    19  H    0.154496
    20  H    0.159519
    21  C   -0.170652
    22  C   -0.218721
    23  C   -0.170967
    24  C    0.160828
    25  C   -0.170900
    26  C   -0.218620
    27  H    0.225512
    28  H    0.223356
    29  H    0.275564
    30  H    0.275401
    31  H    0.223315
    32  N    0.489328
    33  O   -0.459023
    34  O   -0.461176
 Sum of Mulliken charges =  -0.00000

 Dipole moment (field-independent basis, Debye):
    X=              3.8166    Y=             -3.4781    Z=              0.5632  Tot=              5.1943
 Quadrupole moment (field-independent basis, Debye-Ang):
   XX=            -75.4866   YY=            -99.4060   ZZ=            -89.0737
   XY=             -9.0155   XZ=              0.8156   YZ=             -0.4692

 Normal termination of Gaussian 16 at Thu May  6 09:05:59 2021.
