 Gaussian 16, Revision A.03,
 Gaussian 16:  EM64L-G16RevA.03 25-Dec-2016

 -------------
 #p 6-31g* mp2
 -------------

 ------------------------------------------------------
 Input file generated by CHIRIPA (05-May-2021 14:51:11)
 ------------------------------------------------------
 Symbolic Z-matrix:
 Charge =  0 Multiplicity = 1

                         Standard orientation:
 ---------------------------------------------------------------------
 Center     Atomic      Atomic             Coordinates (Angstroms)
 Number     Number       Type             X           Y           Z
 ---------------------------------------------------------------------
      1          6           0        3.479804    0.693141    0.367117
      2          6           0        3.237227    1.945454   -0.476004
      3          6           0        2.426581    3.009148    0.265078
      4          1           0        2.512438    0.271819    0.673115
      5          1           0        4.003241    0.977050    1.290592
      6          1           0        2.715632    1.659075   -1.398252
      7          1           0        4.205280    2.363736   -0.780191
      8          1           0        2.945428    3.323317    1.176503
      9          1           0        1.447316    2.614653    0.554930
     10          1           0        2.264891    3.895706   -0.355995
     11          6           0        4.288869   -0.379401   -0.360065
     12          6           0        4.531447   -1.631714    0.483056
     13          6           0        5.342093   -2.695407   -0.258026
     14          1           0        3.765433   -0.663309   -1.283540
     15          1           0        5.256236    0.041922   -0.666063
     16          1           0        3.563393   -2.049996    0.787242
     17          1           0        5.053042   -1.345335    1.405304
     18          1           0        6.321358   -2.300913   -0.547878
     19          1           0        4.823246   -3.009577   -1.169451
     20          1           0        5.503783   -3.581966    0.363046
     21          6           0       -3.277950    0.285699   -0.144452
     22          6           0       -1.949312   -0.365387    0.241284
     23          6           0       -0.745516    0.532259   -0.046648
     24          1           0       -3.256970    0.541930   -1.212557
     25          1           0       -3.386521    1.232741    0.402100
     26          1           0       -1.843915   -1.311596   -0.304788
     27          1           0       -1.973531   -0.620272    1.308553
     28          1           0       -0.823674    1.471787    0.509930
     29          1           0       -0.693322    0.776535   -1.112577
     30          1           0        0.193826    0.047244    0.236649
     31          6           0       -4.490723   -0.599439    0.137400
     32          6           0       -5.819362    0.051646   -0.248336
     33          6           0       -7.023157   -0.845999    0.039596
     34          1           0       -4.382152   -1.546481   -0.409151
     35          1           0       -4.511703   -0.855670    1.205506
     36          1           0       -5.795143    0.306531   -1.315605
     37          1           0       -5.924759    0.997855    0.297737
     38          1           0       -7.075351   -1.090275    1.105526
     39          1           0       -6.944999   -1.785527   -0.516982
     40          1           0       -7.962499   -0.360984   -0.243701
 ---------------------------------------------------------------------

 SCF Done:  E(RHF) =  -470.732752590     A.U. after   11 cycles
 E2 =    -0.1583359494D+01 EUMP2 =    -0.47231611208378D+03

 The electronic state is 1-A.
 Alpha  occ. eigenvalues --  -11.21672 -11.21628 -11.21582 -11.21505 -11.21449
 Alpha  occ. eigenvalues --  -11.21388 -11.21352 -11.21283 -11.21169 -11.21092
 Alpha  occ. eigenvalues --  -11.21055 -11.20908  -1.08481  -1.08373  -1.03598
 Alpha  occ. eigenvalues --   -1.03454  -0.96049  -0.95908  -0.87072  -0.86928
 Alpha  occ. eigenvalues --   -0.79686  -0.79505  -0.78294  -0.78186  -0.65110
 Alpha  occ. eigenvalues --   -0.65028  -0.61009  -0.60870  -0.59435  -0.59240
 Alpha  occ. eigenvalues --   -0.57694  -0.57503  -0.55398  -0.55150  -0.52767
 Alpha  occ. eigenvalues --   -0.52601  -0.52546  -0.52258  -0.50082  -0.49761
 Alpha  occ. eigenvalues --   -0.47962  -0.47827  -0.46743  -0.46491  -0.45830
 Alpha  occ. eigenvalues --   -0.45772  -0.45715  -0.45649  -0.43767  -0.43714
 Alpha virt. eigenvalues --    0.21174   0.22974   0.23827   0.24663   0.26113
 Alpha virt. eigenvalues --    0.26340   0.26775   0.27407   0.27840   0.29027
 Alpha virt. eigenvalues --    0.30470   0.31234   0.31538   0.31832   0.32113

 Mulliken charges:
               1
     1  C   -0.304520
     2  C   -0.298574
     3  C   -0.482104
     4  H    0.154695
     5  H    0.149417
     6  H    0.152186
     7  H    0.151395
     8  H    0.153956
     9  H    0.163605
    10  H    0.159301
    11  C   -0.298090
    12  C   -0.299476
    13  C   -0.475651
    14  H    0.149390
    15  H    0.149642
    16  H    0.151256
    17  H    0.151961
    18  H    0.155205
    19  H    0.155108
    20  H    0.160140
    21  C   -0.298887
    22  C   -0.299741
    23  C   -0.482998
    24  H    0.149770
    25  H    0.149860
    26  H    0.151934
    27  H    0.152297
    28  H    0.156608
    29  H    0.156037
    30  H    0.165776
    31  C   -0.298275
    32  C   -0.299669
    33  C   -0.475733
    34  H    0.149566
    35  H    0.149764
    36  H    0.151993
    37  H    0.152047
    38  H    0.155238
    39  H    0.155204
    40  H    0.160368
 Sum of Mulliken charges =  -0.00000

 Dipole moment (field-independent basis, Debye):
    X=             -0.0582    Y=             -0.0081    Z=             -0.0004  Tot=              0.0588
 Quadrupole moment (field-independent basis, Debye-Ang):
   XX=            -85.4179   YY=            -85.6005   ZZ=            -83.9512
   XY=              0.2339   XZ=              0.6044   YZ=              0.2679

 Normal termination of Gaussian 16 at Wed May  5 23:06:03 2021.
