 Gaussian 16, Revision A.03,
 Gaussian 16:  EM64L-G16RevA.03 25-Dec-2016

 -------------
 #p 6-31g* mp2
 -------------

 ------------------------------------------------------
 Input file generated by CHIRIPA (05-May-2021 14:55:23)
 ------------------------------------------------------
 Symbolic Z-matrix:
 Charge =  0 Multiplicity = 1

                         Standard orientation:
 ---------------------------------------------------------------------
 Center     Atomic      Atomic             Coordinates (Angstroms)
 Number     Number       Type             X           Y           Z
 ---------------------------------------------------------------------
      1          6           0        1.679915    1.537822    1.534608
      2          6           0        2.935162    1.118430    1.987363
      3          6           0        3.719336    0.259699    1.211346
      4          6           0        3.214994   -0.162034   -0.017910
      5          6           0        1.968355    0.238209   -0.496436
      6          6           0        1.201362    1.097150    0.296337
      7          1           0        1.077423    2.204986    2.143945
      8          1           0        3.309361    1.459059    2.948608
      9          1           0        4.694630   -0.080517    1.537645
     10          1           0        1.622182   -0.118226   -1.459004
     11          1           0        0.226890    1.421228   -0.057815
     12          7           0        4.036070   -1.071244   -0.848314
     13          8           0        3.569078   -1.428541   -1.927616
     14          8           0        5.131073   -1.409371   -0.404157
     15          6           0       -4.038356    0.674062   -0.527179
     16          6           0       -2.795185    1.564253   -0.518674
     17          6           0       -3.003614    2.877932   -1.272728
     18          1           0       -4.321643    0.460691   -1.566970
     19          1           0       -4.878139    1.224693   -0.081126
     20          1           0       -1.957651    1.011610   -0.963351
     21          1           0       -2.514711    1.775372    0.521220
     22          1           0       -3.821282    3.452907   -0.826158
     23          1           0       -3.261056    2.684805   -2.319164
     24          1           0       -2.102535    3.498873   -1.254066
     25          6           0       -3.845602   -0.642869    0.222666
     26          6           0       -5.088772   -1.533060    0.214160
     27          6           0       -4.880342   -2.846739    0.968214
     28          1           0       -3.005818   -1.193500   -0.223389
     29          1           0       -3.562313   -0.429498    1.262457
     30          1           0       -5.369246   -1.744180   -0.825734
     31          1           0       -5.926306   -0.980417    0.658838
     32          1           0       -4.622901   -2.653613    2.014650
     33          1           0       -4.062675   -3.421715    0.521644
     34          1           0       -5.781422   -3.467680    0.949553
 ---------------------------------------------------------------------

 SCF Done:  E(RHF) =  -669.535461119     A.U. after   15 cycles
 E2 =    -0.2091272789D+01 EUMP2 =    -0.67162673390765D+03

 The electronic state is 1-A.
 Alpha  occ. eigenvalues --  -20.60717 -20.60712 -15.85768 -11.31118 -11.27681
 Alpha  occ. eigenvalues --  -11.27667 -11.27410 -11.26702 -11.26614 -11.22725
 Alpha  occ. eigenvalues --  -11.22152 -11.22058 -11.21999 -11.21969 -11.21411
 Alpha  occ. eigenvalues --   -1.59792  -1.39346  -1.19281  -1.09159  -1.08679
 Alpha  occ. eigenvalues --   -1.04682  -1.04246  -0.96651  -0.95520  -0.87669
 Alpha  occ. eigenvalues --   -0.86081  -0.82357  -0.80373  -0.78947  -0.77395
 Alpha  occ. eigenvalues --   -0.71987  -0.71115  -0.70396  -0.65790  -0.64931
 Alpha  occ. eigenvalues --   -0.64694  -0.62074  -0.61617  -0.60046  -0.58271
 Alpha  occ. eigenvalues --   -0.55912  -0.55183  -0.53375  -0.53081  -0.53008
 Alpha  occ. eigenvalues --   -0.52771  -0.50587  -0.48786  -0.48744  -0.48587
 Alpha  occ. eigenvalues --   -0.47397  -0.46465  -0.46373  -0.44756  -0.44483
 Alpha  occ. eigenvalues --   -0.37263  -0.36280
 Alpha virt. eigenvalues --    0.05125   0.11359   0.16614   0.20032   0.22491
 Alpha virt. eigenvalues --    0.23726   0.25364   0.25906   0.27069   0.28141
 Alpha virt. eigenvalues --    0.28848   0.30165   0.30692   0.31388   0.31919

 Mulliken charges:
               1
     1  C   -0.173467
     2  C   -0.218307
     3  C   -0.171533
     4  C    0.158940
     5  C   -0.174064
     6  C   -0.226331
     7  H    0.225372
     8  H    0.222966
     9  H    0.275257
    10  H    0.274746
    11  H    0.238106
    12  N    0.488100
    13  O   -0.460740
    14  O   -0.460687
    15  C   -0.297280
    16  C   -0.305614
    17  C   -0.476991
    18  H    0.153199
    19  H    0.152113
    20  H    0.146903
    21  H    0.148109
    22  H    0.159251
    23  H    0.160170
    24  H    0.157860
    25  C   -0.299222
    26  C   -0.300321
    27  C   -0.476263
    28  H    0.150634
    29  H    0.148855
    30  H    0.153611
    31  H    0.152439
    32  H    0.155082
    33  H    0.157091
    34  H    0.162018
 Sum of Mulliken charges =  -0.00000

 Dipole moment (field-independent basis, Debye):
    X=             -3.1457    Y=              3.1806    Z=              2.9003  Tot=              5.3313
 Quadrupole moment (field-independent basis, Debye-Ang):
   XX=           -110.2750   YY=            -97.1924   ZZ=            -92.2443
   XY=             10.7113   XZ=             12.3300   YZ=              0.3692

 Normal termination of Gaussian 16 at Wed May  5 16:04:12 2021.
