 Gaussian 16, Revision A.03,
 Gaussian 16:  EM64L-G16RevA.03 25-Dec-2016

 -------------
 #p 6-31g* mp2
 -------------

 ------------------------------------------------------
 Input file generated by CHIRIPA (05-May-2021 14:55:23)
 ------------------------------------------------------
 Symbolic Z-matrix:
 Charge =  0 Multiplicity = 1

                         Standard orientation:
 ---------------------------------------------------------------------
 Center     Atomic      Atomic             Coordinates (Angstroms)
 Number     Number       Type             X           Y           Z
 ---------------------------------------------------------------------
      1          6           0       -4.742996    0.080140   -1.007460
      2          6           0       -4.575248    0.472661    0.324571
      3          6           0       -3.361367    0.252315    0.982211
      4          6           0       -2.331742   -0.365894    0.274412
      5          6           0       -2.468093   -0.768420   -1.053244
      6          6           0       -3.690738   -0.538058   -1.690912
      7          1           0       -5.689371    0.255201   -1.510574
      8          1           0       -5.390709    0.952973    0.857833
      9          1           0       -3.204343    0.546091    2.012967
     10          1           0       -1.636912   -1.244994   -1.558649
     11          1           0       -3.818166   -0.843954   -2.725433
     12          7           0       -1.042021   -0.604466    0.960054
     13          8           0       -0.150359   -1.150987    0.314383
     14          8           0       -0.947222   -0.240421    2.130149
     15          6           0        2.690326    0.916901   -0.089318
     16          6           0        3.083840    2.363150   -0.391801
     17          6           0        1.940241    3.349384   -0.152385
     18          1           0        1.828939    0.639995   -0.712439
     19          1           0        2.356286    0.845910    0.955082
     20          1           0        3.418350    2.431119   -1.434921
     21          1           0        3.944512    2.636584    0.231974
     22          1           0        1.610478    3.310987    0.890871
     23          1           0        1.081328    3.104354   -0.785496
     24          1           0        2.243363    4.377258   -0.374765
     25          6           0        3.823090   -0.080871   -0.323892
     26          6           0        3.429576   -1.527121   -0.021410
     27          6           0        4.573174   -2.513355   -0.260825
     28          1           0        4.157131   -0.009880   -1.368291
     29          1           0        4.684477    0.196034    0.299229
     30          1           0        2.568905   -1.800554   -0.645184
     31          1           0        3.095066   -1.595089    1.021710
     32          1           0        5.432089   -2.268324    0.372286
     33          1           0        4.902938   -2.474958   -1.304081
     34          1           0        4.270054   -3.541229   -0.038445
 ---------------------------------------------------------------------

 SCF Done:  E(RHF) =  -669.535769548     A.U. after   15 cycles
 E2 =    -0.2092416601D+01 EUMP2 =    -0.67162818614841D+03

 The electronic state is 1-A.
 Alpha  occ. eigenvalues --  -20.60981 -20.60964 -15.85988 -11.31313 -11.27880
 Alpha  occ. eigenvalues --  -11.27869 -11.27609 -11.26882 -11.26871 -11.20613
 Alpha  occ. eigenvalues --  -11.20333 -11.20107 -11.19978 -11.19902 -11.19897
 Alpha  occ. eigenvalues --   -1.60023  -1.39584  -1.19480  -1.08885  -1.07139
 Alpha  occ. eigenvalues --   -1.04877  -1.02367  -0.95729  -0.94857  -0.86277
 Alpha  occ. eigenvalues --   -0.85885  -0.82570  -0.78396  -0.77630  -0.76875
 Alpha  occ. eigenvalues --   -0.72206  -0.71324  -0.70590  -0.65138  -0.64880
 Alpha  occ. eigenvalues --   -0.63785  -0.62226  -0.59782  -0.58230  -0.56441
 Alpha  occ. eigenvalues --   -0.55380  -0.54171  -0.53208  -0.52969  -0.51605
 Alpha  occ. eigenvalues --   -0.51278  -0.49010  -0.48979  -0.48828  -0.46730
 Alpha  occ. eigenvalues --   -0.45465  -0.45151  -0.44342  -0.44113  -0.42577
 Alpha  occ. eigenvalues --   -0.37455  -0.36477
 Alpha virt. eigenvalues --    0.04888   0.11176   0.16366   0.21272   0.24026
 Alpha virt. eigenvalues --    0.25320   0.27150   0.27643   0.28193   0.28791
 Alpha virt. eigenvalues --    0.29299   0.31023   0.32321   0.32482   0.32885

 Mulliken charges:
               1
     1  C   -0.170579
     2  C   -0.218496
     3  C   -0.170443
     4  C    0.158154
     5  C   -0.170952
     6  C   -0.218454
     7  H    0.226089
     8  H    0.223942
     9  H    0.275919
    10  H    0.275006
    11  H    0.223836
    12  N    0.492372
    13  O   -0.461058
    14  O   -0.459661
    15  C   -0.297744
    16  C   -0.299003
    17  C   -0.474637
    18  H    0.153239
    19  H    0.159816
    20  H    0.146689
    21  H    0.149179
    22  H    0.157632
    23  H    0.149767
    24  H    0.155829
    25  C   -0.299423
    26  C   -0.296658
    27  C   -0.475901
    28  H    0.141969
    29  H    0.144465
    30  H    0.160745
    31  H    0.160626
    32  H    0.151003
    33  H    0.149155
    34  H    0.157577
 Sum of Mulliken charges =  -0.00000

 Dipole moment (field-independent basis, Debye):
    X=             -4.8997    Y=              0.7055    Z=             -2.2605  Tot=              5.4420
 Quadrupole moment (field-independent basis, Debye-Ang):
   XX=            -75.2997   YY=            -96.7405   ZZ=            -91.9295
   XY=             -0.6882   XZ=              3.6575   YZ=              3.2744

 Normal termination of Gaussian 16 at Wed May  5 23:55:37 2021.
