 Gaussian 16, Revision A.03,
 Gaussian 16:  EM64L-G16RevA.03 25-Dec-2016

 -------------
 #p 6-31g* mp2
 -------------

 ------------------------------------------------------
 Input file generated by CHIRIPA (05-May-2021 14:57:24)
 ------------------------------------------------------
 Symbolic Z-matrix:
 Charge =  0 Multiplicity = 1

                         Standard orientation:
 ---------------------------------------------------------------------
 Center     Atomic      Atomic             Coordinates (Angstroms)
 Number     Number       Type             X           Y           Z
 ---------------------------------------------------------------------
      1          6           0        4.013546   -2.412805   -0.659694
      2          6           0        2.767487   -1.826582   -0.414334
      3          6           0        2.670848   -0.465750   -0.108810
      4          6           0        3.845879    0.282507   -0.056806
      5          6           0        5.101986   -0.272571   -0.296332
      6          6           0        5.174772   -1.635299   -0.600015
      7          1           0        4.079353   -3.470668   -0.896317
      8          1           0        1.863993   -2.427963   -0.459991
      9          1           0        1.719098    0.013664    0.085492
     10          1           0        5.985021    0.352635   -0.243552
     11          1           0        6.143830   -2.087886   -0.790109
     12          7           0        3.756198    1.724162    0.265664
     13          8           0        4.806272    2.361662    0.305346
     14          8           0        2.637530    2.189333    0.472628
     15          6           0       -6.112937    0.472260   -0.902821
     16          6           0       -5.953962   -0.652726   -0.086946
     17          6           0       -4.710626   -0.949005    0.479518
     18          6           0       -3.642918   -0.094902    0.207864
     19          6           0       -3.769602    1.033456   -0.600869
     20          6           0       -5.022172    1.310283   -1.156732
     21          1           0       -7.082376    0.694861   -1.338747
     22          1           0       -6.799304   -1.305318    0.111972
     23          1           0       -4.559578   -1.813308    1.114800
     24          1           0       -2.908362    1.665319   -0.780957
     25          1           0       -5.142700    2.184656   -1.789968
     26          7           0       -2.321765   -0.398263    0.801942
     27          8           0       -1.396785    0.369968    0.547247
     28          8           0       -2.236243   -1.398523    1.511027
 ---------------------------------------------------------------------

 SCF Done:  E(RHF) =  -868.339583746     A.U. after   16 cycles
 E2 =    -0.2598569545D+01 EUMP2 =    -0.87093815329067D+03

 The electronic state is 1-A.
 Alpha  occ. eigenvalues --  -20.61236 -20.61202 -20.59826 -20.59789 -15.86239
 Alpha  occ. eigenvalues --  -15.84859 -11.31425 -11.30142 -11.27991 -11.27941
 Alpha  occ. eigenvalues --  -11.27693 -11.26963 -11.26927 -11.26816 -11.26546
 Alpha  occ. eigenvalues --  -11.26533 -11.25835 -11.25662  -1.60285  -1.58893
 Alpha  occ. eigenvalues --   -1.39838  -1.38442  -1.19583  -1.18339  -1.09016
 Alpha  occ. eigenvalues --   -1.07772  -1.04956  -1.03713  -0.95876  -0.94601
 Alpha  occ. eigenvalues --   -0.86363  -0.85127  -0.82708  -0.81420  -0.77775
 Alpha  occ. eigenvalues --   -0.76453  -0.72459  -0.71593  -0.71080  -0.70688
 Alpha  occ. eigenvalues --   -0.70219  -0.69453  -0.65237  -0.64956  -0.63991
 Alpha  occ. eigenvalues --   -0.63720  -0.62299  -0.61022  -0.55470  -0.54276
 Alpha  occ. eigenvalues --   -0.53300  -0.53043  -0.52086  -0.51793  -0.49225
 Alpha  occ. eigenvalues --   -0.49214  -0.47854  -0.47819  -0.45278  -0.43866
 Alpha  occ. eigenvalues --   -0.37560  -0.36551  -0.36373  -0.35322
 Alpha virt. eigenvalues --    0.04728   0.06045   0.11105   0.12320   0.16248
 Alpha virt. eigenvalues --    0.17524   0.21261   0.22465   0.27199   0.28077
 Alpha virt. eigenvalues --    0.28443   0.29393   0.30854   0.31932   0.32395

 Mulliken charges:
               1
     1  C   -0.171306
     2  C   -0.221624
     3  C   -0.177481
     4  C    0.155958
     5  C   -0.171854
     6  C   -0.219864
     7  H    0.221935
     8  H    0.226940
     9  H    0.297413
    10  H    0.272161
    11  H    0.219257
    12  N    0.487146
    13  O   -0.466084
    14  O   -0.455979
    15  C   -0.170173
    16  C   -0.218772
    17  C   -0.170893
    18  C    0.156922
    19  C   -0.170875
    20  C   -0.218785
    21  H    0.226635
    22  H    0.223879
    23  H    0.275003
    24  H    0.279413
    25  H    0.225466
    26  N    0.489570
    27  O   -0.462055
    28  O   -0.461956
 Sum of Mulliken charges =  -0.00000

 Dipole moment (field-independent basis, Debye):
    X=             -4.8211    Y=             -3.9285    Z=             -3.2077  Tot=              6.9975
 Quadrupole moment (field-independent basis, Debye-Ang):
   XX=            -64.5211   YY=           -105.7286   ZZ=           -106.1269
   XY=            -20.9755   XZ=              1.3058   YZ=             -1.8554

 Normal termination of Gaussian 16 at Thu May  6 14:40:12 2021.
