 Gaussian 16, Revision A.03,
 Gaussian 16:  EM64L-G16RevA.03 25-Dec-2016

 -------------
 #p 6-31g* mp2
 -------------

 ------------------------------------------------------
 Input file generated by CHIRIPA (05-May-2021 14:51:13)
 ------------------------------------------------------
 Symbolic Z-matrix:
 Charge =  0 Multiplicity = 1

                         Standard orientation:
 ---------------------------------------------------------------------
 Center     Atomic      Atomic             Coordinates (Angstroms)
 Number     Number       Type             X           Y           Z
 ---------------------------------------------------------------------
      1          6           0        4.334919    0.016259    0.176567
      2          6           0        5.677633   -0.511192   -0.330286
      3          6           0        6.827077    0.467219   -0.086800
      4          1           0        4.114457    0.973103   -0.316172
      5          1           0        4.414779    0.229360    1.251558
      6          1           0        5.594858   -0.724541   -1.403713
      7          1           0        5.894833   -1.466986    0.163574
      8          1           0        6.938383    0.672279    0.982855
      9          1           0        6.636705    1.418943   -0.593337
     10          1           0        7.777484    0.070132   -0.456810
     11          6           0        3.176036   -0.950650   -0.059665
     12          6           0        1.833322   -0.423199    0.447188
     13          6           0        0.683878   -1.401609    0.203702
     14          1           0        3.096176   -1.163751   -1.134656
     15          1           0        3.396498   -1.907494    0.433074
     16          1           0        1.616123    0.532596   -0.046672
     17          1           0        1.916097   -0.209850    1.520616
     18          1           0        0.874251   -2.353334    0.710239
     19          1           0        0.572572   -1.606670   -0.865953
     20          1           0       -0.266529   -1.004523    0.573713
     21          6           0       -4.424711    0.145557    0.120732
     22          6           0       -4.538500   -1.310276   -0.332687
     23          6           0       -5.882965   -1.939958    0.032975
     24          1           0       -4.571514    0.196764    1.208285
     25          1           0       -5.238813    0.728107   -0.332334
     26          1           0       -3.723611   -1.889627    0.120000
     27          1           0       -4.391219   -1.358045   -1.419260
     28          1           0       -6.706190   -1.387084   -0.430957
     29          1           0       -6.034789   -1.921686    1.117049
     30          1           0       -5.942801   -2.980672   -0.300482
     31          6           0       -3.086244    0.788834   -0.237633
     32          6           0       -2.972455    2.244667    0.215784
     33          6           0       -1.627990    2.874349   -0.149877
     34          1           0       -2.272143    0.206283    0.215432
     35          1           0       -2.939441    0.737628   -1.325187
     36          1           0       -3.119736    2.292436    1.302359
     37          1           0       -3.787344    2.824018   -0.236901
     38          1           0       -1.476167    2.856077   -1.233951
     39          1           0       -0.804766    2.321475    0.314055
     40          1           0       -1.568155    3.915063    0.183581
 ---------------------------------------------------------------------

 SCF Done:  E(RHF) =  -470.733295308     A.U. after   11 cycles
 E2 =    -0.1582910924D+01 EUMP2 =    -0.47231620623268D+03

 The electronic state is 1-A.
 Alpha  occ. eigenvalues --  -11.21616 -11.21600 -11.21595 -11.21576 -11.21408
 Alpha  occ. eigenvalues --  -11.21384 -11.21348 -11.21323 -11.21074 -11.21068
 Alpha  occ. eigenvalues --  -11.21067 -11.21051  -1.08439  -1.08412  -1.03543
 Alpha  occ. eigenvalues --   -1.03508  -0.95992  -0.95960  -0.87022  -0.86963
 Alpha  occ. eigenvalues --   -0.79600  -0.79576  -0.78246  -0.78232  -0.65084
 Alpha  occ. eigenvalues --   -0.65042  -0.60962  -0.60890  -0.59416  -0.59283
 Alpha  occ. eigenvalues --   -0.57624  -0.57555  -0.55267  -0.55263  -0.52754
 Alpha  occ. eigenvalues --   -0.52645  -0.52450  -0.52327  -0.49952  -0.49881
 Alpha  occ. eigenvalues --   -0.47920  -0.47892  -0.46651  -0.46581  -0.45791
 Alpha  occ. eigenvalues --   -0.45759  -0.45713  -0.45681  -0.43780  -0.43727
 Alpha virt. eigenvalues --    0.20808   0.23044   0.23602   0.24736   0.25908
 Alpha virt. eigenvalues --    0.26270   0.26973   0.27154   0.28212   0.29055
 Alpha virt. eigenvalues --    0.30526   0.31386   0.31727   0.31872   0.32065

 Mulliken charges:
               1
     1  C   -0.298355
     2  C   -0.299660
     3  C   -0.475717
     4  H    0.149945
     5  H    0.149470
     6  H    0.151964
     7  H    0.151898
     8  H    0.155166
     9  H    0.155268
    10  H    0.160241
    11  C   -0.298443
    12  C   -0.301535
    13  C   -0.481706
    14  H    0.149716
    15  H    0.149689
    16  H    0.154233
    17  H    0.151488
    18  H    0.155034
    19  H    0.155998
    20  H    0.165191
    21  C   -0.297693
    22  C   -0.299924
    23  C   -0.475695
    24  H    0.149339
    25  H    0.149489
    26  H    0.152413
    27  H    0.151966
    28  H    0.155092
    29  H    0.155092
    30  H    0.160293
    31  C   -0.306524
    32  C   -0.299058
    33  C   -0.478361
    34  H    0.157459
    35  H    0.149613
    36  H    0.151696
    37  H    0.151984
    38  H    0.154942
    39  H    0.157703
    40  H    0.160289
 Sum of Mulliken charges =  -0.00000

 Dipole moment (field-independent basis, Debye):
    X=              0.0099    Y=             -0.0048    Z=             -0.0089  Tot=              0.0142
 Quadrupole moment (field-independent basis, Debye-Ang):
   XX=            -86.3840   YY=            -85.2496   ZZ=            -83.1734
   XY=             -1.2787   XZ=              0.5872   YZ=             -0.6247

 Normal termination of Gaussian 16 at Wed May  5 19:57:25 2021.
