 Gaussian 16, Revision A.03,
 Gaussian 16:  EM64L-G16RevA.03 25-Dec-2016

 -------------
 #p 6-31g* mp2
 -------------

 ------------------------------------------------------
 Input file generated by CHIRIPA (05-May-2021 14:57:27)
 ------------------------------------------------------
 Symbolic Z-matrix:
 Charge =  0 Multiplicity = 1

                         Standard orientation:
 ---------------------------------------------------------------------
 Center     Atomic      Atomic             Coordinates (Angstroms)
 Number     Number       Type             X           Y           Z
 ---------------------------------------------------------------------
      1          6           0        3.604294    1.529118   -0.743758
      2          6           0        2.920633    1.659266    0.469580
      3          6           0        2.238222    0.570464    1.020374
      4          6           0        2.260369   -0.639211    0.327925
      5          6           0        2.932378   -0.800377   -0.882743
      6          6           0        3.607978    0.301875   -1.414865
      7          1           0        4.131761    2.380150   -1.164376
      8          1           0        2.916063    2.611151    0.992972
      9          1           0        1.700891    0.643429    1.958121
     10          1           0        2.918928   -1.761988   -1.381282
     11          1           0        4.138073    0.197888   -2.357325
     12          7           0        1.541536   -1.798996    0.901142
     13          8           0        1.576249   -2.853978    0.271503
     14          8           0        0.957014   -1.631093    1.969215
     15          6           0       -1.229370    2.646282    0.227504
     16          6           0       -2.462839    2.362924    0.823142
     17          6           0       -3.108806    1.148160    0.574902
     18          6           0       -2.489967    0.235548   -0.278015
     19          6           0       -1.261558    0.488662   -0.886486
     20          6           0       -0.633717    1.709897   -0.623907
     21          1           0       -0.734607    3.592452    0.425913
     22          1           0       -2.927778    3.088252    1.484789
     23          1           0       -4.064182    0.903026    1.022770
     24          1           0       -0.822814   -0.254196   -1.541530
     25          1           0        0.324163    1.927254   -1.087876
     26          7           0       -3.164230   -1.053893   -0.548405
     27          8           0       -2.598154   -1.841176   -1.303641
     28          8           0       -4.246025   -1.252859    0.000018
 ---------------------------------------------------------------------

 SCF Done:  E(RHF) =  -868.335573934     A.U. after   16 cycles
 E2 =    -0.2604354139D+01 EUMP2 =    -0.87093992807287D+03

 The electronic state is 1-A.
 Alpha  occ. eigenvalues --  -20.61038 -20.61015 -20.60348 -20.60326 -15.86093
 Alpha  occ. eigenvalues --  -15.85397 -11.31772 -11.30977 -11.28402 -11.28391
 Alpha  occ. eigenvalues --  -11.28252 -11.27518 -11.27512 -11.27492 -11.27471
 Alpha  occ. eigenvalues --  -11.27373 -11.26661 -11.26590  -1.60098  -1.59403
 Alpha  occ. eigenvalues --   -1.39641  -1.38954  -1.20038  -1.19151  -1.09358
 Alpha  occ. eigenvalues --   -1.08532  -1.05470  -1.04584  -0.96120  -0.95333
 Alpha  occ. eigenvalues --   -0.86831  -0.85987  -0.82937  -0.82159  -0.77922
 Alpha  occ. eigenvalues --   -0.77163  -0.72300  -0.71624  -0.71448  -0.71095
 Alpha  occ. eigenvalues --   -0.70710  -0.70306  -0.65650  -0.65439  -0.64813
 Alpha  occ. eigenvalues --   -0.64627  -0.62772  -0.61959  -0.55942  -0.55169
 Alpha  occ. eigenvalues --   -0.54003  -0.53527  -0.52837  -0.52508  -0.49083
 Alpha  occ. eigenvalues --   -0.49037  -0.48393  -0.48360  -0.44968  -0.44312
 Alpha  occ. eigenvalues --   -0.38147  -0.37595  -0.36898  -0.35816
 Alpha virt. eigenvalues --    0.04535   0.05382   0.10424   0.11526   0.16002
 Alpha virt. eigenvalues --    0.16816   0.20619   0.21635   0.26473   0.27357
 Alpha virt. eigenvalues --    0.27722   0.28319   0.30395   0.31022   0.32071

 Mulliken charges:
               1
     1  C   -0.175722
     2  C   -0.227491
     3  C   -0.164580
     4  C    0.157166
     5  C   -0.174392
     6  C   -0.220462
     7  H    0.227000
     8  H    0.221963
     9  H    0.278424
    10  H    0.280521
    11  H    0.226669
    12  N    0.487843
    13  O   -0.453937
    14  O   -0.457962
    15  C   -0.177813
    16  C   -0.216831
    17  C   -0.170277
    18  C    0.165042
    19  C   -0.177255
    20  C   -0.217646
    21  H    0.218810
    22  H    0.222157
    23  H    0.276296
    24  H    0.275072
    25  H    0.225725
    26  N    0.488900
    27  O   -0.456924
    28  O   -0.460298
 Sum of Mulliken charges =  -0.00000

 Dipole moment (field-independent basis, Debye):
    X=              4.9227    Y=              8.2730    Z=             -1.0011  Tot=              9.6787
 Quadrupole moment (field-independent basis, Debye-Ang):
   XX=           -102.6011   YY=           -107.2655   ZZ=           -102.6347
   XY=             -5.2478   XZ=            -10.8047   YZ=              5.1262

 Normal termination of Gaussian 16 at Wed May  5 18:04:07 2021.
