 Gaussian 16, Revision A.03,
 Gaussian 16:  EM64L-G16RevA.03 25-Dec-2016

 -------------
 #p 6-31g* mp2
 -------------

 ------------------------------------------------------
 Input file generated by CHIRIPA (05-May-2021 14:51:09)
 ------------------------------------------------------
 Symbolic Z-matrix:
 Charge =  0 Multiplicity = 1

                         Standard orientation:
 ---------------------------------------------------------------------
 Center     Atomic      Atomic             Coordinates (Angstroms)
 Number     Number       Type             X           Y           Z
 ---------------------------------------------------------------------
      1          6           0       -4.127604   -0.477667    0.291581
      2          6           0       -4.919721    0.480618   -0.598491
      3          6           0       -6.295645    0.819770   -0.024382
      4          1           0       -4.706062   -1.401175    0.431100
      5          1           0       -4.009870   -0.029086    1.287728
      6          1           0       -5.034733    0.030963   -1.593076
      7          1           0       -4.339226    1.401875   -0.736064
      8          1           0       -6.197277    1.291494    0.958675
      9          1           0       -6.896736   -0.087208    0.096793
     10          1           0       -6.844739    1.506058   -0.676582
     11          6           0       -2.749914   -0.826178   -0.268989
     12          6           0       -1.957798   -1.784463    0.621082
     13          6           0       -0.581873   -2.123615    0.046974
     14          1           0       -2.867649   -1.274759   -1.265136
     15          1           0       -2.171457    0.097330   -0.408508
     16          1           0       -2.538293   -2.705721    0.758655
     17          1           0       -1.842786   -1.334808    1.615667
     18          1           0        0.019217   -1.216638   -0.074202
     19          1           0       -0.680242   -2.595339   -0.936083
     20          1           0       -0.032780   -2.809903    0.699174
     21          6           0        4.145290    0.464349    0.210207
     22          6           0        4.697836   -0.768729   -0.505473
     23          6           0        6.112141   -1.131431   -0.051621
     24          1           0        4.817923    1.314896    0.033915
     25          1           0        4.148365    0.282806    1.293918
     26          1           0        4.692426   -0.585441   -1.587597
     27          1           0        4.023708   -1.616392   -0.327614
     28          1           0        6.130131   -1.340793    1.022829
     29          1           0        6.802650   -0.303984   -0.244311
     30          1           0        6.487618   -2.015740   -0.575906
     31          6           0        2.732230    0.839496   -0.232799
     32          6           0        2.179683    2.072574    0.482880
     33          6           0        0.765378    2.435277    0.029030
     34          1           0        2.729153    1.021039   -1.316509
     35          1           0        2.059597   -0.011051   -0.056507
     36          1           0        2.853811    2.920237    0.305023
     37          1           0        2.185093    1.889286    1.565005
     38          1           0        0.074869    1.607830    0.221720
     39          1           0        0.747387    2.644638   -1.045421
     40          1           0        0.389901    3.319586    0.553315
 ---------------------------------------------------------------------

 SCF Done:  E(RHF) =  -470.733160848     A.U. after   11 cycles
 E2 =    -0.1583365441D+01 EUMP2 =    -0.47231652628870D+03

 The electronic state is 1-A.
 Alpha  occ. eigenvalues --  -11.21633 -11.21625 -11.21583 -11.21576 -11.21402
 Alpha  occ. eigenvalues --  -11.21394 -11.21342 -11.21334 -11.21141 -11.21091
 Alpha  occ. eigenvalues --  -11.21057 -11.21053  -1.08447  -1.08420  -1.03558
 Alpha  occ. eigenvalues --   -1.03521  -0.96006  -0.95976  -0.87038  -0.86980
 Alpha  occ. eigenvalues --   -0.79651  -0.79558  -0.78297  -0.78191  -0.65175
 Alpha  occ. eigenvalues --   -0.64974  -0.61069  -0.60815  -0.59385  -0.59329
 Alpha  occ. eigenvalues --   -0.57636  -0.57567  -0.55390  -0.55190  -0.52701
 Alpha  occ. eigenvalues --   -0.52678  -0.52501  -0.52331  -0.50068  -0.49819
 Alpha  occ. eigenvalues --   -0.48066  -0.47835  -0.46828  -0.46530  -0.45935
 Alpha  occ. eigenvalues --   -0.45743  -0.45728  -0.45345  -0.43794  -0.43786
 Alpha virt. eigenvalues --    0.20220   0.22971   0.23675   0.24948   0.25720
 Alpha virt. eigenvalues --    0.26041   0.27148   0.27249   0.28608   0.29209
 Alpha virt. eigenvalues --    0.30603   0.31659   0.31688   0.31815   0.31948

 Mulliken charges:
               1
     1  C   -0.298056
     2  C   -0.299838
     3  C   -0.475715
     4  H    0.149601
     5  H    0.149506
     6  H    0.151880
     7  H    0.152553
     8  H    0.155191
     9  H    0.155071
    10  H    0.160267
    11  C   -0.302933
    12  C   -0.298863
    13  C   -0.485143
    14  H    0.149782
    15  H    0.153852
    16  H    0.152198
    17  H    0.151477
    18  H    0.163165
    19  H    0.155987
    20  H    0.159761
    21  C   -0.297557
    22  C   -0.299916
    23  C   -0.475723
    24  H    0.149559
    25  H    0.149391
    26  H    0.151914
    27  H    0.152752
    28  H    0.155115
    29  H    0.155057
    30  H    0.160271
    31  C   -0.307243
    32  C   -0.299164
    33  C   -0.481368
    34  H    0.149507
    35  H    0.158464
    36  H    0.152287
    37  H    0.151794
    38  H    0.158717
    39  H    0.155835
    40  H    0.160564
 Sum of Mulliken charges =  -0.00000

 Dipole moment (field-independent basis, Debye):
    X=              0.0030    Y=              0.0018    Z=             -0.0131  Tot=              0.0136
 Quadrupole moment (field-independent basis, Debye-Ang):
   XX=            -86.5796   YY=            -84.0585   ZZ=            -84.1295
   XY=              1.2820   XZ=             -0.0097   YZ=             -0.0395

 Normal termination of Gaussian 16 at Thu May  6 02:07:59 2021.
