 Gaussian 16, Revision A.03,
 Gaussian 16:  EM64L-G16RevA.03 25-Dec-2016

 -------------
 #p 6-31g* mp2
 -------------

 ------------------------------------------------------
 Input file generated by CHIRIPA (05-May-2021 14:55:25)
 ------------------------------------------------------
 Symbolic Z-matrix:
 Charge =  0 Multiplicity = 1

                         Standard orientation:
 ---------------------------------------------------------------------
 Center     Atomic      Atomic             Coordinates (Angstroms)
 Number     Number       Type             X           Y           Z
 ---------------------------------------------------------------------
      1          6           0       -0.908369   -0.690403    0.867819
      2          6           0       -1.609224    0.422403    1.344250
      3          6           0       -2.932798    0.648058    0.954659
      4          6           0       -3.527308   -0.263480    0.083484
      5          6           0       -2.855414   -1.381459   -0.408421
      6          6           0       -1.532600   -1.587201   -0.005456
      7          1           0        0.119520   -0.857963    1.175657
      8          1           0       -1.126975    1.120536    2.022549
      9          1           0       -3.498659    1.501381    1.308297
     10          1           0       -3.362873   -2.059816   -1.083503
     11          1           0       -0.990746   -2.452277   -0.377052
     12          7           0       -4.928114   -0.035129   -0.336037
     13          8           0       -5.429312   -0.853035   -1.104456
     14          8           0       -5.498344    0.957434    0.111505
     15          6           0        4.611225   -0.176364    0.142763
     16          6           0        6.030656   -0.338808   -0.402042
     17          6           0        6.801827   -1.466636    0.284319
     18          1           0        4.659794    0.015474    1.223404
     19          1           0        4.067313   -1.122861    0.017467
     20          1           0        6.571293    0.608134   -0.277016
     21          1           0        5.978712   -0.530091   -1.481545
     22          1           0        6.287311   -2.423406    0.148424
     23          1           0        6.883260   -1.278715    1.359798
     24          1           0        7.813909   -1.565200   -0.120448
     25          6           0        3.827657    0.947218   -0.533486
     26          6           0        2.408226    1.109661    0.011318
     27          6           0        1.637056    2.237490   -0.675043
     28          1           0        4.371569    1.893714   -0.408190
     29          1           0        3.779088    0.755380   -1.614127
     30          1           0        2.460171    1.300945    1.090822
     31          1           0        1.867589    0.162720   -0.113708
     32          1           0        1.555623    2.049567   -1.750521
     33          1           0        2.151571    3.194260   -0.539147
     34          1           0        0.624974    2.336054   -0.270276
 ---------------------------------------------------------------------

 SCF Done:  E(RHF) =  -669.535336590     A.U. after   15 cycles
 E2 =    -0.2092058686D+01 EUMP2 =    -0.67162739527635D+03

 The electronic state is 1-A.
 Alpha  occ. eigenvalues --  -20.60763 -20.60758 -15.85818 -11.31189 -11.27773
 Alpha  occ. eigenvalues --  -11.27769 -11.27468 -11.26777 -11.26765 -11.22575
 Alpha  occ. eigenvalues --  -11.22215 -11.22163 -11.22106 -11.21768 -11.21614
 Alpha  occ. eigenvalues --   -1.59839  -1.39392  -1.19369  -1.09196  -1.08755
 Alpha  occ. eigenvalues --   -1.04775  -1.04256  -0.96669  -0.95589  -0.87683
 Alpha  occ. eigenvalues --   -0.86167  -0.82431  -0.80354  -0.79024  -0.77471
 Alpha  occ. eigenvalues --   -0.72035  -0.71162  -0.70479  -0.65821  -0.65019
 Alpha  occ. eigenvalues --   -0.64780  -0.62125  -0.61654  -0.60060  -0.58307
 Alpha  occ. eigenvalues --   -0.55951  -0.55269  -0.53408  -0.53169  -0.52958
 Alpha  occ. eigenvalues --   -0.52848  -0.50602  -0.48809  -0.48790  -0.48623
 Alpha  occ. eigenvalues --   -0.47380  -0.46540  -0.46470  -0.44797  -0.44507
 Alpha  occ. eigenvalues --   -0.37307  -0.36376
 Alpha virt. eigenvalues --    0.05042   0.11175   0.16445   0.20360   0.22425
 Alpha virt. eigenvalues --    0.23876   0.25422   0.26099   0.26610   0.27875
 Alpha virt. eigenvalues --    0.29037   0.30258   0.30896   0.31472   0.32128

 Mulliken charges:
               1
     1  C   -0.168760
     2  C   -0.220464
     3  C   -0.171380
     4  C    0.158470
     5  C   -0.170354
     6  C   -0.220408
     7  H    0.229791
     8  H    0.224144
     9  H    0.275744
    10  H    0.275638
    11  H    0.223140
    12  N    0.488122
    13  O   -0.460475
    14  O   -0.460407
    15  C   -0.298397
    16  C   -0.300115
    17  C   -0.476055
    18  H    0.149250
    19  H    0.145623
    20  H    0.153744
    21  H    0.153315
    22  H    0.154661
    23  H    0.155504
    24  H    0.162469
    25  C   -0.297890
    26  C   -0.303714
    27  C   -0.476905
    28  H    0.152571
    29  H    0.152322
    30  H    0.147580
    31  H    0.145906
    32  H    0.159148
    33  H    0.157420
    34  H    0.160760
 Sum of Mulliken charges =  -0.00000

 Dipole moment (field-independent basis, Debye):
    X=              5.0541    Y=             -0.7630    Z=              1.4199  Tot=              5.3049
 Quadrupole moment (field-independent basis, Debye-Ang):
   XX=           -130.0389   YY=            -91.2029   ZZ=            -93.1499
   XY=              2.2704   XZ=             -5.1624   YZ=              2.9422

 Normal termination of Gaussian 16 at Thu May  6 03:15:18 2021.
