 Gaussian 16, Revision A.03,
 Gaussian 16:  EM64L-G16RevA.03 25-Dec-2016

 -------------
 #p 6-31g* mp2
 -------------

 ------------------------------------------------------
 Input file generated by CHIRIPA (05-May-2021 14:53:12)
 ------------------------------------------------------
 Symbolic Z-matrix:
 Charge =  0 Multiplicity = 1

                         Standard orientation:
 ---------------------------------------------------------------------
 Center     Atomic      Atomic             Coordinates (Angstroms)
 Number     Number       Type             X           Y           Z
 ---------------------------------------------------------------------
      1          6           0        2.188035    1.156476    0.120003
      2          6           0        2.165151    2.610912   -0.351249
      3          6           0        1.035611    3.420994    0.285697
      4          1           0        1.222235    0.687203   -0.112287
      5          1           0        2.291301    1.134303    1.213730
      6          1           0        2.063350    2.630312   -1.443895
      7          1           0        3.131186    3.076722   -0.117983
      8          1           0        1.136331    3.431417    1.375811
      9          1           0        0.062427    2.982470    0.042365
     10          1           0        1.037843    4.457704   -0.065142
     11          6           0        3.311686    0.333799   -0.507960
     12          6           0        3.334570   -1.120637   -0.036708
     13          6           0        4.464110   -1.930719   -0.673655
     14          1           0        3.208420    0.355972   -1.601688
     15          1           0        4.277486    0.803072   -0.275671
     16          1           0        2.368535   -1.586447   -0.269974
     17          1           0        3.436371   -1.140037    1.055938
     18          1           0        5.437294   -1.492195   -0.430322
     19          1           0        4.363390   -1.941142   -1.763768
     20          1           0        4.461878   -2.967429   -0.322816
     21          6           0       -0.291955   -2.056716    1.014926
     22          6           0       -0.503052   -0.794351    1.579190
     23          6           0       -1.528629    0.031146    1.108768
     24          6           0       -2.327796   -0.439582    0.068078
     25          6           0       -2.142519   -1.692285   -0.514759
     26          6           0       -1.110920   -2.500871   -0.028408
     27          1           0        0.507077   -2.691413    1.386547
     28          1           0        0.131413   -0.446806    2.389567
     29          1           0       -1.714151    1.012858    1.527384
     30          1           0       -2.791346   -2.011247   -1.321423
     31          1           0       -0.949295   -3.480775   -0.468533
     32          7           0       -3.416717    0.425383   -0.438368
     33          8           0       -4.106971   -0.012535   -1.356198
     34          8           0       -3.559339    1.524883    0.092100
 ---------------------------------------------------------------------

 SCF Done:  E(RHF) =  -669.534064105     A.U. after   15 cycles
 E2 =    -0.2095007638D+01 EUMP2 =    -0.67162907174244D+03

 The electronic state is 1-A.
 Alpha  occ. eigenvalues --  -20.60829 -20.60824 -15.85879 -11.31262 -11.27802
 Alpha  occ. eigenvalues --  -11.27768 -11.27498 -11.26843 -11.26773 -11.22262
 Alpha  occ. eigenvalues --  -11.21840 -11.21824 -11.21681 -11.21665 -11.21248
 Alpha  occ. eigenvalues --   -1.59903  -1.39455  -1.19429  -1.08916  -1.08766
 Alpha  occ. eigenvalues --   -1.04824  -1.03959  -0.96388  -0.95647  -0.87410
 Alpha  occ. eigenvalues --   -0.86211  -0.82478  -0.80049  -0.78724  -0.77504
 Alpha  occ. eigenvalues --   -0.72093  -0.71227  -0.70508  -0.65506  -0.65063
 Alpha  occ. eigenvalues --   -0.64809  -0.62160  -0.61354  -0.59786  -0.58022
 Alpha  occ. eigenvalues --   -0.55672  -0.55300  -0.53362  -0.53041  -0.52963
 Alpha  occ. eigenvalues --   -0.52688  -0.50333  -0.48857  -0.48850  -0.48366
 Alpha  occ. eigenvalues --   -0.47096  -0.46223  -0.46087  -0.44851  -0.44192
 Alpha  occ. eigenvalues --   -0.37330  -0.36304
 Alpha virt. eigenvalues --    0.04949   0.11100   0.16374   0.20469   0.22850
 Alpha virt. eigenvalues --    0.23467   0.25147   0.26536   0.27093   0.28067
 Alpha virt. eigenvalues --    0.29162   0.30225   0.31305   0.31573   0.31699

 Mulliken charges:
               1
     1  C   -0.305399
     2  C   -0.299224
     3  C   -0.478981
     4  H    0.161922
     5  H    0.139530
     6  H    0.154472
     7  H    0.151526
     8  H    0.150132
     9  H    0.159986
    10  H    0.164483
    11  C   -0.296847
    12  C   -0.305148
    13  C   -0.475164
    14  H    0.152031
    15  H    0.150418
    16  H    0.152649
    17  H    0.145071
    18  H    0.157615
    19  H    0.157568
    20  H    0.157081
    21  C   -0.169875
    22  C   -0.215435
    23  C   -0.173765
    24  C    0.158716
    25  C   -0.171600
    26  C   -0.220124
    27  H    0.228137
    28  H    0.225660
    29  H    0.277234
    30  H    0.275683
    31  H    0.223937
    32  N    0.488132
    33  O   -0.460050
    34  O   -0.460371
 Sum of Mulliken charges =  -0.00000

 Dipole moment (field-independent basis, Debye):
    X=              3.7743    Y=             -3.0095    Z=              1.7127  Tot=              5.1221
 Quadrupole moment (field-independent basis, Debye-Ang):
   XX=           -113.5234   YY=            -90.2769   ZZ=            -92.2719
   XY=              7.2042   XZ=             -2.4753   YZ=              1.4588

 Normal termination of Gaussian 16 at Thu May  6 00:56:10 2021.
