 Gaussian 16, Revision A.03,
 Gaussian 16:  EM64L-G16RevA.03 25-Dec-2016

 -------------
 #p 6-31g* mp2
 -------------

 ------------------------------------------------------
 Input file generated by CHIRIPA (05-May-2021 14:51:09)
 ------------------------------------------------------
 Symbolic Z-matrix:
 Charge =  0 Multiplicity = 1

                         Standard orientation:
 ---------------------------------------------------------------------
 Center     Atomic      Atomic             Coordinates (Angstroms)
 Number     Number       Type             X           Y           Z
 ---------------------------------------------------------------------
      1          6           0       -3.559664   -0.568138   -0.239020
      2          6           0       -3.571909   -1.829259    0.625508
      3          6           0       -2.760396   -2.972338    0.015089
      4          1           0       -3.955831   -0.810012   -1.234757
      5          1           0       -2.520405   -0.243229   -0.386565
      6          1           0       -4.610921   -2.150903    0.772529
      7          1           0       -3.175845   -1.584312    1.619364
      8          1           0       -1.714861   -2.675291   -0.116138
      9          1           0       -3.158092   -3.245101   -0.967785
     10          1           0       -2.782713   -3.863938    0.649448
     11          6           0       -4.366610    0.583460    0.357962
     12          6           0       -4.354365    1.844581   -0.506566
     13          6           0       -5.165878    2.987660    0.103853
     14          1           0       -5.405869    0.258551    0.505507
     15          1           0       -3.970443    0.825333    1.353699
     16          1           0       -4.750429    1.599634   -1.500422
     17          1           0       -3.315353    2.166224   -0.653587
     18          1           0       -4.768182    3.260423    1.086727
     19          1           0       -6.211413    2.690613    0.235080
     20          1           0       -5.143561    3.879260   -0.530506
     21          6           0        3.495682   -0.597775   -0.188633
     22          6           0        2.015575   -0.214536   -0.168735
     23          6           0        1.092947   -1.405739   -0.428710
     24          1           0        3.738750   -1.046142   -1.161685
     25          1           0        3.676345   -1.374509    0.567303
     26          1           0        1.838029    0.562233   -0.923535
     27          1           0        1.776047    0.233146    0.804314
     28          1           0        1.240937   -2.180530    0.330500
     29          1           0        1.303269   -1.849572   -1.407166
     30          1           0        0.039570   -1.109246   -0.410026
     31          6           0        4.430592    0.582454    0.069692
     32          6           0        5.910699    0.199214    0.049793
     33          6           0        6.833327    1.390417    0.309768
     34          1           0        4.249930    1.359188   -0.686245
     35          1           0        4.187524    1.030820    1.042743
     36          1           0        6.150227   -0.248467   -0.923255
     37          1           0        6.088246   -0.577555    0.804592
     38          1           0        6.623004    1.834251    1.288224
     39          1           0        6.685338    2.165209   -0.449441
     40          1           0        7.886703    1.093924    0.291084
 ---------------------------------------------------------------------

 SCF Done:  E(RHF) =  -470.733014539     A.U. after   11 cycles
 E2 =    -0.1582824860D+01 EUMP2 =    -0.47231583939852D+03

 The electronic state is 1-A.
 Alpha  occ. eigenvalues --  -11.21657 -11.21622 -11.21595 -11.21556 -11.21438
 Alpha  occ. eigenvalues --  -11.21400 -11.21378 -11.21341 -11.21132 -11.21088
 Alpha  occ. eigenvalues --  -11.21066 -11.20933  -1.08467  -1.08413  -1.03579
 Alpha  occ. eigenvalues --   -1.03489  -0.96039  -0.95930  -0.87071  -0.86936
 Alpha  occ. eigenvalues --   -0.79675  -0.79524  -0.78280  -0.78227  -0.65096
 Alpha  occ. eigenvalues --   -0.65056  -0.60987  -0.60920  -0.59465  -0.59243
 Alpha  occ. eigenvalues --   -0.57648  -0.57538  -0.55337  -0.55214  -0.52800
 Alpha  occ. eigenvalues --   -0.52632  -0.52447  -0.52316  -0.49987  -0.49845
 Alpha  occ. eigenvalues --   -0.47983  -0.47846  -0.46674  -0.46577  -0.45819
 Alpha  occ. eigenvalues --   -0.45769  -0.45742  -0.45698  -0.43777  -0.43730
 Alpha virt. eigenvalues --    0.21223   0.23020   0.23637   0.24900   0.26072
 Alpha virt. eigenvalues --    0.26615   0.27171   0.27247   0.27886   0.28866
 Alpha virt. eigenvalues --    0.30635   0.31079   0.31452   0.31825   0.31987

 Mulliken charges:
               1
     1  C   -0.302640
     2  C   -0.299115
     3  C   -0.483523
     4  H    0.149927
     5  H    0.152169
     6  H    0.151772
     7  H    0.151487
     8  H    0.164823
     9  H    0.154510
    10  H    0.159628
    11  C   -0.298049
    12  C   -0.299699
    13  C   -0.475696
    14  H    0.149723
    15  H    0.149616
    16  H    0.151950
    17  H    0.151904
    18  H    0.155176
    19  H    0.155189
    20  H    0.160227
    21  C   -0.298755
    22  C   -0.299567
    23  C   -0.482947
    24  H    0.149877
    25  H    0.149699
    26  H    0.152052
    27  H    0.151798
    28  H    0.155923
    29  H    0.156317
    30  H    0.165901
    31  C   -0.298287
    32  C   -0.299651
    33  C   -0.475722
    34  H    0.149587
    35  H    0.149631
    36  H    0.152029
    37  H    0.151990
    38  H    0.155185
    39  H    0.155217
    40  H    0.160345
 Sum of Mulliken charges =  -0.00000

 Dipole moment (field-independent basis, Debye):
    X=              0.0383    Y=              0.0012    Z=             -0.0097  Tot=              0.0396
 Quadrupole moment (field-independent basis, Debye-Ang):
   XX=            -85.0756   YY=            -86.1192   ZZ=            -83.6362
   XY=              0.1019   XZ=              0.4198   YZ=             -0.4321

 Normal termination of Gaussian 16 at Wed May  5 15:08:40 2021.
