 Gaussian 16, Revision A.03,
 Gaussian 16:  EM64L-G16RevA.03 25-Dec-2016

 -------------
 #p 6-31g* mp2
 -------------

 ------------------------------------------------------
 Input file generated by CHIRIPA (05-May-2021 14:57:26)
 ------------------------------------------------------
 Symbolic Z-matrix:
 Charge =  0 Multiplicity = 1

                         Standard orientation:
 ---------------------------------------------------------------------
 Center     Atomic      Atomic             Coordinates (Angstroms)
 Number     Number       Type             X           Y           Z
 ---------------------------------------------------------------------
      1          6           0       -2.284078    2.349967    0.917755
      2          6           0       -3.473804    1.785139    1.388967
      3          6           0       -3.987181    0.622417    0.806671
      4          6           0       -3.281799    0.048300   -0.249793
      5          6           0       -2.093963    0.587169   -0.741683
      6          6           0       -1.599162    1.750237   -0.144194
      7          1           0       -1.892489    3.253332    1.375997
      8          1           0       -4.007844    2.248732    2.213544
      9          1           0       -4.906037    0.164071    1.151695
     10          1           0       -1.584004    0.102222   -1.565203
     11          1           0       -0.674975    2.186681   -0.512216
     12          7           0       -3.815456   -1.182805   -0.874286
     13          8           0       -3.175103   -1.669341   -1.803731
     14          8           0       -4.863984   -1.637898   -0.422494
     15          6           0        4.494055    1.524774   -1.086537
     16          6           0        5.085024    0.286494   -0.814621
     17          6           0        4.374028   -0.704936   -0.131906
     18          6           0        3.068147   -0.422896    0.266111
     19          6           0        2.451772    0.800952    0.010046
     20          6           0        3.181629    1.777605   -0.674063
     21          1           0        5.053700    2.289200   -1.617428
     22          1           0        6.104112    0.087353   -1.133758
     23          1           0        4.807203   -1.672290    0.091706
     24          1           0        1.434217    0.970093    0.340790
     25          1           0        2.720124    2.738356   -0.883862
     26          7           0        2.305464   -1.464656    0.989608
     27          8           0        1.156396   -1.191381    1.329614
     28          8           0        2.871181   -2.534737    1.202982
 ---------------------------------------------------------------------

 SCF Done:  E(RHF) =  -868.336520957     A.U. after   16 cycles
 E2 =    -0.2600514183D+01 EUMP2 =    -0.87093703514040D+03

 The electronic state is 1-A.
 Alpha  occ. eigenvalues --  -20.61031 -20.61022 -20.60442 -20.60435 -15.86088
 Alpha  occ. eigenvalues --  -15.85504 -11.31612 -11.30966 -11.28254 -11.28152
 Alpha  occ. eigenvalues --  -11.27953 -11.27655 -11.27590 -11.27454 -11.27319
 Alpha  occ. eigenvalues --  -11.27189 -11.26785 -11.26603  -1.60101  -1.59510
 Alpha  occ. eigenvalues --   -1.39651  -1.39063  -1.19798  -1.19192  -1.09156
 Alpha  occ. eigenvalues --   -1.08581  -1.05244  -1.04643  -0.95968  -0.95388
 Alpha  occ. eigenvalues --   -0.86625  -0.86051  -0.82810  -0.82242  -0.77846
 Alpha  occ. eigenvalues --   -0.77246  -0.72301  -0.71731  -0.71429  -0.70907
 Alpha  occ. eigenvalues --   -0.70821  -0.70338  -0.65457  -0.65274  -0.64877
 Alpha  occ. eigenvalues --   -0.64712  -0.62637  -0.61954  -0.55712  -0.55178
 Alpha  occ. eigenvalues --   -0.53541  -0.53384  -0.52884  -0.52749  -0.49072
 Alpha  occ. eigenvalues --   -0.49048  -0.48497  -0.48470  -0.45023  -0.44448
 Alpha  occ. eigenvalues --   -0.37765  -0.37175  -0.36853  -0.36207
 Alpha virt. eigenvalues --    0.04701   0.05337   0.10799   0.11309   0.16168
 Alpha virt. eigenvalues --    0.16640   0.19381   0.22079   0.25144   0.27596
 Alpha virt. eigenvalues --    0.28375   0.29123   0.30301   0.31631   0.32284

 Mulliken charges:
               1
     1  C   -0.168913
     2  C   -0.217915
     3  C   -0.167568
     4  C    0.160366
     5  C   -0.161549
     6  C   -0.219212
     7  H    0.222968
     8  H    0.223481
     9  H    0.276608
    10  H    0.275872
    11  H    0.209933
    12  N    0.488839
    13  O   -0.459490
    14  O   -0.460414
    15  C   -0.170267
    16  C   -0.218261
    17  C   -0.169364
    18  C    0.159238
    19  C   -0.178059
    20  C   -0.219943
    21  H    0.226712
    22  H    0.225556
    23  H    0.277926
    24  H    0.274761
    25  H    0.218211
    26  N    0.487648
    27  O   -0.459627
    28  O   -0.457538
 Sum of Mulliken charges =  -0.00000

 Dipole moment (field-independent basis, Debye):
    X=              4.5398    Y=              7.7565    Z=             -0.2943  Tot=              8.9922
 Quadrupole moment (field-independent basis, Debye-Ang):
   XX=            -93.8180   YY=           -107.0216   ZZ=           -106.5100
   XY=             -6.9648   XZ=            -18.2975   YZ=              1.3968

 Normal termination of Gaussian 16 at Thu May  6 11:29:21 2021.
