 Gaussian 16, Revision A.03,
 Gaussian 16:  EM64L-G16RevA.03 25-Dec-2016

 -------------
 #p 6-31g* mp2
 -------------

 ------------------------------------------------------
 Input file generated by CHIRIPA (05-May-2021 14:55:19)
 ------------------------------------------------------
 Symbolic Z-matrix:
 Charge =  0 Multiplicity = 1

                         Standard orientation:
 ---------------------------------------------------------------------
 Center     Atomic      Atomic             Coordinates (Angstroms)
 Number     Number       Type             X           Y           Z
 ---------------------------------------------------------------------
      1          6           0       -3.914457    1.328152   -1.125351
      2          6           0       -4.317649    0.031281   -0.790564
      3          6           0       -3.469530   -0.810994   -0.065433
      4          6           0       -2.219495   -0.321677    0.310427
      5          6           0       -1.789069    0.965425   -0.007993
      6          6           0       -2.653676    1.790270   -0.733688
      7          1           0       -4.579701    1.975682   -1.688869
      8          1           0       -5.296223   -0.330279   -1.093406
      9          1           0       -3.756330   -1.819403    0.207105
     10          1           0       -0.807622    1.297684    0.307894
     11          1           0       -2.337896    2.796975   -0.992288
     12          7           0       -1.312901   -1.204130    1.078388
     13          8           0       -0.216647   -0.749264    1.397702
     14          8           0       -1.715734   -2.333953    1.346462
     15          6           0        3.056928    0.758771    0.311045
     16          6           0        2.754993    2.167175   -0.202002
     17          6           0        2.808256    3.222830    0.902784
     18          1           0        2.338286    0.501318    1.101118
     19          1           0        4.051291    0.751718    0.778578
     20          1           0        1.762071    2.171244   -0.669659
     21          1           0        3.474319    2.421232   -0.991078
     22          1           0        3.800842    3.248013    1.364021
     23          1           0        2.078864    2.996605    1.687266
     24          1           0        2.589363    4.222225    0.514000
     25          6           0        3.007487   -0.307601   -0.781719
     26          6           0        3.309422   -1.716005   -0.268673
     27          6           0        3.256160   -2.771660   -1.373458
     28          1           0        2.013125   -0.300548   -1.249252
     29          1           0        3.726130   -0.050148   -1.571793
     30          1           0        2.590096   -1.970062    0.520405
     31          1           0        4.302345   -1.720074    0.198985
     32          1           0        3.985551   -2.545434   -2.157940
     33          1           0        2.263573   -2.796843   -1.834694
     34          1           0        3.475053   -3.771056   -0.984673
 ---------------------------------------------------------------------

 SCF Done:  E(RHF) =  -669.536497436     A.U. after   15 cycles
 E2 =    -0.2092403851D+01 EUMP2 =    -0.67162890128727D+03

 The electronic state is 1-A.
 Alpha  occ. eigenvalues --  -20.61053 -20.61046 -15.86077 -11.31344 -11.27899
 Alpha  occ. eigenvalues --  -11.27895 -11.27626 -11.26897 -11.26885 -11.21364
 Alpha  occ. eigenvalues --  -11.20921 -11.20618 -11.20535 -11.20510 -11.20254
 Alpha  occ. eigenvalues --   -1.60105  -1.39663  -1.19506  -1.08921  -1.07723
 Alpha  occ. eigenvalues --   -1.04894  -1.02921  -0.95773  -0.95368  -0.86404
 Alpha  occ. eigenvalues --   -0.86297  -0.82611  -0.78998  -0.77684  -0.77469
 Alpha  occ. eigenvalues --   -0.72313  -0.71414  -0.70615  -0.65175  -0.64907
 Alpha  occ. eigenvalues --   -0.64313  -0.62240  -0.60316  -0.58780  -0.56970
 Alpha  occ. eigenvalues --   -0.55400  -0.54649  -0.53229  -0.52985  -0.52128
 Alpha  occ. eigenvalues --   -0.51802  -0.49360  -0.49051  -0.49050  -0.47315
 Alpha  occ. eigenvalues --   -0.46002  -0.45204  -0.45009  -0.44770  -0.43128
 Alpha  occ. eigenvalues --   -0.37482  -0.36491
 Alpha virt. eigenvalues --    0.04828   0.11135   0.16326   0.19716   0.22882
 Alpha virt. eigenvalues --    0.24684   0.26452   0.27452   0.28209   0.28573
 Alpha virt. eigenvalues --    0.29224   0.31082   0.31523   0.32076   0.32523

 Mulliken charges:
               1
     1  C   -0.170342
     2  C   -0.218641
     3  C   -0.170430
     4  C    0.157595
     5  C   -0.174547
     6  C   -0.219350
     7  H    0.226313
     8  H    0.224051
     9  H    0.275896
    10  H    0.280656
    11  H    0.224567
    12  N    0.493942
    13  O   -0.467355
    14  O   -0.458022
    15  C   -0.308428
    16  C   -0.298724
    17  C   -0.476471
    18  H    0.174656
    19  H    0.146730
    20  H    0.139597
    21  H    0.151121
    22  H    0.157727
    23  H    0.155556
    24  H    0.155370
    25  C   -0.293083
    26  C   -0.306540
    27  C   -0.474625
    28  H    0.144990
    29  H    0.143565
    30  H    0.173248
    31  H    0.147558
    32  H    0.150190
    33  H    0.153273
    34  H    0.159956
 Sum of Mulliken charges =  -0.00000

 Dipole moment (field-independent basis, Debye):
    X=             -3.3971    Y=              2.9596    Z=             -2.5018  Tot=              5.1535
 Quadrupole moment (field-independent basis, Debye-Ang):
   XX=            -77.8111   YY=            -95.5884   ZZ=            -97.8434
   XY=             -3.1218   XZ=              5.7372   YZ=              1.0544

 Normal termination of Gaussian 16 at Thu May  6 10:48:53 2021.
