 Gaussian 16, Revision A.03,
 Gaussian 16:  EM64L-G16RevA.03 25-Dec-2016

 -------------
 #p 6-31g* mp2
 -------------

 ------------------------------------------------------
 Input file generated by CHIRIPA (05-May-2021 14:51:08)
 ------------------------------------------------------
 Symbolic Z-matrix:
 Charge =  0 Multiplicity = 1

                         Standard orientation:
 ---------------------------------------------------------------------
 Center     Atomic      Atomic             Coordinates (Angstroms)
 Number     Number       Type             X           Y           Z
 ---------------------------------------------------------------------
      1          6           0       -2.652448    0.106701   -0.404839
      2          6           0       -2.584226    1.546848    0.104384
      3          6           0       -3.316448    2.531661   -0.807640
      4          1           0       -2.223753    0.061121   -1.415328
      5          1           0       -3.705665   -0.192271   -0.498349
      6          1           0       -1.531433    1.842547    0.198223
      7          1           0       -3.012959    1.588969    1.113854
      8          1           0       -4.374638    2.264116   -0.892805
      9          1           0       -2.884695    2.519134   -1.813639
     10          1           0       -3.255031    3.555153   -0.424817
     11          6           0       -1.925014   -0.889588    0.496259
     12          6           0       -1.993236   -2.329735   -0.012965
     13          6           0       -1.261014   -3.314548    0.899059
     14          1           0       -0.871797   -0.590616    0.589769
     15          1           0       -2.353709   -0.844008    1.506748
     16          1           0       -1.564503   -2.371856   -1.022435
     17          1           0       -3.046029   -2.625434   -0.106803
     18          1           0       -1.692767   -3.302021    1.905058
     19          1           0       -0.202824   -3.047003    0.984224
     20          1           0       -1.322431   -4.338040    0.516236
     21          6           0        1.897733    0.972870    0.258421
     22          6           0        2.589520    2.325398    0.084981
     23          6           0        1.795102    3.478717    0.698616
     24          1           0        0.899996    1.017138   -0.199297
     25          1           0        1.742125    0.783136    1.329488
     26          1           0        2.745022    2.511893   -0.985372
     27          1           0        3.585800    2.277844    0.542997
     28          1           0        1.651698    3.319424    1.772237
     29          1           0        0.806142    3.554802    0.235184
     30          1           0        2.307791    4.436146    0.563196
     31          6           0        2.679730   -0.189983   -0.349841
     32          6           0        1.987942   -1.542511   -0.176400
     33          6           0        2.782360   -2.695830   -0.790036
     34          1           0        2.835336   -0.000250   -1.420908
     35          1           0        3.677467   -0.234251    0.107877
     36          1           0        0.991662   -1.494957   -0.634416
     37          1           0        1.832440   -1.729006    0.893953
     38          1           0        3.771320   -2.771915   -0.326604
     39          1           0        2.925764   -2.536537   -1.863657
     40          1           0        2.269671   -3.653259   -0.654615
 ---------------------------------------------------------------------

 SCF Done:  E(RHF) =  -470.731134352     A.U. after   11 cycles
 E2 =    -0.1586717541D+01 EUMP2 =    -0.47231785189227D+03

 The electronic state is 1-A.
 Alpha  occ. eigenvalues --  -11.21691 -11.21680 -11.21567 -11.21532 -11.21504
 Alpha  occ. eigenvalues --  -11.21444 -11.21348 -11.21211 -11.21145 -11.21131
 Alpha  occ. eigenvalues --  -11.21064 -11.20910  -1.08585  -1.08339  -1.03675
 Alpha  occ. eigenvalues --   -1.03436  -0.96094  -0.95897  -0.87085  -0.86939
 Alpha  occ. eigenvalues --   -0.79789  -0.79486  -0.78612  -0.77981  -0.65426
 Alpha  occ. eigenvalues --   -0.64790  -0.61223  -0.60818  -0.59440  -0.59209
 Alpha  occ. eigenvalues --   -0.57832  -0.57432  -0.55373  -0.55148  -0.52762
 Alpha  occ. eigenvalues --   -0.52616  -0.52496  -0.52345  -0.50059  -0.49838
 Alpha  occ. eigenvalues --   -0.48252  -0.47670  -0.46781  -0.46629  -0.46576
 Alpha  occ. eigenvalues --   -0.45748  -0.45704  -0.44768  -0.43866  -0.43708
 Alpha virt. eigenvalues --    0.20291   0.21704   0.23614   0.25134   0.25391
 Alpha virt. eigenvalues --    0.25829   0.26252   0.27222   0.28944   0.30331
 Alpha virt. eigenvalues --    0.30721   0.31369   0.31407   0.31929   0.32146

 Mulliken charges:
               1
     1  C   -0.297543
     2  C   -0.306744
     3  C   -0.475474
     4  H    0.147711
     5  H    0.149688
     6  H    0.157625
     7  H    0.152364
     8  H    0.155397
     9  H    0.154452
    10  H    0.160271
    11  C   -0.308844
    12  C   -0.300056
    13  C   -0.483580
    14  H    0.161077
    15  H    0.149233
    16  H    0.150260
    17  H    0.152188
    18  H    0.154307
    19  H    0.165730
    20  H    0.158942
    21  C   -0.305711
    22  C   -0.299428
    23  C   -0.478192
    24  H    0.155564
    25  H    0.150238
    26  H    0.151941
    27  H    0.152396
    28  H    0.155698
    29  H    0.157361
    30  H    0.160718
    31  C   -0.296534
    32  C   -0.308590
    33  C   -0.477057
    34  H    0.149418
    35  H    0.150122
    36  H    0.158998
    37  H    0.152806
    38  H    0.155613
    39  H    0.155461
    40  H    0.162173
 Sum of Mulliken charges =  -0.00000

 Dipole moment (field-independent basis, Debye):
    X=              0.0940    Y=              0.0235    Z=              0.0176  Tot=              0.0984
 Quadrupole moment (field-independent basis, Debye-Ang):
   XX=            -84.3443   YY=            -86.4090   ZZ=            -84.1844
   XY=              0.7798   XZ=             -0.1186   YZ=             -0.0589

 Normal termination of Gaussian 16 at Wed May  5 18:06:58 2021.
