 Gaussian 16, Revision A.03,
 Gaussian 16:  EM64L-G16RevA.03 25-Dec-2016

 -------------
 #p 6-31g* mp2
 -------------

 ------------------------------------------------------
 Input file generated by CHIRIPA (05-May-2021 14:51:08)
 ------------------------------------------------------
 Symbolic Z-matrix:
 Charge =  0 Multiplicity = 1

                         Standard orientation:
 ---------------------------------------------------------------------
 Center     Atomic      Atomic             Coordinates (Angstroms)
 Number     Number       Type             X           Y           Z
 ---------------------------------------------------------------------
      1          6           0        4.912582   -0.461605    0.389961
      2          6           0        5.827919   -0.920045   -0.745810
      3          6           0        6.963891   -1.821935   -0.262120
      4          1           0        5.510620    0.070980    1.142057
      5          1           0        4.492793   -1.344190    0.892172
      6          1           0        6.244772   -0.036840   -1.246610
      7          1           0        5.227600   -1.451434   -1.495383
      8          1           0        6.564175   -2.720281    0.219338
      9          1           0        7.587126   -1.297650    0.469525
     10          1           0        7.605939   -2.137971   -1.090224
     11          6           0        3.772096    0.440731   -0.077810
     12          6           0        2.856759    0.899171    1.057961
     13          6           0        1.720787    1.801061    0.574271
     14          1           0        4.191885    1.323316   -0.580021
     15          1           0        3.174057   -0.091854   -0.829906
     16          1           0        3.457078    1.430560    1.807534
     17          1           0        2.439906    0.015967    1.558761
     18          1           0        1.097552    1.276777   -0.157374
     19          1           0        2.120502    2.699407    0.092813
     20          1           0        1.078739    2.117098    1.402375
     21          6           0       -3.602905    0.163926   -0.270574
     22          6           0       -3.309467    1.657209   -0.418847
     23          6           0       -1.825944    1.948310   -0.647355
     24          1           0       -3.015822   -0.237243    0.566887
     25          1           0       -3.259926   -0.361383   -1.172688
     26          1           0       -3.654153    2.179733    0.482694
     27          1           0       -3.897462    2.054911   -1.255932
     28          1           0       -1.471855    1.452974   -1.557225
     29          1           0       -1.227164    1.578506    0.191279
     30          1           0       -1.638704    3.021686   -0.750620
     31          6           0       -5.081773   -0.143053   -0.041577
     32          6           0       -5.375210   -1.636336    0.106696
     33          6           0       -6.858734   -1.927437    0.335204
     34          1           0       -5.424752    0.382257    0.860537
     35          1           0       -5.668857    0.258117   -0.879038
     36          1           0       -4.787216   -2.034038    0.943781
     37          1           0       -5.030525   -2.158860   -0.794845
     38          1           0       -7.457514   -1.557632   -0.503430
     39          1           0       -7.212823   -1.432101    1.245074
     40          1           0       -7.045974   -3.000814    0.438469
 ---------------------------------------------------------------------

 SCF Done:  E(RHF) =  -470.732431373     A.U. after   11 cycles
 E2 =    -0.1582617169D+01 EUMP2 =    -0.47231504854184D+03

 The electronic state is 1-A.
 Alpha  occ. eigenvalues --  -11.21591 -11.21584 -11.21545 -11.21530 -11.21381
 Alpha  occ. eigenvalues --  -11.21377 -11.21322 -11.21317 -11.21064 -11.21058
 Alpha  occ. eigenvalues --  -11.20950 -11.20925  -1.08407  -1.08390  -1.03527
 Alpha  occ. eigenvalues --   -1.03456  -0.96026  -0.95861  -0.87103  -0.86823
 Alpha  occ. eigenvalues --   -0.79689  -0.79431  -0.78239  -0.78184  -0.65054
 Alpha  occ. eigenvalues --   -0.65010  -0.60987  -0.60818  -0.59323  -0.59300
 Alpha  occ. eigenvalues --   -0.57605  -0.57518  -0.55406  -0.55090  -0.52822
 Alpha  occ. eigenvalues --   -0.52571  -0.52456  -0.52169  -0.50046  -0.49694
 Alpha  occ. eigenvalues --   -0.47983  -0.47745  -0.46677  -0.46468  -0.45816
 Alpha  occ. eigenvalues --   -0.45708  -0.45688  -0.45595  -0.43781  -0.43689
 Alpha virt. eigenvalues --    0.22553   0.23003   0.23714   0.24820   0.26456
 Alpha virt. eigenvalues --    0.26620   0.26925   0.27544   0.27635   0.29238
 Alpha virt. eigenvalues --    0.30627   0.31210   0.31537   0.31970   0.32287

 Mulliken charges:
               1
     1  C   -0.298222
     2  C   -0.299618
     3  C   -0.475682
     4  H    0.149595
     5  H    0.149410
     6  H    0.151901
     7  H    0.151887
     8  H    0.155136
     9  H    0.155146
    10  H    0.160187
    11  C   -0.298483
    12  C   -0.299975
    13  C   -0.478720
    14  H    0.149492
    15  H    0.149726
    16  H    0.151442
    17  H    0.151268
    18  H    0.161869
    19  H    0.154790
    20  H    0.159389
    21  C   -0.298229
    22  C   -0.300274
    23  C   -0.478411
    24  H    0.149260
    25  H    0.149120
    26  H    0.151484
    27  H    0.151310
    28  H    0.153280
    29  H    0.161785
    30  H    0.160309
    31  C   -0.298170
    32  C   -0.299604
    33  C   -0.475681
    34  H    0.149484
    35  H    0.149666
    36  H    0.151803
    37  H    0.151805
    38  H    0.155183
    39  H    0.155175
    40  H    0.160166
 Sum of Mulliken charges =  -0.00000

 Dipole moment (field-independent basis, Debye):
    X=              0.0113    Y=              0.0143    Z=             -0.0028  Tot=              0.0184
 Quadrupole moment (field-independent basis, Debye-Ang):
   XX=            -86.5253   YY=            -84.6866   ZZ=            -83.8463
   XY=              0.7261   XZ=              0.1747   YZ=              0.3927

 Normal termination of Gaussian 16 at Thu May  6 11:33:52 2021.
