 Gaussian 16, Revision A.03,
 Gaussian 16:  EM64L-G16RevA.03 25-Dec-2016

 -------------
 #p 6-31g* mp2
 -------------

 ------------------------------------------------------
 Input file generated by CHIRIPA (05-May-2021 14:51:11)
 ------------------------------------------------------
 Symbolic Z-matrix:
 Charge =  0 Multiplicity = 1

                         Standard orientation:
 ---------------------------------------------------------------------
 Center     Atomic      Atomic             Coordinates (Angstroms)
 Number     Number       Type             X           Y           Z
 ---------------------------------------------------------------------
      1          6           0       -2.626369   -0.500743    0.013744
      2          6           0       -2.239717   -1.979769   -0.017329
      3          6           0       -0.726508   -2.196056    0.017451
      4          1           0       -2.161647    0.011199   -0.840009
      5          1           0       -2.209766   -0.038976    0.919619
      6          1           0       -2.658094   -2.438928   -0.922177
      7          1           0       -2.705571   -2.488287    0.836490
      8          1           0       -0.296414   -1.764082    0.926856
      9          1           0       -0.248668   -1.714442   -0.841803
     10          1           0       -0.472455   -3.260382   -0.005563
     11          6           0       -4.135854   -0.268336   -0.020482
     12          6           0       -4.522505    1.210690    0.010591
     13          6           0       -6.035715    1.426978   -0.024189
     14          1           0       -4.552457   -0.730103   -0.926357
     15          1           0       -4.600576   -0.780278    0.833271
     16          1           0       -4.056652    1.719208   -0.843228
     17          1           0       -4.104129    1.669849    0.915439
     18          1           0       -6.513555    0.945363    0.835065
     19          1           0       -6.465809    0.995003   -0.933594
     20          1           0       -6.289768    2.491303   -0.001175
     21          6           0        3.777564   -0.262931   -0.080542
     22          6           0        2.933699   -1.521496    0.124126
     23          6           0        3.740872   -2.808732   -0.047022
     24          1           0        4.223222   -0.287222   -1.084406
     25          1           0        4.613358   -0.270301    0.632751
     26          1           0        2.098955   -1.511073   -0.588411
     27          1           0        2.489843   -1.494113    1.127549
     28          1           0        4.564353   -2.845742    0.673472
     29          1           0        4.171244   -2.862798   -1.052237
     30          1           0        3.118166   -3.696094    0.103598
     31          6           0        2.984659    1.032010    0.087280
     32          6           0        3.828524    2.290575   -0.117387
     33          6           0        3.021351    3.577811    0.053760
     34          1           0        2.148864    1.039380   -0.626013
     35          1           0        2.539001    1.056301    1.091144
     36          1           0        4.272380    2.263192   -1.120811
     37          1           0        4.663268    2.280152    0.595149
     38          1           0        2.590979    3.631877    1.058976
     39          1           0        2.197870    3.614821   -0.666734
     40          1           0        3.644057    4.465173   -0.096860
 ---------------------------------------------------------------------

 SCF Done:  E(RHF) =  -470.732494157     A.U. after   11 cycles
 E2 =    -0.1583131819D+01 EUMP2 =    -0.47231562597561D+03

 The electronic state is 1-A.
 Alpha  occ. eigenvalues --  -11.21595 -11.21567 -11.21566 -11.21423 -11.21395
 Alpha  occ. eigenvalues --  -11.21343 -11.21335 -11.21271 -11.21066 -11.21047
 Alpha  occ. eigenvalues --  -11.21021 -11.20978  -1.08422  -1.08356  -1.03539
 Alpha  occ. eigenvalues --   -1.03434  -0.95985  -0.95898  -0.87024  -0.86900
 Alpha  occ. eigenvalues --   -0.79735  -0.79393  -0.78284  -0.78096  -0.65075
 Alpha  occ. eigenvalues --   -0.64976  -0.60991  -0.60791  -0.59351  -0.59278
 Alpha  occ. eigenvalues --   -0.57620  -0.57484  -0.55293  -0.55175  -0.52694
 Alpha  occ. eigenvalues --   -0.52603  -0.52471  -0.52263  -0.50000  -0.49789
 Alpha  occ. eigenvalues --   -0.48173  -0.47595  -0.46754  -0.46417  -0.45923
 Alpha  occ. eigenvalues --   -0.45742  -0.45593  -0.45399  -0.43771  -0.43702
 Alpha virt. eigenvalues --    0.21996   0.23079   0.23770   0.24687   0.25451
 Alpha virt. eigenvalues --    0.26270   0.27136   0.27387   0.27998   0.29431
 Alpha virt. eigenvalues --    0.30128   0.30955   0.31265   0.32046   0.32477

 Mulliken charges:
               1
     1  C   -0.298030
     2  C   -0.300829
     3  C   -0.475174
     4  H    0.149174
     5  H    0.149670
     6  H    0.151472
     7  H    0.151599
     8  H    0.157694
     9  H    0.154967
    10  H    0.159662
    11  C   -0.298227
    12  C   -0.299601
    13  C   -0.475700
    14  H    0.149439
    15  H    0.149628
    16  H    0.151856
    17  H    0.151995
    18  H    0.155161
    19  H    0.155135
    20  H    0.160258
    21  C   -0.298038
    22  C   -0.303422
    23  C   -0.475877
    24  H    0.148908
    25  H    0.148828
    26  H    0.159748
    27  H    0.151486
    28  H    0.154477
    29  H    0.154420
    30  H    0.160240
    31  C   -0.297950
    32  C   -0.299538
    33  C   -0.475594
    34  H    0.149082
    35  H    0.149177
    36  H    0.151780
    37  H    0.151878
    38  H    0.155063
    39  H    0.155096
    40  H    0.160090
 Sum of Mulliken charges =  -0.00000

 Dipole moment (field-independent basis, Debye):
    X=             -0.0213    Y=             -0.0112    Z=              0.0026  Tot=              0.0242
 Quadrupole moment (field-independent basis, Debye-Ang):
   XX=            -86.3873   YY=            -86.0052   ZZ=            -82.7138
   XY=              0.7856   XZ=              0.1975   YZ=             -0.1095

 Normal termination of Gaussian 16 at Wed May  5 23:04:05 2021.
