 Gaussian 16, Revision A.03,
 Gaussian 16:  EM64L-G16RevA.03 25-Dec-2016

 -------------
 #p 6-31g* mp2
 -------------

 ------------------------------------------------------
 Input file generated by CHIRIPA (05-May-2021 14:55:20)
 ------------------------------------------------------
 Symbolic Z-matrix:
 Charge =  0 Multiplicity = 1

                         Standard orientation:
 ---------------------------------------------------------------------
 Center     Atomic      Atomic             Coordinates (Angstroms)
 Number     Number       Type             X           Y           Z
 ---------------------------------------------------------------------
      1          6           0       -0.566451   -0.990112    1.937232
      2          6           0       -0.877308   -1.772593    0.820266
      3          6           0       -1.831557   -1.340827   -0.105766
      4          6           0       -2.458445   -0.115853    0.117254
      5          6           0       -2.170448    0.686369    1.220336
      6          6           0       -1.212874    0.234712    2.133356
      7          1           0        0.176124   -1.333243    2.651542
      8          1           0       -0.376875   -2.724238    0.665399
      9          1           0       -2.091374   -1.926642   -0.979112
     10          1           0       -2.686027    1.630482    1.347800
     11          1           0       -0.973467    0.844489    2.999902
     12          7           0       -3.470426    0.351767   -0.856207
     13          8           0       -4.008598    1.434799   -0.637003
     14          8           0       -3.706283   -0.373599   -1.819977
     15          6           0        3.247922   -0.422238   -0.163976
     16          6           0        2.590021   -1.619955   -0.849999
     17          6           0        3.230403   -2.951559   -0.456893
     18          1           0        4.317085   -0.405133   -0.416052
     19          1           0        3.185646   -0.552700    0.925289
     20          1           0        2.652292   -1.486601   -1.937637
     21          1           0        1.522261   -1.634100   -0.596416
     22          1           0        3.155310   -3.111028    0.623630
     23          1           0        4.291761   -2.962691   -0.725211
     24          1           0        2.744740   -3.794248   -0.958756
     25          6           0        2.618725    0.916118   -0.546916
     26          6           0        3.276625    2.113834    0.139107
     27          6           0        2.636244    3.445440   -0.253999
     28          1           0        2.680999    1.046580   -1.636180
     29          1           0        1.549561    0.899013   -0.294840
     30          1           0        4.344385    2.127980   -0.114477
     31          1           0        3.214353    1.980482    1.226745
     32          1           0        1.574884    3.456571    0.014319
     33          1           0        2.711336    3.604907   -1.334523
     34          1           0        3.121907    4.288129    0.247864
 ---------------------------------------------------------------------

 SCF Done:  E(RHF) =  -669.535117360     A.U. after   15 cycles
 E2 =    -0.2093472120D+01 EUMP2 =    -0.67162858947951D+03

 The electronic state is 1-A.
 Alpha  occ. eigenvalues --  -20.60847 -20.60842 -15.85902 -11.31317 -11.27891
 Alpha  occ. eigenvalues --  -11.27881 -11.27649 -11.26927 -11.26899 -11.22041
 Alpha  occ. eigenvalues --  -11.21926 -11.21861 -11.21754 -11.21653 -11.21309
 Alpha  occ. eigenvalues --   -1.59921  -1.39473  -1.19504  -1.08917  -1.08809
 Alpha  occ. eigenvalues --   -1.04918  -1.03962  -0.96415  -0.95709  -0.87426
 Alpha  occ. eigenvalues --   -0.86306  -0.82543  -0.80026  -0.78637  -0.77576
 Alpha  occ. eigenvalues --   -0.72120  -0.71244  -0.70596  -0.65552  -0.65151
 Alpha  occ. eigenvalues --   -0.64875  -0.62282  -0.61344  -0.59791  -0.58016
 Alpha  occ. eigenvalues --   -0.55723  -0.55393  -0.53301  -0.53081  -0.52994
 Alpha  occ. eigenvalues --   -0.52829  -0.50357  -0.48885  -0.48871  -0.48338
 Alpha  occ. eigenvalues --   -0.47071  -0.46173  -0.46074  -0.44867  -0.44198
 Alpha  occ. eigenvalues --   -0.37448  -0.36449
 Alpha virt. eigenvalues --    0.04943   0.11055   0.16349   0.20162   0.22879
 Alpha virt. eigenvalues --    0.23784   0.26059   0.26471   0.27158   0.28158
 Alpha virt. eigenvalues --    0.28686   0.30511   0.31161   0.31491   0.31800

 Mulliken charges:
               1
     1  C   -0.170719
     2  C   -0.219244
     3  C   -0.171022
     4  C    0.158973
     5  C   -0.171050
     6  C   -0.219056
     7  H    0.226647
     8  H    0.227078
     9  H    0.276672
    10  H    0.276291
    11  H    0.224300
    12  N    0.488127
    13  O   -0.460027
    14  O   -0.459809
    15  C   -0.295645
    16  C   -0.308829
    17  C   -0.476473
    18  H    0.151148
    19  H    0.142289
    20  H    0.155284
    21  H    0.155236
    22  H    0.148663
    23  H    0.159430
    24  H    0.159002
    25  C   -0.301622
    26  C   -0.299193
    27  C   -0.475794
    28  H    0.151831
    29  H    0.154155
    30  H    0.152593
    31  H    0.147653
    32  H    0.155058
    33  H    0.157752
    34  H    0.160299
 Sum of Mulliken charges =  -0.00000

 Dipole moment (field-independent basis, Debye):
    X=              3.4800    Y=             -1.5898    Z=              3.3785  Tot=              5.1042
 Quadrupole moment (field-independent basis, Debye-Ang):
   XX=           -112.7421   YY=            -92.3211   ZZ=            -92.3112
   XY=              3.5821   XZ=             -9.3301   YZ=              2.0842

 Normal termination of Gaussian 16 at Wed May  5 17:25:46 2021.
