 Gaussian 16, Revision A.03,
 Gaussian 16:  EM64L-G16RevA.03 25-Dec-2016

 -------------
 #p 6-31g* mp2
 -------------

 ------------------------------------------------------
 Input file generated by CHIRIPA (05-May-2021 14:53:18)
 ------------------------------------------------------
 Symbolic Z-matrix:
 Charge =  0 Multiplicity = 1

                         Standard orientation:
 ---------------------------------------------------------------------
 Center     Atomic      Atomic             Coordinates (Angstroms)
 Number     Number       Type             X           Y           Z
 ---------------------------------------------------------------------
      1          6           0       -4.120900   -0.369286   -0.354011
      2          6           0       -5.287901    0.618563   -0.338273
      3          6           0       -6.159273    0.524141   -1.591106
      4          1           0       -3.505320   -0.185606   -1.245228
      5          1           0       -4.515162   -1.390294   -0.451459
      6          1           0       -4.891625    1.637299   -0.239492
      7          1           0       -5.900667    0.432635    0.553111
      8          1           0       -6.582054   -0.480739   -1.691468
      9          1           0       -5.567279    0.730769   -2.488574
     10          1           0       -6.987426    1.238976   -1.558940
     11          6           0       -3.240629   -0.286932    0.891809
     12          6           0       -2.073629   -1.274781    0.876071
     13          6           0       -1.202257   -1.180359    2.128903
     14          1           0       -2.846368    0.734076    0.989257
     15          1           0       -3.856209   -0.470612    1.783026
     16          1           0       -1.460863   -1.088854   -0.015313
     17          1           0       -2.469905   -2.293518    0.777289
     18          1           0       -1.794251   -1.386988    3.026371
     19          1           0       -0.779475   -0.175479    2.229265
     20          1           0       -0.374104   -1.895194    2.096737
     21          6           0        3.811886   -2.010262   -0.803226
     22          6           0        2.430541   -1.837216   -0.667354
     23          6           0        1.900643   -0.585845   -0.338983
     24          6           0        2.785081    0.475462   -0.152734
     25          6           0        4.166036    0.334781   -0.281034
     26          6           0        4.673705   -0.925623   -0.609973
     27          1           0        4.214889   -2.985866   -1.058534
     28          1           0        1.758855   -2.677771   -0.816854
     29          1           0        0.835388   -0.423882   -0.227554
     30          1           0        4.810476    1.191542   -0.125871
     31          1           0        5.746910   -1.057078   -0.714840
     32          7           0        2.235868    1.805014    0.195199
     33          8           0        3.036274    2.724108    0.354107
     34          8           0        1.015388    1.902846    0.302412
 ---------------------------------------------------------------------

 SCF Done:  E(RHF) =  -669.535910834     A.U. after   15 cycles
 E2 =    -0.2091987865D+01 EUMP2 =    -0.67162789869806D+03

 The electronic state is 1-A.
 Alpha  occ. eigenvalues --  -20.60839 -20.60830 -15.85878 -11.31178 -11.27761
 Alpha  occ. eigenvalues --  -11.27716 -11.27499 -11.26765 -11.26746 -11.21834
 Alpha  occ. eigenvalues --  -11.21414 -11.21281 -11.21219 -11.21086 -11.20915
 Alpha  occ. eigenvalues --   -1.59902  -1.39459  -1.19357  -1.08765  -1.08361
 Alpha  occ. eigenvalues --   -1.04755  -1.03502  -0.95924  -0.95603  -0.86933
 Alpha  occ. eigenvalues --   -0.86155  -0.82443  -0.79580  -0.78166  -0.77496
 Alpha  occ. eigenvalues --   -0.72103  -0.71218  -0.70483  -0.65064  -0.65013
 Alpha  occ. eigenvalues --   -0.64702  -0.62177  -0.60819  -0.59303  -0.57542
 Alpha  occ. eigenvalues --   -0.55323  -0.55107  -0.53094  -0.52831  -0.52633
 Alpha  occ. eigenvalues --   -0.52336  -0.49843  -0.48856  -0.48851  -0.47886
 Alpha  occ. eigenvalues --   -0.46609  -0.45717  -0.45591  -0.44864  -0.43737
 Alpha  occ. eigenvalues --   -0.37341  -0.36346
 Alpha virt. eigenvalues --    0.05011   0.11284   0.16489   0.20036   0.23049
 Alpha virt. eigenvalues --    0.24034   0.26154   0.27137   0.27742   0.28083
 Alpha virt. eigenvalues --    0.29409   0.30060   0.31518   0.31731   0.32284

 Mulliken charges:
               1
     1  C   -0.298522
     2  C   -0.300351
     3  C   -0.475781
     4  H    0.149872
     5  H    0.146940
     6  H    0.156028
     7  H    0.151491
     8  H    0.153670
     9  H    0.155455
    10  H    0.160638
    11  C   -0.300077
    12  C   -0.302363
    13  C   -0.484860
    14  H    0.161629
    15  H    0.149879
    16  H    0.142456
    17  H    0.150492
    18  H    0.157736
    19  H    0.171633
    20  H    0.152911
    21  C   -0.170350
    22  C   -0.223373
    23  C   -0.179166
    24  C    0.157644
    25  C   -0.169861
    26  C   -0.219174
    27  H    0.225646
    28  H    0.224008
    29  H    0.291301
    30  H    0.275498
    31  H    0.223429
    32  N    0.487405
    33  O   -0.459560
    34  O   -0.462322
 Sum of Mulliken charges =  -0.00000

 Dipole moment (field-independent basis, Debye):
    X=              1.8992    Y=             -4.5347    Z=             -1.1559  Tot=              5.0504
 Quadrupole moment (field-independent basis, Debye-Ang):
   XX=            -79.7195   YY=            -98.7632   ZZ=            -95.6542
   XY=            -10.1992   XZ=             -4.7468   YZ=              0.0822

 Normal termination of Gaussian 16 at Wed May  5 17:17:22 2021.
