 Gaussian 16, Revision A.03,
 Gaussian 16:  EM64L-G16RevA.03 25-Dec-2016

 -------------
 #p 6-31g* mp2
 -------------

 ------------------------------------------------------
 Input file generated by CHIRIPA (05-May-2021 14:51:11)
 ------------------------------------------------------
 Symbolic Z-matrix:
 Charge =  0 Multiplicity = 1

                         Standard orientation:
 ---------------------------------------------------------------------
 Center     Atomic      Atomic             Coordinates (Angstroms)
 Number     Number       Type             X           Y           Z
 ---------------------------------------------------------------------
      1          6           0        1.840580   -1.215014    0.250378
      2          6           0        1.485305   -2.580971   -0.337775
      3          6           0        0.108908   -3.076298    0.107171
      4          1           0        1.807818   -1.275259    1.346846
      5          1           0        1.074024   -0.485514   -0.045623
      6          1           0        2.253039   -3.307373   -0.041901
      7          1           0        1.519103   -2.517517   -1.432968
      8          1           0       -0.671755   -2.373599   -0.201666
      9          1           0        0.066351   -3.167943    1.197305
     10          1           0       -0.124761   -4.054350   -0.324887
     11          6           0        3.213630   -0.706411   -0.185264
     12          6           0        3.568905    0.659547    0.402889
     13          6           0        4.945302    1.154874   -0.042057
     14          1           0        3.980186   -1.435911    0.110737
     15          1           0        3.246392   -0.646166   -1.281732
     16          1           0        3.535107    0.596093    1.498082
     17          1           0        2.801172    1.385948    0.107015
     18          1           0        4.987859    1.246518   -1.132191
     19          1           0        5.725965    0.452174    0.266780
     20          1           0        5.178971    2.132925    0.390001
     21          6           0       -2.683201    0.230469   -0.193213
     22          6           0       -4.063887   -0.214918    0.289824
     23          6           0       -4.361554   -1.678171   -0.038930
     24          1           0       -2.613947    0.075624   -1.278650
     25          1           0       -1.917746   -0.411993    0.263639
     26          1           0       -4.826417    0.429075   -0.166724
     27          1           0       -4.129930   -0.058817    1.374207
     28          1           0       -3.622605   -2.336284    0.429517
     29          1           0       -4.323049   -1.845620   -1.120169
     30          1           0       -5.353521   -1.975462    0.315302
     31          6           0       -2.371009    1.690956    0.128100
     32          6           0       -0.990324    2.136342   -0.354938
     33          6           0       -0.692656    3.599596   -0.026184
     34          1           0       -3.136465    2.333418   -0.328753
     35          1           0       -2.440263    1.845800    1.213536
     36          1           0       -0.924280    1.980241   -1.439321
     37          1           0       -0.227793    1.492349    0.101610
     38          1           0       -0.731162    3.767045    1.055055
     39          1           0       -1.431606    4.257708   -0.494631
     40          1           0        0.299311    3.896887   -0.380416
 ---------------------------------------------------------------------

 SCF Done:  E(RHF) =  -470.732670959     A.U. after   11 cycles
 E2 =    -0.1584644010D+01 EUMP2 =    -0.47231731496917D+03

 The electronic state is 1-A.
 Alpha  occ. eigenvalues --  -11.21628 -11.21607 -11.21606 -11.21588 -11.21425
 Alpha  occ. eigenvalues --  -11.21393 -11.21364 -11.21330 -11.21105 -11.21074
 Alpha  occ. eigenvalues --  -11.21049 -11.21027  -1.08482  -1.08406  -1.03556
 Alpha  occ. eigenvalues --   -1.03518  -0.96001  -0.95970  -0.87030  -0.86977
 Alpha  occ. eigenvalues --   -0.79643  -0.79583  -0.78451  -0.78087  -0.65245
 Alpha  occ. eigenvalues --   -0.64915  -0.60998  -0.60887  -0.59395  -0.59329
 Alpha  occ. eigenvalues --   -0.57646  -0.57552  -0.55337  -0.55216  -0.52695
 Alpha  occ. eigenvalues --   -0.52664  -0.52505  -0.52333  -0.50028  -0.49852
 Alpha  occ. eigenvalues --   -0.48011  -0.47885  -0.46833  -0.46715  -0.46180
 Alpha  occ. eigenvalues --   -0.45788  -0.45740  -0.44889  -0.43800  -0.43772
 Alpha virt. eigenvalues --    0.21023   0.22275   0.23460   0.24273   0.25207
 Alpha virt. eigenvalues --    0.26796   0.27010   0.27142   0.27743   0.29850
 Alpha virt. eigenvalues --    0.31164   0.31293   0.31618   0.32020   0.32200

 Mulliken charges:
               1
     1  C   -0.308456
     2  C   -0.298561
     3  C   -0.484049
     4  H    0.148546
     5  H    0.159434
     6  H    0.151799
     7  H    0.151931
     8  H    0.163839
     9  H    0.153944
    10  H    0.160488
    11  C   -0.297537
    12  C   -0.301917
    13  C   -0.475705
    14  H    0.149599
    15  H    0.149641
    16  H    0.151682
    17  H    0.153809
    18  H    0.155224
    19  H    0.155286
    20  H    0.160273
    21  C   -0.306680
    22  C   -0.299163
    23  C   -0.477855
    24  H    0.148739
    25  H    0.157721
    26  H    0.151934
    27  H    0.151951
    28  H    0.157995
    29  H    0.154920
    30  H    0.160299
    31  C   -0.297033
    32  C   -0.309366
    33  C   -0.475284
    34  H    0.149678
    35  H    0.149749
    36  H    0.151086
    37  H    0.160988
    38  H    0.155554
    39  H    0.155370
    40  H    0.160128
 Sum of Mulliken charges =  -0.00000

 Dipole moment (field-independent basis, Debye):
    X=             -0.0185    Y=              0.0085    Z=              0.0031  Tot=              0.0206
 Quadrupole moment (field-independent basis, Debye-Ang):
   XX=            -85.5392   YY=            -85.8947   ZZ=            -83.3953
   XY=             -1.1123   XZ=              0.8203   YZ=             -0.6448

 Normal termination of Gaussian 16 at Wed May  5 16:43:31 2021.
