 Gaussian 16, Revision A.03,
 Gaussian 16:  EM64L-G16RevA.03 25-Dec-2016

 -------------
 #p 6-31g* mp2
 -------------

 ------------------------------------------------------
 Input file generated by CHIRIPA (05-May-2021 14:55:25)
 ------------------------------------------------------
 Symbolic Z-matrix:
 Charge =  0 Multiplicity = 1

                         Standard orientation:
 ---------------------------------------------------------------------
 Center     Atomic      Atomic             Coordinates (Angstroms)
 Number     Number       Type             X           Y           Z
 ---------------------------------------------------------------------
      1          6           0        2.881947   -2.382616    0.198953
      2          6           0        3.650432   -1.727990    1.167157
      3          6           0        3.894921   -0.354883    1.070458
      4          6           0        3.353119    0.335763   -0.012477
      5          6           0        2.583479   -0.288079   -0.993174
      6          6           0        2.351858   -1.661841   -0.876226
      7          1           0        2.697020   -3.449533    0.281936
      8          1           0        4.063369   -2.285212    2.003238
      9          1           0        4.486344    0.176945    1.805845
     10          1           0        2.185156    0.294166   -1.815212
     11          1           0        1.754674   -2.167607   -1.629630
     12          7           0        3.605137    1.789757   -0.125566
     13          8           0        3.116569    2.375608   -1.089265
     14          8           0        4.286465    2.316014    0.751635
     15          6           0       -3.481116   -0.064161    0.068538
     16          6           0       -2.716395   -1.234044   -0.551588
     17          6           0       -1.201664   -1.101876   -0.390609
     18          1           0       -3.142252    0.873204   -0.393482
     19          1           0       -3.229512    0.004663    1.135944
     20          1           0       -2.970430   -1.301496   -1.617201
     21          1           0       -3.057256   -2.168751   -0.088173
     22          1           0       -0.929286   -1.057284    0.668836
     23          1           0       -0.841968   -0.185101   -0.868881
     24          1           0       -0.674655   -1.948773   -0.841037
     25          6           0       -4.996536   -0.181926   -0.084311
     26          6           0       -5.761258    0.987958    0.535816
     27          6           0       -7.275989    0.855790    0.374836
     28          1           0       -5.248141   -0.250749   -1.151716
     29          1           0       -5.335401   -1.119291    0.377710
     30          1           0       -5.420396    1.922664    0.072399
     31          1           0       -5.507222    1.055409    1.601429
     32          1           0       -7.635686   -0.060985    0.853107
     33          1           0       -7.548367    0.811198   -0.684609
     34          1           0       -7.802998    1.702688    0.825265
 ---------------------------------------------------------------------

 SCF Done:  E(RHF) =  -669.534988621     A.U. after   15 cycles
 E2 =    -0.2091794136D+01 EUMP2 =    -0.67162678275733D+03

 The electronic state is 1-A.
 Alpha  occ. eigenvalues --  -20.60738 -20.60733 -15.85791 -11.31146 -11.27704
 Alpha  occ. eigenvalues --  -11.27700 -11.27447 -11.26734 -11.26715 -11.21935
 Alpha  occ. eigenvalues --  -11.21692 -11.21595 -11.21541 -11.21520 -11.21148
 Alpha  occ. eigenvalues --   -1.59813  -1.39368  -1.19317  -1.08719  -1.08635
 Alpha  occ. eigenvalues --   -1.04724  -1.03764  -0.96226  -0.95552  -0.87255
 Alpha  occ. eigenvalues --   -0.86117  -0.82386  -0.79833  -0.78432  -0.77431
 Alpha  occ. eigenvalues --   -0.72011  -0.71135  -0.70426  -0.65266  -0.64971
 Alpha  occ. eigenvalues --   -0.64751  -0.62096  -0.61157  -0.59612  -0.57830
 Alpha  occ. eigenvalues --   -0.55504  -0.55225  -0.53355  -0.52952  -0.52579
 Alpha  occ. eigenvalues --   -0.52558  -0.50157  -0.48769  -0.48765  -0.48142
 Alpha  occ. eigenvalues --   -0.46854  -0.45978  -0.45892  -0.44776  -0.44028
 Alpha  occ. eigenvalues --   -0.37285  -0.36259
 Alpha virt. eigenvalues --    0.05093   0.11278   0.16564   0.20737   0.22757
 Alpha virt. eigenvalues --    0.24056   0.26306   0.26474   0.27077   0.27977
 Alpha virt. eigenvalues --    0.28855   0.29693   0.31265   0.31694   0.32097

 Mulliken charges:
               1
     1  C   -0.172378
     2  C   -0.218502
     3  C   -0.171384
     4  C    0.158173
     5  C   -0.170441
     6  C   -0.211856
     7  H    0.225216
     8  H    0.223139
     9  H    0.275310
    10  H    0.275070
    11  H    0.223535
    12  N    0.488131
    13  O   -0.460745
    14  O   -0.460540
    15  C   -0.299112
    16  C   -0.300756
    17  C   -0.473124
    18  H    0.152333
    19  H    0.150338
    20  H    0.151282
    21  H    0.151022
    22  H    0.158715
    23  H    0.156314
    24  H    0.148963
    25  C   -0.298383
    26  C   -0.299998
    27  C   -0.475837
    28  H    0.149566
    29  H    0.148997
    30  H    0.153484
    31  H    0.152346
    32  H    0.154733
    33  H    0.155265
    34  H    0.161127
 Sum of Mulliken charges =  -0.00000

 Dipole moment (field-independent basis, Debye):
    X=             -0.9321    Y=             -5.0864    Z=              0.4305  Tot=              5.1890
 Quadrupole moment (field-independent basis, Debye-Ang):
   XX=           -101.0568   YY=            -98.7391   ZZ=            -90.6963
   XY=            -17.8450   XZ=              3.8442   YZ=             -0.4647

 Normal termination of Gaussian 16 at Wed May  5 20:49:07 2021.
