 Gaussian 16, Revision A.03,
 Gaussian 16:  EM64L-G16RevA.03 25-Dec-2016

 -------------
 #p 6-31g* mp2
 -------------

 ------------------------------------------------------
 Input file generated by CHIRIPA (05-May-2021 14:51:11)
 ------------------------------------------------------
 Symbolic Z-matrix:
 Charge =  0 Multiplicity = 1

                         Standard orientation:
 ---------------------------------------------------------------------
 Center     Atomic      Atomic             Coordinates (Angstroms)
 Number     Number       Type             X           Y           Z
 ---------------------------------------------------------------------
      1          6           0        3.417805    0.076673    0.124911
      2          6           0        2.369529   -0.569105    1.031594
      3          6           0        1.003714    0.111195    0.933953
      4          1           0        3.516070    1.138921    0.387434
      5          1           0        3.063905    0.043098   -0.914812
      6          1           0        2.725920   -0.535564    2.069128
      7          1           0        2.273886   -1.629984    0.767010
      8          1           0        0.622891    0.065281   -0.091457
      9          1           0        1.077493    1.165919    1.218059
     10          1           0        0.269495   -0.366378    1.590236
     11          6           0        4.788436   -0.592368    0.211415
     12          6           0        5.836712    0.053410   -0.695268
     13          6           0        7.202527   -0.626890   -0.597627
     14          1           0        5.142336   -0.558794    1.251138
     15          1           0        4.690171   -1.654616   -0.051108
     16          1           0        5.932354    1.114289   -0.430684
     17          1           0        5.480321    0.019869   -1.732802
     18          1           0        7.128748   -1.681614   -0.881733
     19          1           0        7.583350   -0.580976    0.427783
     20          1           0        7.936746   -0.149317   -1.253910
     21          6           0       -3.733463    0.855852    0.130461
     22          6           0       -2.428160    1.185484   -0.594463
     23          6           0       -1.700142    2.384171    0.014581
     24          1           0       -4.390512    1.736028    0.107624
     25          1           0       -3.516421    0.655192    1.188772
     26          1           0       -2.647422    1.384107   -1.651387
     27          1           0       -1.774218    0.304359   -0.570065
     28          1           0       -1.452769    2.192284    1.063670
     29          1           0       -2.330935    3.278167   -0.023796
     30          1           0       -0.769750    2.602275   -0.518955
     31          6           0       -4.472778   -0.340157   -0.466786
     32          6           0       -5.778080   -0.669789    0.258137
     33          6           0       -6.506099   -1.868476   -0.350907
     34          1           0       -4.689821   -0.139496   -1.525098
     35          1           0       -3.815729   -1.220332   -0.443950
     36          1           0       -6.432023    0.211336    0.233739
     37          1           0       -5.558818   -0.868413    1.315061
     38          1           0       -5.875307   -2.762472   -0.312529
     39          1           0       -6.753471   -1.676588   -1.399995
     40          1           0       -7.436491   -2.086580    0.182629
 ---------------------------------------------------------------------

 SCF Done:  E(RHF) =  -470.732534867     A.U. after   11 cycles
 E2 =    -0.1583203383D+01 EUMP2 =    -0.47231573824966D+03

 The electronic state is 1-A.
 Alpha  occ. eigenvalues --  -11.21606 -11.21592 -11.21568 -11.21470 -11.21412
 Alpha  occ. eigenvalues --  -11.21353 -11.21348 -11.21283 -11.21075 -11.21048
 Alpha  occ. eigenvalues --  -11.21044 -11.20916  -1.08440  -1.08360  -1.03569
 Alpha  occ. eigenvalues --   -1.03423  -0.96055  -0.95842  -0.87061  -0.86871
 Alpha  occ. eigenvalues --   -0.79605  -0.79525  -0.78254  -0.78177  -0.65079
 Alpha  occ. eigenvalues --   -0.64988  -0.60983  -0.60835  -0.59370  -0.59279
 Alpha  occ. eigenvalues --   -0.57688  -0.57432  -0.55284  -0.55225  -0.52681
 Alpha  occ. eigenvalues --   -0.52665  -0.52357  -0.52255  -0.50098  -0.49707
 Alpha  occ. eigenvalues --   -0.47897  -0.47829  -0.46811  -0.46377  -0.45817
 Alpha  occ. eigenvalues --   -0.45743  -0.45691  -0.45543  -0.43790  -0.43702
 Alpha virt. eigenvalues --    0.21793   0.22960   0.23572   0.24858   0.26300
 Alpha virt. eigenvalues --    0.26536   0.27063   0.27578   0.27753   0.29387
 Alpha virt. eigenvalues --    0.30363   0.31128   0.31417   0.32186   0.32250

 Mulliken charges:
               1
     1  C   -0.298477
     2  C   -0.300884
     3  C   -0.477163
     4  H    0.149687
     5  H    0.149433
     6  H    0.151661
     7  H    0.151480
     8  H    0.158463
     9  H    0.157807
    10  H    0.158715
    11  C   -0.298224
    12  C   -0.299655
    13  C   -0.475709
    14  H    0.149562
    15  H    0.149638
    16  H    0.151968
    17  H    0.151914
    18  H    0.155174
    19  H    0.155193
    20  H    0.160277
    21  C   -0.297952
    22  C   -0.304386
    23  C   -0.474940
    24  H    0.149343
    25  H    0.149231
    26  H    0.150790
    27  H    0.156838
    28  H    0.157173
    29  H    0.153622
    30  H    0.160181
    31  C   -0.298282
    32  C   -0.299571
    33  C   -0.475663
    34  H    0.149342
    35  H    0.149420
    36  H    0.151903
    37  H    0.151795
    38  H    0.155053
    39  H    0.155111
    40  H    0.160130
 Sum of Mulliken charges =  -0.00000

 Dipole moment (field-independent basis, Debye):
    X=              0.0338    Y=              0.0048    Z=              0.0091  Tot=              0.0353
 Quadrupole moment (field-independent basis, Debye-Ang):
   XX=            -86.1919   YY=            -84.9261   ZZ=            -83.9467
   XY=             -0.2247   XZ=              0.3230   YZ=             -0.1532

 Normal termination of Gaussian 16 at Wed May  5 18:15:55 2021.
