 Gaussian 16, Revision A.03,
 Gaussian 16:  EM64L-G16RevA.03 25-Dec-2016

 -------------
 #p 6-31g* mp2
 -------------

 ------------------------------------------------------
 Input file generated by CHIRIPA (05-May-2021 14:57:24)
 ------------------------------------------------------
 Symbolic Z-matrix:
 Charge =  0 Multiplicity = 1

                         Standard orientation:
 ---------------------------------------------------------------------
 Center     Atomic      Atomic             Coordinates (Angstroms)
 Number     Number       Type             X           Y           Z
 ---------------------------------------------------------------------
      1          6           0       -4.852284    1.598538    0.970550
      2          6           0       -5.380991    0.749401   -0.007181
      3          6           0       -4.589932   -0.248702   -0.583867
      4          6           0       -3.268349   -0.370076   -0.157280
      5          6           0       -2.712688    0.460486    0.814676
      6          6           0       -3.522165    1.451629    1.377640
      7          1           0       -5.473951    2.371185    1.413203
      8          1           0       -6.413641    0.861180   -0.325274
      9          1           0       -4.973740   -0.919713   -1.342717
     10          1           0       -1.679736    0.324699    1.111308
     11          1           0       -3.108892    2.109651    2.136756
     12          7           0       -2.421142   -1.423039   -0.760528
     13          8           0       -1.259826   -1.509404   -0.367432
     14          8           0       -2.934458   -2.142047   -1.615028
     15          6           0        3.188336    2.513485   -0.916525
     16          6           0        4.431509    1.872408   -0.908565
     17          6           0        4.564925    0.588637   -0.371273
     18          6           0        3.429214   -0.027460    0.152057
     19          6           0        2.177025    0.585134    0.158669
     20          6           0        2.067039    1.868938   -0.383823
     21          1           0        3.093796    3.510763   -1.335925
     22          1           0        5.304038    2.370559   -1.321583
     23          1           0        5.515360    0.069282   -0.352279
     24          1           0        1.325308    0.063133    0.577611
     25          1           0        1.100318    2.364390   -0.388660
     26          7           0        3.558052   -1.386548    0.723616
     27          8           0        2.542239   -1.907870    1.178570
     28          8           0        4.672410   -1.904745    0.705826
 ---------------------------------------------------------------------

 SCF Done:  E(RHF) =  -868.336956506     A.U. after   16 cycles
 E2 =    -0.2599966505D+01 EUMP2 =    -0.87093692301167D+03

 The electronic state is 1-A.
 Alpha  occ. eigenvalues --  -20.60991 -20.60983 -20.60139 -20.60087 -15.86037
 Alpha  occ. eigenvalues --  -15.85173 -11.31522 -11.30682 -11.28158 -11.28056
 Alpha  occ. eigenvalues --  -11.27827 -11.27316 -11.27251 -11.27152 -11.27123
 Alpha  occ. eigenvalues --  -11.27094 -11.26380 -11.26360  -1.60053  -1.59191
 Alpha  occ. eigenvalues --   -1.39607  -1.38736  -1.19695  -1.18893  -1.09059
 Alpha  occ. eigenvalues --   -1.08272  -1.05119  -1.04328  -0.95879  -0.95073
 Alpha  occ. eigenvalues --   -0.86508  -0.85719  -0.82710  -0.81909  -0.77759
 Alpha  occ. eigenvalues --   -0.76910  -0.72245  -0.71392  -0.71377  -0.70799
 Alpha  occ. eigenvalues --   -0.70515  -0.70011  -0.65344  -0.65118  -0.64553
 Alpha  occ. eigenvalues --   -0.64352  -0.62481  -0.61657  -0.55596  -0.54851
 Alpha  occ. eigenvalues --   -0.53434  -0.53212  -0.52643  -0.52432  -0.49006
 Alpha  occ. eigenvalues --   -0.49000  -0.48175  -0.48128  -0.44981  -0.44109
 Alpha  occ. eigenvalues --   -0.37666  -0.36901  -0.36729  -0.35930
 Alpha virt. eigenvalues --    0.04783   0.05633   0.10914   0.11722   0.16269
 Alpha virt. eigenvalues --    0.17072   0.19778   0.21957   0.24973   0.27345
 Alpha virt. eigenvalues --    0.28129   0.29171   0.30586   0.31332   0.31877

 Mulliken charges:
               1
     1  C   -0.170876
     2  C   -0.218213
     3  C   -0.170444
     4  C    0.159350
     5  C   -0.173289
     6  C   -0.219388
     7  H    0.226474
     8  H    0.224798
     9  H    0.277162
    10  H    0.272113
    11  H    0.223256
    12  N    0.489832
    13  O   -0.461589
    14  O   -0.457486
    15  C   -0.170795
    16  C   -0.219282
    17  C   -0.170273
    18  C    0.157560
    19  C   -0.172243
    20  C   -0.220012
    21  H    0.222828
    22  H    0.221647
    23  H    0.274887
    24  H    0.286835
    25  H    0.217085
    26  N    0.487263
    27  O   -0.453360
    28  O   -0.463841
 Sum of Mulliken charges =  -0.00000

 Dipole moment (field-independent basis, Debye):
    X=             -3.6630    Y=              8.2932    Z=              0.0927  Tot=              9.0667
 Quadrupole moment (field-independent basis, Debye-Ang):
   XX=            -80.8204   YY=           -108.8887   ZZ=           -105.5942
   XY=              6.4617   XZ=            -12.2047   YZ=              0.4564

 Normal termination of Gaussian 16 at Thu May  6 18:02:36 2021.
