 Gaussian 16, Revision A.03,
 Gaussian 16:  EM64L-G16RevA.03 25-Dec-2016

 -------------
 #p 6-31g* mp2
 -------------

 ------------------------------------------------------
 Input file generated by CHIRIPA (05-May-2021 14:55:20)
 ------------------------------------------------------
 Symbolic Z-matrix:
 Charge =  0 Multiplicity = 1

                         Standard orientation:
 ---------------------------------------------------------------------
 Center     Atomic      Atomic             Coordinates (Angstroms)
 Number     Number       Type             X           Y           Z
 ---------------------------------------------------------------------
      1          6           0        5.339140   -0.553847   -0.944522
      2          6           0        4.719926    0.699294   -0.996801
      3          6           0        3.474331    0.901429   -0.394984
      4          6           0        2.873701   -0.176474    0.253598
      5          6           0        3.465250   -1.436858    0.322821
      6          6           0        4.710934   -1.616051   -0.286039
      7          1           0        6.306783   -0.701959   -1.414764
      8          1           0        5.205462    1.526028   -1.507496
      9          1           0        2.972552    1.861113   -0.420336
     10          1           0        2.956618   -2.241884    0.839199
     11          1           0        5.189476   -2.590352   -0.243853
     12          7           0        1.554999    0.025373    0.894442
     13          8           0        1.046634   -0.940390    1.459688
     14          8           0        1.054735    1.145523    0.819356
     15          6           0       -3.795810    1.013333   -0.242123
     16          6           0       -2.343806    1.346228    0.102625
     17          6           0       -2.037676    2.840204   -0.007426
     18          1           0       -4.012403    1.359295   -1.262094
     19          1           0       -4.462275    1.575370    0.426707
     20          1           0       -1.680253    0.782671   -0.565743
     21          1           0       -2.130588    0.999261    1.121825
     22          1           0       -2.675652    3.415208    0.671513
     23          1           0       -2.222759    3.197388   -1.025643
     24          1           0       -0.994355    3.055762    0.243323
     25          6           0       -4.117252   -0.476395   -0.136703
     26          6           0       -5.569256   -0.809291   -0.481451
     27          6           0       -5.875385   -2.303268   -0.371399
     28          1           0       -3.450786   -1.038433   -0.805532
     29          1           0       -3.900657   -0.822357    0.883269
     30          1           0       -5.782474   -0.462325   -1.500651
     31          1           0       -6.232809   -0.245735    0.186917
     32          1           0       -5.690302   -2.660451    0.646818
     33          1           0       -5.237409   -2.878271   -1.050339
     34          1           0       -6.918706   -2.518826   -0.622149
 ---------------------------------------------------------------------

 SCF Done:  E(RHF) =  -669.536020649     A.U. after   15 cycles
 E2 =    -0.2091753210D+01 EUMP2 =    -0.67162777385972D+03

 The electronic state is 1-A.
 Alpha  occ. eigenvalues --  -20.60988 -20.60977 -15.86008 -11.31323 -11.27884
 Alpha  occ. eigenvalues --  -11.27879 -11.27618 -11.26887 -11.26878 -11.20768
 Alpha  occ. eigenvalues --  -11.20376 -11.20300 -11.20103 -11.19837 -11.19456
 Alpha  occ. eigenvalues --   -1.60035  -1.39594  -1.19488  -1.08895  -1.07240
 Alpha  occ. eigenvalues --   -1.04883  -1.02291  -0.95742  -0.94786  -0.86284
 Alpha  occ. eigenvalues --   -0.85829  -0.82575  -0.78398  -0.77628  -0.76965
 Alpha  occ. eigenvalues --   -0.72239  -0.71346  -0.70597  -0.65146  -0.64885
 Alpha  occ. eigenvalues --   -0.63892  -0.62230  -0.59713  -0.58184  -0.56329
 Alpha  occ. eigenvalues --   -0.55382  -0.54125  -0.53214  -0.52974  -0.51482
 Alpha  occ. eigenvalues --   -0.51212  -0.48988  -0.48958  -0.48798  -0.46686
 Alpha  occ. eigenvalues --   -0.45470  -0.45024  -0.44481  -0.44403  -0.42551
 Alpha  occ. eigenvalues --   -0.37466  -0.36484
 Alpha virt. eigenvalues --    0.04888   0.11172   0.16382   0.21279   0.23938
 Alpha virt. eigenvalues --    0.25503   0.27219   0.27773   0.28035   0.28699
 Alpha virt. eigenvalues --    0.29228   0.30840   0.32205   0.32497   0.32815

 Mulliken charges:
               1
     1  C   -0.170567
     2  C   -0.218534
     3  C   -0.170616
     4  C    0.157569
     5  C   -0.170600
     6  C   -0.218588
     7  H    0.226102
     8  H    0.223963
     9  H    0.275587
    10  H    0.275971
    11  H    0.223925
    12  N    0.492985
    13  O   -0.458594
    14  O   -0.463066
    15  C   -0.299407
    16  C   -0.289965
    17  C   -0.480795
    18  H    0.143422
    19  H    0.145453
    20  H    0.148870
    21  H    0.164058
    22  H    0.147756
    23  H    0.144115
    24  H    0.175433
    25  C   -0.296801
    26  C   -0.298587
    27  C   -0.474868
    28  H    0.147706
    29  H    0.152521
    30  H    0.149196
    31  H    0.150359
    32  H    0.155304
    33  H    0.153627
    34  H    0.157067
 Sum of Mulliken charges =  -0.00000

 Dipole moment (field-independent basis, Debye):
    X=              5.0613    Y=             -0.7728    Z=             -2.1037  Tot=              5.5353
 Quadrupole moment (field-independent basis, Debye-Ang):
   XX=            -70.2331   YY=            -91.5640   ZZ=            -95.3538
   XY=             -3.1176   XZ=             -6.2541   YZ=             -1.1290

 Normal termination of Gaussian 16 at Thu May  6 17:28:38 2021.
