 Gaussian 16, Revision A.03,
 Gaussian 16:  EM64L-G16RevA.03 25-Dec-2016

 -------------
 #p 6-31g* mp2
 -------------

 ------------------------------------------------------
 Input file generated by CHIRIPA (05-May-2021 14:57:22)
 ------------------------------------------------------
 Symbolic Z-matrix:
 Charge =  0 Multiplicity = 1

                         Standard orientation:
 ---------------------------------------------------------------------
 Center     Atomic      Atomic             Coordinates (Angstroms)
 Number     Number       Type             X           Y           Z
 ---------------------------------------------------------------------
      1          6           0        2.518373    1.871839   -0.053176
      2          6           0        3.832423    2.085793   -0.482149
      3          6           0        4.763144    1.042691   -0.466513
      4          6           0        4.343795   -0.207237   -0.013618
      5          6           0        3.041751   -0.451816    0.420149
      6          6           0        2.127919    0.605950    0.395813
      7          1           0        1.801926    2.687841   -0.068701
      8          1           0        4.138459    3.067853   -0.831354
      9          1           0        5.786770    1.180610   -0.792990
     10          1           0        2.766238   -1.441803    0.762838
     11          1           0        1.108075    0.436886    0.729549
     12          7           0        5.320168   -1.319284    0.007541
     13          8           0        4.925764   -2.411168    0.411114
     14          8           0        6.461365   -1.077966   -0.379849
     15          6           0       -2.041578    1.216529    0.615888
     16          6           0       -2.355829    0.973170   -0.725209
     17          6           0       -3.539518    0.313251   -1.068629
     18          6           0       -4.389889   -0.091335   -0.040784
     19          6           0       -4.104721    0.136505    1.304601
     20          6           0       -2.915486    0.798157    1.624735
     21          1           0       -1.119907    1.729844    0.873621
     22          1           0       -1.679021    1.296950   -1.510792
     23          1           0       -3.807442    0.111946   -2.098732
     24          1           0       -4.799205   -0.198191    2.065579
     25          1           0       -2.674018    0.985801    2.667102
     26          7           0       -5.645943   -0.790879   -0.392021
     27          8           0       -6.378398   -1.137242    0.532196
     28          8           0       -5.874199   -0.979572   -1.584887
 ---------------------------------------------------------------------

 SCF Done:  E(RHF) =  -868.336441703     A.U. after   16 cycles
 E2 =    -0.2600100647D+01 EUMP2 =    -0.87093654235020D+03

 The electronic state is 1-A.
 Alpha  occ. eigenvalues --  -20.61318 -20.61313 -20.61280 -20.61274 -15.86375
 Alpha  occ. eigenvalues --  -15.86339 -11.31938 -11.31860 -11.28489 -11.28480
 Alpha  occ. eigenvalues --  -11.28460 -11.28428 -11.28427 -11.28328 -11.27636
 Alpha  occ. eigenvalues --  -11.27609 -11.27581 -11.27500  -1.60388  -1.60352
 Alpha  occ. eigenvalues --   -1.39936  -1.39900  -1.20131  -1.20064  -1.09533
 Alpha  occ. eigenvalues --   -1.09451  -1.05543  -1.05487  -0.96330  -0.96251
 Alpha  occ. eigenvalues --   -0.86956  -0.86897  -0.83141  -0.83070  -0.78122
 Alpha  occ. eigenvalues --   -0.78077  -0.72592  -0.72557  -0.71711  -0.71677
 Alpha  occ. eigenvalues --   -0.71393  -0.71175  -0.65798  -0.65731  -0.65621
 Alpha  occ. eigenvalues --   -0.65444  -0.62873  -0.62826  -0.56180  -0.56055
 Alpha  occ. eigenvalues --   -0.53909  -0.53812  -0.53640  -0.53542  -0.49368
 Alpha  occ. eigenvalues --   -0.49334  -0.49326  -0.49298  -0.45297  -0.45270
 Alpha  occ. eigenvalues --   -0.38185  -0.38086  -0.37133  -0.37072
 Alpha virt. eigenvalues --    0.04341   0.04457   0.10434   0.10613   0.15594
 Alpha virt. eigenvalues --    0.15897   0.17945   0.21987   0.25019   0.26479
 Alpha virt. eigenvalues --    0.27071   0.29413   0.30044   0.30695   0.31853

 Mulliken charges:
               1
     1  C   -0.173179
     2  C   -0.217804
     3  C   -0.170158
     4  C    0.159455
     5  C   -0.170262
     6  C   -0.222628
     7  H    0.219137
     8  H    0.225357
     9  H    0.278002
    10  H    0.278477
    11  H    0.220377
    12  N    0.487867
    13  O   -0.458450
    14  O   -0.458521
    15  C   -0.176665
    16  C   -0.217723
    17  C   -0.170001
    18  C    0.160274
    19  C   -0.170149
    20  C   -0.218120
    21  H    0.216943
    22  H    0.223555
    23  H    0.278482
    24  H    0.278447
    25  H    0.225550
    26  N    0.487834
    27  O   -0.458042
    28  O   -0.458053
 Sum of Mulliken charges =  -0.00000

 Dipole moment (field-independent basis, Debye):
    X=              0.9117    Y=              6.2332    Z=              1.1096  Tot=              6.3965
 Quadrupole moment (field-independent basis, Debye-Ang):
   XX=           -169.5303   YY=           -106.3033   ZZ=           -100.1589
   XY=              9.1978   XZ=             -8.7679   YZ=             -2.0527

 Normal termination of Gaussian 16 at Thu May  6 22:37:50 2021.
