 Gaussian 16, Revision A.03,
 Gaussian 16:  EM64L-G16RevA.03 25-Dec-2016

 -------------
 #p 6-31g* mp2
 -------------

 ------------------------------------------------------
 Input file generated by CHIRIPA (05-May-2021 14:57:22)
 ------------------------------------------------------
 Symbolic Z-matrix:
 Charge =  0 Multiplicity = 1

                         Standard orientation:
 ---------------------------------------------------------------------
 Center     Atomic      Atomic             Coordinates (Angstroms)
 Number     Number       Type             X           Y           Z
 ---------------------------------------------------------------------
      1          6           0        1.189839    0.776792    0.370172
      2          6           0        2.156122    1.773664    0.199690
      3          6           0        3.484086    1.435361   -0.077098
      4          6           0        3.812279    0.084216   -0.177032
      5          6           0        2.872376   -0.932029   -0.012363
      6          6           0        1.550414   -0.570498    0.263790
      7          1           0        0.160576    1.048616    0.584941
      8          1           0        1.878967    2.820801    0.281748
      9          1           0        4.252293    2.186779   -0.213656
     10          1           0        3.178924   -1.967285   -0.100065
     11          1           0        0.802097   -1.346812    0.395709
     12          7           0        5.214958   -0.286225   -0.469718
     13          8           0        5.478545   -1.483831   -0.552777
     14          8           0        6.024232    0.628043   -0.610525
     15          6           0       -1.779707   -0.679509    1.812684
     16          6           0       -2.330463    0.605199    1.760614
     17          6           0       -3.329093    0.912475    0.831708
     18          6           0       -3.755253   -0.093622   -0.033999
     19          6           0       -3.226125   -1.383028   -0.006730
     20          6           0       -2.228503   -1.667781    0.930402
     21          1           0       -1.004338   -0.909461    2.537476
     22          1           0       -1.983863    1.374687    2.444573
     23          1           0       -3.772768    1.898742    0.769681
     24          1           0       -3.592088   -2.129181   -0.701529
     25          1           0       -1.802592   -2.666373    0.968564
     26          7           0       -4.811924    0.219756   -1.021744
     27          8           0       -5.170102   -0.684271   -1.773462
     28          8           0       -5.261958    1.363475   -1.025517
 ---------------------------------------------------------------------

 SCF Done:  E(RHF) =  -868.335947341     A.U. after   16 cycles
 E2 =    -0.2603121688D+01 EUMP2 =    -0.87093906902855D+03

 The electronic state is 1-A.
 Alpha  occ. eigenvalues --  -20.61709 -20.61702 -20.61068 -20.61061 -15.86774
 Alpha  occ. eigenvalues --  -15.86124 -11.32426 -11.31536 -11.29073 -11.29038
 Alpha  occ. eigenvalues --  -11.28856 -11.28150 -11.28112 -11.28110 -11.28102
 Alpha  occ. eigenvalues --  -11.27726 -11.27132 -11.27103  -1.60778  -1.60143
 Alpha  occ. eigenvalues --   -1.40323  -1.39695  -1.20677  -1.19716  -1.10038
 Alpha  occ. eigenvalues --   -1.09082  -1.06109  -1.05139  -0.96795  -0.95912
 Alpha  occ. eigenvalues --   -0.87498  -0.86531  -0.83596  -0.82762  -0.78585
 Alpha  occ. eigenvalues --   -0.77814  -0.72987  -0.72343  -0.72108  -0.71767
 Alpha  occ. eigenvalues --   -0.71468  -0.70820  -0.66312  -0.66110  -0.65363
 Alpha  occ. eigenvalues --   -0.65153  -0.63413  -0.62499  -0.56586  -0.55830
 Alpha  occ. eigenvalues --   -0.54212  -0.54158  -0.53456  -0.53202  -0.49767
 Alpha  occ. eigenvalues --   -0.49721  -0.49105  -0.49093  -0.45664  -0.45090
 Alpha  occ. eigenvalues --   -0.38671  -0.37755  -0.37622  -0.36756
 Alpha virt. eigenvalues --    0.03914   0.04747   0.09685   0.10836   0.15304
 Alpha virt. eigenvalues --    0.16208   0.19483   0.21921   0.25031   0.26810
 Alpha virt. eigenvalues --    0.27932   0.28702   0.29935   0.30534   0.32046

 Mulliken charges:
               1
     1  C   -0.178640
     2  C   -0.220986
     3  C   -0.169872
     4  C    0.158337
     5  C   -0.170675
     6  C   -0.226040
     7  H    0.234871
     8  H    0.223529
     9  H    0.276596
    10  H    0.275018
    11  H    0.217933
    12  N    0.488049
    13  O   -0.460416
    14  O   -0.459349
    15  C   -0.176849
    16  C   -0.232941
    17  C   -0.169278
    18  C    0.159558
    19  C   -0.167647
    20  C   -0.223090
    21  H    0.232634
    22  H    0.227809
    23  H    0.279805
    24  H    0.280865
    25  H    0.226618
    26  N    0.488060
    27  O   -0.456400
    28  O   -0.457499
 Sum of Mulliken charges =  -0.00000

 Dipole moment (field-independent basis, Debye):
    X=             -1.6096    Y=              0.2011    Z=              4.4411  Tot=              4.7281
 Quadrupole moment (field-independent basis, Debye-Ang):
   XX=           -170.0722   YY=            -95.2011   ZZ=           -106.1682
   XY=              9.7760   XZ=             -8.5178   YZ=              1.2924

 Normal termination of Gaussian 16 at Fri May  7 03:20:15 2021.
