 Gaussian 16, Revision A.03,
 Gaussian 16:  EM64L-G16RevA.03 25-Dec-2016

 -------------
 #p 6-31g* mp2
 -------------

 ------------------------------------------------------
 Input file generated by CHIRIPA (05-May-2021 14:57:26)
 ------------------------------------------------------
 Symbolic Z-matrix:
 Charge =  0 Multiplicity = 1

                         Standard orientation:
 ---------------------------------------------------------------------
 Center     Atomic      Atomic             Coordinates (Angstroms)
 Number     Number       Type             X           Y           Z
 ---------------------------------------------------------------------
      1          6           0        2.782049    2.248864    0.607718
      2          6           0        3.693746    1.215968    0.849495
      3          6           0        3.433456   -0.081107    0.397397
      4          6           0        2.246331   -0.310822   -0.296328
      5          6           0        1.318256    0.697215   -0.552896
      6          6           0        1.599299    1.986653   -0.091473
      7          1           0        2.992310    3.253497    0.962541
      8          1           0        4.613092    1.416688    1.392229
      9          1           0        4.121852   -0.899326    0.570738
     10          1           0        0.410306    0.466397   -1.096743
     11          1           0        0.889439    2.786866   -0.280691
     12          7           0        1.959789   -1.679935   -0.779880
     13          8           0        0.906753   -1.856370   -1.388670
     14          8           0        2.793658   -2.550687   -0.540943
     15          6           0       -2.346277    2.366966   -0.858810
     16          6           0       -2.811051    1.250751   -1.562065
     17          6           0       -2.786590   -0.018343   -0.976104
     18          6           0       -2.288460   -0.135419    0.320603
     19          6           0       -1.818287    0.957549    1.046998
     20          6           0       -1.852249    2.217066    0.441186
     21          1           0       -2.368968    3.349109   -1.321708
     22          1           0       -3.195266    1.364180   -2.571797
     23          1           0       -3.140132   -0.899372   -1.497844
     24          1           0       -1.441050    0.813025    2.052096
     25          1           0       -1.490641    3.082163    0.989723
     26          7           0       -2.257536   -1.473883    0.951441
     27          8           0       -1.813813   -1.550474    2.095068
     28          8           0       -2.677606   -2.421037    0.290321
 ---------------------------------------------------------------------

 SCF Done:  E(RHF) =  -868.335083761     A.U. after   16 cycles
 E2 =    -0.2605773717D+01 EUMP2 =    -0.87094085747863D+03

 The electronic state is 1-A.
 Alpha  occ. eigenvalues --  -20.60657 -20.60600 -20.60591 -20.60581 -15.85700
 Alpha  occ. eigenvalues --  -15.85649 -11.31472 -11.31114 -11.28125 -11.28056
 Alpha  occ. eigenvalues --  -11.28013 -11.27702 -11.27677 -11.27534 -11.27278
 Alpha  occ. eigenvalues --  -11.27208 -11.26761 -11.26752  -1.59684  -1.59655
 Alpha  occ. eigenvalues --   -1.39229  -1.39212  -1.19774  -1.19314  -1.09069
 Alpha  occ. eigenvalues --   -1.08710  -1.05232  -1.04711  -0.95811  -0.95517
 Alpha  occ. eigenvalues --   -0.86590  -0.86133  -0.82642  -0.82339  -0.77596
 Alpha  occ. eigenvalues --   -0.77374  -0.71920  -0.71876  -0.71102  -0.70878
 Alpha  occ. eigenvalues --   -0.70816  -0.70457  -0.65371  -0.65269  -0.64982
 Alpha  occ. eigenvalues --   -0.64715  -0.62511  -0.62144  -0.55695  -0.55344
 Alpha  occ. eigenvalues --   -0.53666  -0.53281  -0.52918  -0.52708  -0.48709
 Alpha  occ. eigenvalues --   -0.48637  -0.48624  -0.48614  -0.44627  -0.44511
 Alpha  occ. eigenvalues --   -0.37853  -0.37399  -0.37258  -0.35732
 Alpha virt. eigenvalues --    0.04804   0.05317   0.10371   0.11560   0.16087
 Alpha virt. eigenvalues --    0.16898   0.20342   0.21891   0.26121   0.27645
 Alpha virt. eigenvalues --    0.28143   0.28424   0.30272   0.31258   0.32168

 Mulliken charges:
               1
     1  C   -0.172474
     2  C   -0.218789
     3  C   -0.169347
     4  C    0.158071
     5  C   -0.172982
     6  C   -0.219859
     7  H    0.222400
     8  H    0.223257
     9  H    0.276831
    10  H    0.279887
    11  H    0.214797
    12  N    0.489121
    13  O   -0.461746
    14  O   -0.457431
    15  C   -0.178792
    16  C   -0.221047
    17  C   -0.167315
    18  C    0.159128
    19  C   -0.168440
    20  C   -0.226357
    21  H    0.225152
    22  H    0.227180
    23  H    0.283179
    24  H    0.277860
    25  H    0.220239
    26  N    0.490479
    27  O   -0.462176
    28  O   -0.450823
 Sum of Mulliken charges =  -0.00000

 Dipole moment (field-independent basis, Debye):
    X=              0.6829    Y=              9.0664    Z=             -0.5449  Tot=              9.1084
 Quadrupole moment (field-independent basis, Debye-Ang):
   XX=            -95.4914   YY=           -109.3213   ZZ=           -103.9974
   XY=             -0.7199   XZ=             12.7634   YZ=              1.1208

 Normal termination of Gaussian 16 at Wed May  5 18:03:46 2021.
