 Gaussian 16, Revision A.03,
 Gaussian 16:  EM64L-G16RevA.03 25-Dec-2016

 -------------
 #p 6-31g* mp2
 -------------

 ------------------------------------------------------
 Input file generated by CHIRIPA (05-May-2021 14:55:21)
 ------------------------------------------------------
 Symbolic Z-matrix:
 Charge =  0 Multiplicity = 1

                         Standard orientation:
 ---------------------------------------------------------------------
 Center     Atomic      Atomic             Coordinates (Angstroms)
 Number     Number       Type             X           Y           Z
 ---------------------------------------------------------------------
      1          6           0        4.234926    1.075860   -1.039820
      2          6           0        3.084650    1.644167   -0.482673
      3          6           0        2.143344    0.844416    0.172225
      4          6           0        2.385224   -0.526146    0.251872
      5          6           0        3.521539   -1.122048   -0.293087
      6          6           0        4.449322   -0.303003   -0.943419
      7          1           0        4.960902    1.704620   -1.546787
      8          1           0        2.915533    2.714710   -0.556022
      9          1           0        1.244250    1.258187    0.612498
     10          1           0        3.662570   -2.192370   -0.203986
     11          1           0        5.341741   -0.747102   -1.375169
     12          7           0        1.395865   -1.383020    0.942766
     13          8           0        1.632223   -2.587827    0.999441
     14          8           0        0.402779   -0.833606    1.414531
     15          6           0       -3.256062    1.155762    0.202498
     16          6           0       -2.004081    1.993443   -0.059831
     17          6           0       -2.007261    3.316981    0.705695
     18          1           0       -4.144644    1.739253   -0.074822
     19          1           0       -3.336531    0.956900    1.280169
     20          1           0       -1.925250    2.189496   -1.136848
     21          1           0       -1.118366    1.407819    0.217965
     22          1           0       -2.061519    3.137966    1.784403
     23          1           0       -2.872986    3.924085    0.421891
     24          1           0       -1.103227    3.899843    0.503571
     25          6           0       -3.267542   -0.170359   -0.555788
     26          6           0       -4.519524   -1.008039   -0.293458
     27          6           0       -4.516343   -2.331577   -1.058985
     28          1           0       -3.187073    0.028503   -1.633458
     29          1           0       -2.378960   -0.753850   -0.278468
     30          1           0       -5.405238   -0.422415   -0.571256
     31          1           0       -4.598355   -1.204092    0.783558
     32          1           0       -3.650617   -2.938682   -0.775181
     33          1           0       -4.462084   -2.152563   -2.137693
     34          1           0       -5.420376   -2.914440   -0.856862
 ---------------------------------------------------------------------

 SCF Done:  E(RHF) =  -669.536197526     A.U. after   15 cycles
 E2 =    -0.2092210320D+01 EUMP2 =    -0.67162840784586D+03

 The electronic state is 1-A.
 Alpha  occ. eigenvalues --  -20.60997 -20.60990 -15.86014 -11.31282 -11.27845
 Alpha  occ. eigenvalues --  -11.27822 -11.27576 -11.26845 -11.26830 -11.21261
 Alpha  occ. eigenvalues --  -11.20987 -11.20887 -11.20804 -11.20568 -11.20382
 Alpha  occ. eigenvalues --   -1.60048  -1.39607  -1.19450  -1.08865  -1.07829
 Alpha  occ. eigenvalues --   -1.04839  -1.03040  -0.95715  -0.95484  -0.86506
 Alpha  occ. eigenvalues --   -0.86245  -0.82550  -0.79130  -0.77718  -0.77510
 Alpha  occ. eigenvalues --   -0.72242  -0.71352  -0.70567  -0.65112  -0.64873
 Alpha  occ. eigenvalues --   -0.64408  -0.62213  -0.60405  -0.58899  -0.57106
 Alpha  occ. eigenvalues --   -0.55351  -0.54745  -0.53172  -0.52939  -0.52235
 Alpha  occ. eigenvalues --   -0.51921  -0.49432  -0.48999  -0.48983  -0.47427
 Alpha  occ. eigenvalues --   -0.46109  -0.45345  -0.45133  -0.44708  -0.43254
 Alpha  occ. eigenvalues --   -0.37428  -0.36432
 Alpha virt. eigenvalues --    0.04871   0.11179   0.16373   0.20665   0.23413
 Alpha virt. eigenvalues --    0.24360   0.26543   0.27370   0.27776   0.28396
 Alpha virt. eigenvalues --    0.29370   0.30689   0.31589   0.32053   0.32176

 Mulliken charges:
               1
     1  C   -0.170284
     2  C   -0.220698
     3  C   -0.172090
     4  C    0.155969
     5  C   -0.170310
     6  C   -0.218757
     7  H    0.226022
     8  H    0.224331
     9  H    0.283774
    10  H    0.275682
    11  H    0.223765
    12  N    0.489068
    13  O   -0.458396
    14  O   -0.463931
    15  C   -0.294935
    16  C   -0.312699
    17  C   -0.475593
    18  H    0.145825
    19  H    0.154553
    20  H    0.147531
    21  H    0.163933
    22  H    0.158887
    23  H    0.155971
    24  H    0.149650
    25  C   -0.304383
    26  C   -0.299163
    27  C   -0.476518
    28  H    0.143641
    29  H    0.166139
    30  H    0.147898
    31  H    0.154690
    32  H    0.160492
    33  H    0.151843
    34  H    0.158093
 Sum of Mulliken charges =  -0.00000

 Dipole moment (field-independent basis, Debye):
    X=              3.6278    Y=              2.8405    Z=             -2.3298  Tot=              5.1631
 Quadrupole moment (field-independent basis, Debye-Ang):
   XX=            -77.0403   YY=            -96.1388   ZZ=            -96.3350
   XY=              2.6965   XZ=             -5.8941   YZ=              2.0275

 Normal termination of Gaussian 16 at Wed May  5 15:54:59 2021.
