 Gaussian 16, Revision A.03,
 Gaussian 16:  EM64L-G16RevA.03 25-Dec-2016

 -------------
 #p 6-31g* mp2
 -------------

 ------------------------------------------------------
 Input file generated by CHIRIPA (05-May-2021 14:55:19)
 ------------------------------------------------------
 Symbolic Z-matrix:
 Charge =  0 Multiplicity = 1

                         Standard orientation:
 ---------------------------------------------------------------------
 Center     Atomic      Atomic             Coordinates (Angstroms)
 Number     Number       Type             X           Y           Z
 ---------------------------------------------------------------------
      1          6           0       -4.882520    1.283256    0.609582
      2          6           0       -4.974186    0.376959   -0.451899
      3          6           0       -3.869634   -0.395319   -0.823519
      4          6           0       -2.683622   -0.235037   -0.108694
      5          6           0       -2.560901    0.659425    0.953458
      6          6           0       -3.678294    1.421353    1.307643
      7          1           0       -5.745550    1.879160    0.891494
      8          1           0       -5.908129    0.267612   -0.995810
      9          1           0       -3.912899   -1.104448   -1.641249
     10          1           0       -1.616462    0.746312    1.476816
     11          1           0       -3.604202    2.124409    2.132426
     12          7           0       -1.507486   -1.047135   -0.492883
     13          8           0       -0.473953   -0.887255    0.152784
     14          8           0       -1.641433   -1.828159   -1.432402
     15          6           0        3.643568    0.708927   -0.438066
     16          6           0        4.109992    2.041978    0.147948
     17          6           0        4.024902    3.191453   -0.856672
     18          1           0        4.251619    0.471303   -1.321668
     19          1           0        2.607968    0.813463   -0.790199
     20          1           0        5.143940    1.934568    0.500130
     21          1           0        3.500887    2.276363    1.030371
     22          1           0        2.994313    3.327341   -1.200213
     23          1           0        4.646701    2.983604   -1.733467
     24          1           0        4.363092    4.134882   -0.416867
     25          6           0        3.722739   -0.449872    0.554227
     26          6           0        3.256315   -1.782923   -0.031787
     27          6           0        3.341404   -2.932397    0.972834
     28          1           0        4.758340   -0.554408    0.906360
     29          1           0        3.114688   -0.212247    1.437829
     30          1           0        3.865420   -2.017308   -0.914210
     31          1           0        2.222368   -1.675513   -0.383969
     32          1           0        2.719607   -2.724548    1.849628
     33          1           0        4.371995   -3.068285    1.316373
     34          1           0        3.003215   -3.875826    0.533028
 ---------------------------------------------------------------------

 SCF Done:  E(RHF) =  -669.536551290     A.U. after   15 cycles
 E2 =    -0.2091245859D+01 EUMP2 =    -0.67162779714881D+03

 The electronic state is 1-A.
 Alpha  occ. eigenvalues --  -20.61087 -20.61075 -15.86101 -11.31378 -11.27935
 Alpha  occ. eigenvalues --  -11.27929 -11.27661 -11.26929 -11.26919 -11.20884
 Alpha  occ. eigenvalues --  -11.20529 -11.20339 -11.20157 -11.19903 -11.19718
 Alpha  occ. eigenvalues --   -1.60134  -1.39691  -1.19539  -1.08953  -1.07310
 Alpha  occ. eigenvalues --   -1.04928  -1.02426  -0.95802  -0.94932  -0.86331
 Alpha  occ. eigenvalues --   -0.85961  -0.82638  -0.78534  -0.77696  -0.77058
 Alpha  occ. eigenvalues --   -0.72325  -0.71441  -0.70648  -0.65198  -0.64931
 Alpha  occ. eigenvalues --   -0.63925  -0.62276  -0.59806  -0.58342  -0.56518
 Alpha  occ. eigenvalues --   -0.55434  -0.54227  -0.53262  -0.53019  -0.51665
 Alpha  occ. eigenvalues --   -0.51357  -0.49167  -0.49074  -0.48851  -0.46841
 Alpha  occ. eigenvalues --   -0.45535  -0.45134  -0.44640  -0.44364  -0.42685
 Alpha  occ. eigenvalues --   -0.37515  -0.36527
 Alpha virt. eigenvalues --    0.04826   0.11129   0.16329   0.21251   0.23870
 Alpha virt. eigenvalues --    0.25379   0.27181   0.27614   0.28249   0.28667
 Alpha virt. eigenvalues --    0.29033   0.30870   0.32319   0.32481   0.32775

 Mulliken charges:
               1
     1  C   -0.170412
     2  C   -0.218584
     3  C   -0.170440
     4  C    0.157636
     5  C   -0.170802
     6  C   -0.218508
     7  H    0.226342
     8  H    0.224137
     9  H    0.276081
    10  H    0.275573
    11  H    0.224158
    12  N    0.490041
    13  O   -0.461784
    14  O   -0.457957
    15  C   -0.299445
    16  C   -0.298380
    17  C   -0.474805
    18  H    0.146966
    19  H    0.156235
    20  H    0.149838
    21  H    0.148513
    22  H    0.153526
    23  H    0.154787
    24  H    0.156595
    25  C   -0.295158
    26  C   -0.311220
    27  C   -0.473684
    28  H    0.142822
    29  H    0.148369
    30  H    0.144223
    31  H    0.184219
    32  H    0.154598
    33  H    0.147257
    34  H    0.159264
 Sum of Mulliken charges =  -0.00000

 Dipole moment (field-independent basis, Debye):
    X=             -4.5794    Y=              2.7999    Z=              1.2787  Tot=              5.5177
 Quadrupole moment (field-independent basis, Debye-Ang):
   XX=            -71.9582   YY=            -97.2172   ZZ=            -93.2111
   XY=             -5.7664   XZ=             -1.5170   YZ=              2.1230

 Normal termination of Gaussian 16 at Thu May  6 04:28:37 2021.
