 Gaussian 16, Revision A.03,
 Gaussian 16:  EM64L-G16RevA.03 25-Dec-2016

 -------------
 #p 6-31g* mp2
 -------------

 ------------------------------------------------------
 Input file generated by CHIRIPA (05-May-2021 14:57:21)
 ------------------------------------------------------
 Symbolic Z-matrix:
 Charge =  0 Multiplicity = 1

                         Standard orientation:
 ---------------------------------------------------------------------
 Center     Atomic      Atomic             Coordinates (Angstroms)
 Number     Number       Type             X           Y           Z
 ---------------------------------------------------------------------
      1          6           0        2.196937    1.576098    0.417018
      2          6           0        2.585739    0.619522    1.360584
      3          6           0        3.692180   -0.201826    1.124526
      4          6           0        4.390125   -0.038811   -0.071128
      5          6           0        4.027540    0.905104   -1.030736
      6          6           0        2.917808    1.715591   -0.773531
      7          1           0        1.336149    2.209923    0.608607
      8          1           0        2.027776    0.508967    2.286057
      9          1           0        4.015049   -0.950446    1.837788
     10          1           0        4.603506    0.991885   -1.944055
     11          1           0        2.618153    2.457635   -1.508121
     12          7           0        5.563206   -0.902586   -0.332226
     13          8           0        6.161413   -0.739193   -1.393399
     14          8           0        5.862249   -1.726650    0.529243
     15          6           0       -1.873687    0.620412    0.695188
     16          6           0       -2.839909    1.578879    0.372266
     17          6           0       -4.130292    1.189230    0.001274
     18          6           0       -4.421375   -0.173540   -0.036396
     19          6           0       -3.480509   -1.152389    0.279697
     20          6           0       -2.196502   -0.739765    0.647956
     21          1           0       -0.873763    0.932025    0.982323
     22          1           0       -2.592032    2.635912    0.408079
     23          1           0       -4.897547    1.910149   -0.253701
     24          1           0       -3.757373   -2.198694    0.234847
     25          1           0       -1.448138   -1.486333    0.898221
     26          7           0       -5.784071   -0.598205   -0.427702
     27          8           0       -6.015384   -1.805054   -0.453165
     28          8           0       -6.595035    0.283832   -0.701537
 ---------------------------------------------------------------------

 SCF Done:  E(RHF) =  -868.336386154     A.U. after   16 cycles
 E2 =    -0.2600133174D+01 EUMP2 =    -0.87093651932729D+03

 The electronic state is 1-A.
 Alpha  occ. eigenvalues --  -20.61441 -20.61433 -20.61208 -20.61201 -15.86499
 Alpha  occ. eigenvalues --  -15.86265 -11.32060 -11.31759 -11.28656 -11.28607
 Alpha  occ. eigenvalues --  -11.28544 -11.28349 -11.28314 -11.28212 -11.27798
 Alpha  occ. eigenvalues --  -11.27696 -11.27456 -11.27390  -1.60510  -1.60279
 Alpha  occ. eigenvalues --   -1.40058  -1.39829  -1.20262  -1.19955  -1.09653
 Alpha  occ. eigenvalues --   -1.09349  -1.05682  -1.05370  -0.96454  -0.96154
 Alpha  occ. eigenvalues --   -0.87089  -0.86777  -0.83268  -0.82977  -0.78250
 Alpha  occ. eigenvalues --   -0.77983  -0.72715  -0.72481  -0.71835  -0.71609
 Alpha  occ. eigenvalues --   -0.71603  -0.70982  -0.65925  -0.65701  -0.65618
 Alpha  occ. eigenvalues --   -0.65383  -0.63011  -0.62709  -0.56461  -0.55794
 Alpha  occ. eigenvalues --   -0.53994  -0.53780  -0.53696  -0.53473  -0.49490
 Alpha  occ. eigenvalues --   -0.49456  -0.49252  -0.49227  -0.45419  -0.45205
 Alpha  occ. eigenvalues --   -0.38310  -0.37959  -0.37273  -0.36963
 Alpha virt. eigenvalues --    0.04222   0.04564   0.10284   0.10678   0.15541
 Alpha virt. eigenvalues --    0.16036   0.18235   0.21933   0.25234   0.25923
 Alpha virt. eigenvalues --    0.27090   0.29406   0.29937   0.30755   0.32317

 Mulliken charges:
               1
     1  C   -0.173468
     2  C   -0.221558
     3  C   -0.170157
     4  C    0.159792
     5  C   -0.169831
     6  C   -0.217196
     7  H    0.218340
     8  H    0.221469
     9  H    0.278005
    10  H    0.278942
    11  H    0.226367
    12  N    0.487884
    13  O   -0.457557
    14  O   -0.458494
    15  C   -0.172056
    16  C   -0.219432
    17  C   -0.170046
    18  C    0.159152
    19  C   -0.169982
    20  C   -0.219010
    21  H    0.217721
    22  H    0.220427
    23  H    0.277058
    24  H    0.278003
    25  H    0.225434
    26  N    0.487904
    27  O   -0.458433
    28  O   -0.459277
 Sum of Mulliken charges =  -0.00000

 Dipole moment (field-independent basis, Debye):
    X=              0.7918    Y=              4.4035    Z=              2.1613  Tot=              4.9688
 Quadrupole moment (field-independent basis, Debye-Ang):
   XX=           -182.5337   YY=           -100.5577   ZZ=           -102.0956
   XY=              5.1003   XZ=             -2.6442   YZ=             -3.7277

 Normal termination of Gaussian 16 at Thu May  6 09:38:36 2021.
