 Gaussian 16, Revision A.03,
 Gaussian 16:  EM64L-G16RevA.03 25-Dec-2016

 -------------
 #p 6-31g* mp2
 -------------

 ------------------------------------------------------
 Input file generated by CHIRIPA (05-May-2021 14:57:22)
 ------------------------------------------------------
 Symbolic Z-matrix:
 Charge =  0 Multiplicity = 1

                         Standard orientation:
 ---------------------------------------------------------------------
 Center     Atomic      Atomic             Coordinates (Angstroms)
 Number     Number       Type             X           Y           Z
 ---------------------------------------------------------------------
      1          6           0        1.437608    0.503376    2.282586
      2          6           0        1.740818    1.495801    1.344674
      3          6           0        2.545771    1.205677    0.239040
      4          6           0        3.032784   -0.093276    0.101828
      5          6           0        2.748440   -1.103715    1.019135
      6          6           0        1.941498   -0.790932    2.117115
      7          1           0        0.811528    0.737552    3.138496
      8          1           0        1.350879    2.501847    1.470624
      9          1           0        2.796169    1.954865   -0.502200
     10          1           0        3.151793   -2.097429    0.866634
     11          1           0        1.707663   -1.563665    2.843923
     12          7           0        3.886005   -0.412411   -1.064606
     13          8           0        4.302702   -1.564527   -1.162739
     14          8           0        4.121907    0.495610   -1.858637
     15          6           0       -3.834560   -2.290603   -0.086864
     16          6           0       -4.680041   -1.181592    0.021651
     17          6           0       -4.168842    0.114718   -0.091514
     18          6           0       -2.801056    0.266059   -0.314102
     19          6           0       -1.933027   -0.818889   -0.426808
     20          6           0       -2.466164   -2.106037   -0.310354
     21          1           0       -4.240193   -3.294049    0.002322
     22          1           0       -5.743165   -1.321917    0.195209
     23          1           0       -4.800749    0.990913   -0.011555
     24          1           0       -0.877559   -0.647288   -0.599896
     25          1           0       -1.807179   -2.965462   -0.395052
     26          7           0       -2.248260    1.633555   -0.435646
     27          8           0       -1.039602    1.740108   -0.631681
     28          8           0       -3.034103    2.572949   -0.332576
 ---------------------------------------------------------------------

 SCF Done:  E(RHF) =  -868.338998454     A.U. after   16 cycles
 E2 =    -0.2600494638D+01 EUMP2 =    -0.87093949309220D+03

 The electronic state is 1-A.
 Alpha  occ. eigenvalues --  -20.61291 -20.61285 -20.60498 -20.60469 -15.86321
 Alpha  occ. eigenvalues --  -15.85532 -11.31550 -11.30809 -11.28122 -11.28070
 Alpha  occ. eigenvalues --  -11.27836 -11.27410 -11.27194 -11.27100 -11.27072
 Alpha  occ. eigenvalues --  -11.27032 -11.26460 -11.26169  -1.60366  -1.59565
 Alpha  occ. eigenvalues --   -1.39920  -1.39119  -1.19718  -1.18951  -1.09143
 Alpha  occ. eigenvalues --   -1.08368  -1.05093  -1.04303  -0.95997  -0.95218
 Alpha  occ. eigenvalues --   -0.86497  -0.85714  -0.82833  -0.82030  -0.77890
 Alpha  occ. eigenvalues --   -0.77095  -0.72561  -0.71750  -0.71685  -0.70893
 Alpha  occ. eigenvalues --   -0.70815  -0.70051  -0.65370  -0.65091  -0.64585
 Alpha  occ. eigenvalues --   -0.64288  -0.62433  -0.61640  -0.55605  -0.54831
 Alpha  occ. eigenvalues --   -0.53444  -0.53202  -0.52652  -0.52378  -0.49314
 Alpha  occ. eigenvalues --   -0.49301  -0.48515  -0.48496  -0.45358  -0.44542
 Alpha  occ. eigenvalues --   -0.37706  -0.36973  -0.36672  -0.35832
 Alpha virt. eigenvalues --    0.04602   0.05405   0.10956   0.11760   0.16123
 Alpha virt. eigenvalues --    0.16964   0.21102   0.21896   0.26992   0.27829
 Alpha virt. eigenvalues --    0.27975   0.28730   0.30623   0.31433   0.32054

 Mulliken charges:
               1
     1  C   -0.176793
     2  C   -0.202461
     3  C   -0.166559
     4  C    0.154169
     5  C   -0.178603
     6  C   -0.221829
     7  H    0.224232
     8  H    0.232838
     9  H    0.279362
    10  H    0.271470
    11  H    0.219131
    12  N    0.487870
    13  O   -0.464569
    14  O   -0.457849
    15  C   -0.170506
    16  C   -0.219026
    17  C   -0.171253
    18  C    0.156085
    19  C   -0.171380
    20  C   -0.219992
    21  H    0.226705
    22  H    0.224230
    23  H    0.275575
    24  H    0.279711
    25  H    0.225179
    26  N    0.488285
    27  O   -0.463600
    28  O   -0.460421
 Sum of Mulliken charges =  -0.00000

 Dipole moment (field-independent basis, Debye):
    X=             -5.0902    Y=             -3.4140    Z=              4.4719  Tot=              7.5871
 Quadrupole moment (field-independent basis, Debye-Ang):
   XX=           -109.1318   YY=           -102.7152   ZZ=           -105.3288
   XY=             15.3037   XZ=             10.9054   YZ=              0.2139

 Normal termination of Gaussian 16 at Wed May  5 22:36:39 2021.
