 Gaussian 16, Revision A.03,
 Gaussian 16:  EM64L-G16RevA.03 25-Dec-2016

 -------------
 #p 6-31g* mp2
 -------------

 ------------------------------------------------------
 Input file generated by CHIRIPA (05-May-2021 14:57:24)
 ------------------------------------------------------
 Symbolic Z-matrix:
 Charge =  0 Multiplicity = 1

                         Standard orientation:
 ---------------------------------------------------------------------
 Center     Atomic      Atomic             Coordinates (Angstroms)
 Number     Number       Type             X           Y           Z
 ---------------------------------------------------------------------
      1          6           0        6.022144    0.671217   -0.027544
      2          6           0        5.802053   -0.701150   -0.184672
      3          6           0        4.501861   -1.214849   -0.197320
      4          6           0        3.440236   -0.323545   -0.049607
      5          6           0        3.627109    1.048783    0.108776
      6          6           0        4.935885    1.540271    0.118421
      7          1           0        7.035499    1.061644   -0.018884
      8          1           0        6.643747   -1.378423   -0.298241
      9          1           0        4.302877   -2.272874   -0.317347
     10          1           0        2.767949    1.699125    0.219760
     11          1           0        5.103813    2.606533    0.240618
     12          7           0        2.059237   -0.855618   -0.061408
     13          8           0        1.140929   -0.049443    0.070608
     14          8           0        1.921267   -2.068758   -0.202450
     15          6           0       -4.959924   -1.930866    0.005518
     16          6           0       -5.556537   -0.751073   -0.451278
     17          6           0       -4.850077    0.455207   -0.432570
     18          6           0       -3.542927    0.445323    0.051736
     19          6           0       -2.920975   -0.713582    0.513694
     20          6           0       -3.646364   -1.908395    0.485700
     21          1           0       -5.516071   -2.863479   -0.012621
     22          1           0       -6.576519   -0.765540   -0.824739
     23          1           0       -5.287660    1.383168   -0.780173
     24          1           0       -1.902663   -0.667709    0.880237
     25          1           0       -3.180480   -2.823106    0.841087
     26          7           0       -2.785011    1.716288    0.076457
     27          8           0       -1.634714    1.681026    0.507977
     28          8           0       -3.355604    2.723666   -0.336155
 ---------------------------------------------------------------------

 SCF Done:  E(RHF) =  -868.338754950     A.U. after   16 cycles
 E2 =    -0.2599583570D+01 EUMP2 =    -0.87093833852036D+03

 The electronic state is 1-A.
 Alpha  occ. eigenvalues --  -20.60645 -20.60536 -20.59684 -20.59594 -15.85595
 Alpha  occ. eigenvalues --  -15.84683 -11.30915 -11.30046 -11.27528 -11.27410
 Alpha  occ. eigenvalues --  -11.27248 -11.26733 -11.26527 -11.26478 -11.26469
 Alpha  occ. eigenvalues --  -11.26458 -11.25759 -11.25610  -1.59668  -1.58725
 Alpha  occ. eigenvalues --   -1.39209  -1.38265  -1.19094  -1.18252  -1.08510
 Alpha  occ. eigenvalues --   -1.07669  -1.04482  -1.03644  -0.95345  -0.94486
 Alpha  occ. eigenvalues --   -0.85884  -0.85048  -0.82167  -0.81302  -0.77215
 Alpha  occ. eigenvalues --   -0.76324  -0.71834  -0.70980  -0.70871  -0.70200
 Alpha  occ. eigenvalues --   -0.70041  -0.69369  -0.64742  -0.64489  -0.63903
 Alpha  occ. eigenvalues --   -0.63660  -0.61817  -0.60960  -0.55007  -0.54201
 Alpha  occ. eigenvalues --   -0.52827  -0.52570  -0.52002  -0.51735  -0.48634
 Alpha  occ. eigenvalues --   -0.48585  -0.47701  -0.47619  -0.44623  -0.43661
 Alpha  occ. eigenvalues --   -0.37089  -0.36282  -0.36085  -0.35250
 Alpha virt. eigenvalues --    0.05296   0.06179   0.11568   0.12397   0.16788
 Alpha virt. eigenvalues --    0.17636   0.21703   0.22501   0.27635   0.28408
 Alpha virt. eigenvalues --    0.28619   0.29465   0.31257   0.31981   0.32917

 Mulliken charges:
               1
     1  C   -0.170683
     2  C   -0.219012
     3  C   -0.171312
     4  C    0.156569
     5  C   -0.171576
     6  C   -0.219185
     7  H    0.224909
     8  H    0.222002
     9  H    0.273526
    10  H    0.284788
    11  H    0.224782
    12  N    0.488812
    13  O   -0.452420
    14  O   -0.468803
    15  C   -0.171243
    16  C   -0.219885
    17  C   -0.172078
    18  C    0.154768
    19  C   -0.171043
    20  C   -0.220559
    21  H    0.221736
    22  H    0.218912
    23  H    0.271804
    24  H    0.294112
    25  H    0.224498
    26  N    0.487246
    27  O   -0.451346
    28  O   -0.469319
 Sum of Mulliken charges =  -0.00000

 Dipole moment (field-independent basis, Debye):
    X=              2.5235    Y=             -2.5037    Z=              0.0462  Tot=              3.5551
 Quadrupole moment (field-independent basis, Debye-Ang):
   XX=            -51.8227   YY=           -105.6762   ZZ=           -105.6965
   XY=             16.4494   XZ=              1.4349   YZ=             -0.7537

 Normal termination of Gaussian 16 at Fri May  7 01:51:36 2021.
