 Gaussian 16, Revision A.03,
 Gaussian 16:  EM64L-G16RevA.03 25-Dec-2016

 -------------
 #p 6-31g* mp2
 -------------

 ------------------------------------------------------
 Input file generated by CHIRIPA (05-May-2021 14:55:23)
 ------------------------------------------------------
 Symbolic Z-matrix:
 Charge =  0 Multiplicity = 1

                         Standard orientation:
 ---------------------------------------------------------------------
 Center     Atomic      Atomic             Coordinates (Angstroms)
 Number     Number       Type             X           Y           Z
 ---------------------------------------------------------------------
      1          6           0       -2.681555    0.606410   -2.047963
      2          6           0       -1.959393   -0.591507   -2.047945
      3          6           0       -1.505880   -1.147138   -0.847883
      4          6           0       -1.793694   -0.475200    0.339109
      5          6           0       -2.510839    0.719757    0.371819
      6          6           0       -2.954492    1.257071   -0.840210
      7          1           0       -3.030025    1.030923   -2.984847
      8          1           0       -1.745958   -1.099008   -2.984391
      9          1           0       -0.944722   -2.073251   -0.818992
     10          1           0       -2.708125    1.202594    1.321221
     11          1           0       -3.515114    2.187522   -0.837197
     12          7           0       -1.318800   -1.053727    1.615895
     13          8           0       -1.585431   -0.442274    2.648209
     14          8           0       -0.688938   -2.107673    1.560151
     15          6           0        2.877171   -0.105829   -0.125928
     16          6           0        2.344952   -1.365411   -0.810165
     17          6           0        3.318599   -2.541168   -0.724130
     18          1           0        3.835360    0.175469   -0.583846
     19          1           0        3.088893   -0.331372    0.928444
     20          1           0        2.132992   -1.137191   -1.862594
     21          1           0        1.387824   -1.643634   -0.350694
     22          1           0        3.522163   -2.797113    0.320693
     23          1           0        4.271564   -2.287792   -1.199797
     24          1           0        2.918149   -3.431114   -1.219605
     25          6           0        1.915054    1.078250   -0.203492
     26          6           0        2.447273    2.337833    0.480745
     27          6           0        1.473626    3.513588    0.394709
     28          1           0        1.703332    1.303793   -1.257864
     29          1           0        0.956864    0.796951    0.254426
     30          1           0        3.404401    2.616054    0.021273
     31          1           0        2.659233    2.109612    1.533174
     32          1           0        0.520660    3.260213    0.870377
     33          1           0        1.270062    3.769534   -0.650113
     34          1           0        1.874075    4.403534    0.890185
 ---------------------------------------------------------------------

 SCF Done:  E(RHF) =  -669.535038584     A.U. after   15 cycles
 E2 =    -0.2095117255D+01 EUMP2 =    -0.67163015583922D+03

 The electronic state is 1-A.
 Alpha  occ. eigenvalues --  -20.60978 -20.60969 -15.85990 -11.31243 -11.27834
 Alpha  occ. eigenvalues --  -11.27802 -11.27556 -11.26823 -11.26807 -11.21431
 Alpha  occ. eigenvalues --  -11.21289 -11.21197 -11.21070 -11.21033 -11.20748
 Alpha  occ. eigenvalues --   -1.60035  -1.39592  -1.19437  -1.08852  -1.08203
 Alpha  occ. eigenvalues --   -1.04821  -1.03316  -0.95776  -0.95696  -0.86795
 Alpha  occ. eigenvalues --   -0.86232  -0.82530  -0.79417  -0.78085  -0.77556
 Alpha  occ. eigenvalues --   -0.72218  -0.71364  -0.70551  -0.65103  -0.64895
 Alpha  occ. eigenvalues --   -0.64743  -0.62200  -0.60683  -0.59150  -0.57402
 Alpha  occ. eigenvalues --   -0.55335  -0.55059  -0.53206  -0.52927  -0.52457
 Alpha  occ. eigenvalues --   -0.52202  -0.49720  -0.49002  -0.48969  -0.47724
 Alpha  occ. eigenvalues --   -0.46442  -0.45628  -0.45509  -0.44801  -0.43570
 Alpha  occ. eigenvalues --   -0.37358  -0.36379
 Alpha virt. eigenvalues --    0.04891   0.11144   0.16386   0.21172   0.23038
 Alpha virt. eigenvalues --    0.24366   0.26314   0.26953   0.27619   0.27787
 Alpha virt. eigenvalues --    0.28856   0.30547   0.31335   0.31836   0.32190

 Mulliken charges:
               1
     1  C   -0.170368
     2  C   -0.218434
     3  C   -0.168588
     4  C    0.158040
     5  C   -0.172650
     6  C   -0.217147
     7  H    0.225938
     8  H    0.224005
     9  H    0.276674
    10  H    0.275567
    11  H    0.223942
    12  N    0.490212
    13  O   -0.459119
    14  O   -0.460604
    15  C   -0.297923
    16  C   -0.310792
    17  C   -0.474203
    18  H    0.147455
    19  H    0.156167
    20  H    0.142607
    21  H    0.164514
    22  H    0.161817
    23  H    0.152527
    24  H    0.156523
    25  C   -0.299140
    26  C   -0.299717
    27  C   -0.474966
    28  H    0.145471
    29  H    0.149166
    30  H    0.150920
    31  H    0.156344
    32  H    0.153837
    33  H    0.151653
    34  H    0.160274
 Sum of Mulliken charges =  -0.00000

 Dipole moment (field-independent basis, Debye):
    X=             -1.7662    Y=              1.9859    Z=             -4.3760  Tot=              5.1199
 Quadrupole moment (field-independent basis, Debye-Ang):
   XX=            -88.7108   YY=            -95.0986   ZZ=            -96.2951
   XY=             -4.1341   XZ=              6.5678   YZ=              4.6126

 Normal termination of Gaussian 16 at Thu May  6 03:08:49 2021.
