 Gaussian 16, Revision A.03,
 Gaussian 16:  EM64L-G16RevA.03 25-Dec-2016

 -------------
 #p 6-31g* mp2
 -------------

 ------------------------------------------------------
 Input file generated by CHIRIPA (05-May-2021 14:53:12)
 ------------------------------------------------------
 Symbolic Z-matrix:
 Charge =  0 Multiplicity = 1

                         Standard orientation:
 ---------------------------------------------------------------------
 Center     Atomic      Atomic             Coordinates (Angstroms)
 Number     Number       Type             X           Y           Z
 ---------------------------------------------------------------------
      1          6           0        3.493681    0.905711    0.187353
      2          6           0        2.699783    1.773579   -0.789640
      3          6           0        2.114591    3.022570   -0.129817
      4          1           0        2.840430    0.610458    1.019840
      5          1           0        4.304635    1.505096    0.623800
      6          1           0        1.891416    1.172341   -1.225153
      7          1           0        3.354948    2.066642   -1.619995
      8          1           0        2.911060    3.645901    0.289345
      9          1           0        1.439213    2.746518    0.686431
     10          1           0        1.551082    3.628467   -0.846201
     11          6           0        4.084969   -0.346622   -0.457448
     12          6           0        4.878866   -1.214491    0.519546
     13          6           0        5.464059   -2.463481   -0.140278
     14          1           0        3.274015   -0.946007   -0.893895
     15          1           0        4.738220   -0.051369   -1.289934
     16          1           0        4.223702   -1.507554    1.349901
     17          1           0        5.687234   -0.613252    0.955058
     18          1           0        6.139437   -2.187430   -0.956526
     19          1           0        4.667590   -3.086812   -0.559440
     20          1           0        6.027568   -3.069378    0.576106
     21          6           0       -0.554147    0.059076    0.811788
     22          6           0       -0.867469   -0.167062   -0.532538
     23          6           0       -2.197234   -0.322282   -0.935258
     24          6           0       -3.193039   -0.245219    0.037224
     25          6           0       -2.912792   -0.021012    1.384252
     26          6           0       -1.576007    0.131252    1.764214
     27          1           0        0.481572    0.178506    1.115791
     28          1           0       -0.075942   -0.223592   -1.274383
     29          1           0       -2.467965   -0.498321   -1.969246
     30          1           0       -3.723557    0.030318    2.100802
     31          1           0       -1.335630    0.306772    2.808941
     32          7           0       -4.604517   -0.407978   -0.377070
     33          8           0       -5.463475   -0.335846    0.499072
     34          8           0       -4.825147   -0.604600   -1.570090
 ---------------------------------------------------------------------

 SCF Done:  E(RHF) =  -669.534690618     A.U. after   15 cycles
 E2 =    -0.2093106712D+01 EUMP2 =    -0.67162779732999D+03

 The electronic state is 1-A.
 Alpha  occ. eigenvalues --  -20.60756 -20.60751 -15.85809 -11.31181 -11.27750
 Alpha  occ. eigenvalues --  -11.27745 -11.27465 -11.26764 -11.26748 -11.22798
 Alpha  occ. eigenvalues --  -11.22641 -11.22487 -11.22419 -11.22044 -11.21772
 Alpha  occ. eigenvalues --   -1.59831  -1.39385  -1.19353  -1.09541  -1.08744
 Alpha  occ. eigenvalues --   -1.04762  -1.04512  -0.96944  -0.95583  -0.87956
 Alpha  occ. eigenvalues --   -0.86162  -0.82421  -0.80592  -0.79346  -0.77462
 Alpha  occ. eigenvalues --   -0.72029  -0.71154  -0.70533  -0.66241  -0.65000
 Alpha  occ. eigenvalues --   -0.64736  -0.62199  -0.61803  -0.60314  -0.58553
 Alpha  occ. eigenvalues --   -0.56261  -0.55265  -0.53594  -0.53361  -0.53065
 Alpha  occ. eigenvalues --   -0.52866  -0.50895  -0.48887  -0.48795  -0.48781
 Alpha  occ. eigenvalues --   -0.47629  -0.46852  -0.46795  -0.44792  -0.44789
 Alpha  occ. eigenvalues --   -0.37318  -0.36357
 Alpha virt. eigenvalues --    0.05050   0.11225   0.16455   0.18196   0.22915
 Alpha virt. eigenvalues --    0.23666   0.24149   0.25233   0.27006   0.28350
 Alpha virt. eigenvalues --    0.29766   0.30025   0.30976   0.31525   0.31735

 Mulliken charges:
               1
     1  C   -0.303053
     2  C   -0.305797
     3  C   -0.475628
     4  H    0.141192
     5  H    0.156525
     6  H    0.145785
     7  H    0.158737
     8  H    0.158841
     9  H    0.151632
    10  H    0.165768
    11  C   -0.298379
    12  C   -0.299958
    13  C   -0.476385
    14  H    0.145098
    15  H    0.154319
    16  H    0.150362
    17  H    0.154523
    18  H    0.157042
    19  H    0.155921
    20  H    0.163033
    21  C   -0.175526
    22  C   -0.224788
    23  C   -0.171001
    24  C    0.158582
    25  C   -0.170511
    26  C   -0.221481
    27  H    0.235698
    28  H    0.227004
    29  H    0.275806
    30  H    0.275600
    31  H    0.223914
    32  N    0.487910
    33  O   -0.460392
    34  O   -0.460393
 Sum of Mulliken charges =  -0.00000

 Dipole moment (field-independent basis, Debye):
    X=              5.2034    Y=              0.6360    Z=              1.4180  Tot=              5.4305
 Quadrupole moment (field-independent basis, Debye-Ang):
   XX=           -125.0525   YY=            -95.9619   ZZ=            -90.2505
   XY=             -2.2594   XZ=             -6.2914   YZ=             -0.1819

 Normal termination of Gaussian 16 at Thu May  6 00:56:38 2021.
