 Gaussian 16, Revision A.03,
 Gaussian 16:  EM64L-G16RevA.03 25-Dec-2016

 -------------
 #p 6-31g* mp2
 -------------

 ------------------------------------------------------
 Input file generated by CHIRIPA (05-May-2021 14:53:14)
 ------------------------------------------------------
 Symbolic Z-matrix:
 Charge =  0 Multiplicity = 1

                         Standard orientation:
 ---------------------------------------------------------------------
 Center     Atomic      Atomic             Coordinates (Angstroms)
 Number     Number       Type             X           Y           Z
 ---------------------------------------------------------------------
      1          6           0        3.317747   -0.463673   -0.221198
      2          6           0        2.552438   -1.747043    0.103222
      3          6           0        1.117802   -1.729442   -0.425269
      4          1           0        2.779279    0.394266    0.204171
      5          1           0        3.328920   -0.317018   -1.310125
      6          1           0        2.543901   -1.891962    1.191129
      7          1           0        3.092892   -2.602044   -0.322804
      8          1           0        1.109563   -1.609331   -1.513435
      9          1           0        0.557453   -0.895215    0.009100
     10          1           0        0.589039   -2.656379   -0.182249
     11          6           0        4.753515   -0.466168    0.300618
     12          6           0        5.518824    0.817202   -0.023802
     13          6           0        6.953461    0.799602    0.504689
     14          1           0        4.742342   -0.612823    1.389545
     15          1           0        5.291983   -1.324106   -0.124750
     16          1           0        4.978371    1.672204    0.402224
     17          1           0        5.527361    0.962122   -1.111709
     18          1           0        7.513809   -0.034625    0.070321
     19          1           0        6.961700    0.679491    1.592856
     20          1           0        7.482223    1.726538    0.261669
     21          6           0       -4.687706   -1.597940    0.373886
     22          6           0       -3.453368   -1.793141   -0.254465
     23          6           0       -2.594908   -0.713818   -0.483933
     24          6           0       -3.004451    0.552817   -0.070168
     25          6           0       -4.227943    0.779439    0.558322
     26          6           0       -5.070379   -0.314537    0.777564
     27          1           0       -5.348355   -2.442076    0.548171
     28          1           0       -3.153563   -2.788736   -0.569037
     29          1           0       -1.633757   -0.836577   -0.968224
     30          1           0       -4.499246    1.783643    0.860625
     31          1           0       -6.028399   -0.159968    1.265777
     32          7           0       -2.104120    1.703203   -0.307683
     33          8           0       -2.488194    2.809193    0.066365
     34          8           0       -1.031414    1.477105   -0.863398
 ---------------------------------------------------------------------

 SCF Done:  E(RHF) =  -669.535589355     A.U. after   15 cycles
 E2 =    -0.2091842786D+01 EUMP2 =    -0.67162743214037D+03

 The electronic state is 1-A.
 Alpha  occ. eigenvalues --  -20.60825 -20.60816 -15.85855 -11.31150 -11.27738
 Alpha  occ. eigenvalues --  -11.27651 -11.27475 -11.26741 -11.26712 -11.21418
 Alpha  occ. eigenvalues --  -11.21183 -11.21010 -11.21008 -11.20898 -11.20730
 Alpha  occ. eigenvalues --   -1.59889  -1.39445  -1.19330  -1.08743  -1.08073
 Alpha  occ. eigenvalues --   -1.04722  -1.03253  -0.95745  -0.95562  -0.86777
 Alpha  occ. eigenvalues --   -0.86113  -0.82415  -0.79346  -0.77866  -0.77444
 Alpha  occ. eigenvalues --   -0.72077  -0.71206  -0.70444  -0.64985  -0.64764
 Alpha  occ. eigenvalues --   -0.64672  -0.62092  -0.60639  -0.59092  -0.57309
 Alpha  occ. eigenvalues --   -0.55262  -0.54979  -0.53070  -0.52918  -0.52415
 Alpha  occ. eigenvalues --   -0.52056  -0.49657  -0.48837  -0.48828  -0.47607
 Alpha  occ. eigenvalues --   -0.46331  -0.45411  -0.45320  -0.44806  -0.43500
 Alpha  occ. eigenvalues --   -0.37321  -0.36313
 Alpha virt. eigenvalues --    0.05023   0.11279   0.16521   0.21208   0.23241
 Alpha virt. eigenvalues --    0.24559   0.26226   0.27078   0.27678   0.28099
 Alpha virt. eigenvalues --    0.29236   0.30448   0.31631   0.31758   0.32384

 Mulliken charges:
               1
     1  C   -0.299573
     2  C   -0.299141
     3  C   -0.487826
     4  H    0.159212
     5  H    0.151131
     6  H    0.151055
     7  H    0.149847
     8  H    0.156186
     9  H    0.169031
    10  H    0.149935
    11  C   -0.298503
    12  C   -0.299818
    13  C   -0.475585
    14  H    0.148212
    15  H    0.147387
    16  H    0.155006
    17  H    0.152524
    18  H    0.153782
    19  H    0.154383
    20  H    0.160193
    21  C   -0.170413
    22  C   -0.222029
    23  C   -0.175966
    24  C    0.156093
    25  C   -0.170464
    26  C   -0.219034
    27  H    0.225424
    28  H    0.223722
    29  H    0.290034
    30  H    0.275264
    31  H    0.223209
    32  N    0.487920
    33  O   -0.459806
    34  O   -0.461392
 Sum of Mulliken charges =  -0.00000

 Dipole moment (field-independent basis, Debye):
    X=             -3.1789    Y=             -3.9117    Z=              0.8251  Tot=              5.1076
 Quadrupole moment (field-independent basis, Debye-Ang):
   XX=            -75.1291   YY=            -98.0169   ZZ=            -94.0544
   XY=              8.2889   XZ=             -4.7001   YZ=              2.5647

 Normal termination of Gaussian 16 at Thu May  6 20:21:18 2021.
