 Gaussian 16, Revision A.03,
 Gaussian 16:  EM64L-G16RevA.03 25-Dec-2016

 -------------
 #p 6-31g* mp2
 -------------

 ------------------------------------------------------
 Input file generated by CHIRIPA (05-May-2021 14:57:26)
 ------------------------------------------------------
 Symbolic Z-matrix:
 Charge =  0 Multiplicity = 1

                         Standard orientation:
 ---------------------------------------------------------------------
 Center     Atomic      Atomic             Coordinates (Angstroms)
 Number     Number       Type             X           Y           Z
 ---------------------------------------------------------------------
      1          6           0       -1.338977   -1.154734   -0.493053
      2          6           0       -2.522075   -1.824035   -0.822958
      3          6           0       -3.760845   -1.195003   -0.667026
      4          6           0       -3.779727    0.109682   -0.176382
      5          6           0       -2.618369    0.802951    0.161133
      6          6           0       -1.390809    0.154315   -0.002925
      7          1           0       -0.381024   -1.650995   -0.617341
      8          1           0       -2.484851   -2.840700   -1.203812
      9          1           0       -4.692106   -1.689834   -0.914641
     10          1           0       -2.687402    1.815978    0.538530
     11          1           0       -0.473608    0.676547    0.254099
     12          7           0       -5.085224    0.785987   -0.007002
     13          8           0       -5.074905    1.935784    0.427161
     14          8           0       -6.094072    0.153472   -0.311613
     15          6           0        5.084973    1.231657   -1.389970
     16          6           0        4.547790    1.895638   -0.282232
     17          6           0        3.704211    1.224143    0.607722
     18          6           0        3.417578   -0.117118    0.358426
     19          6           0        3.937224   -0.806172   -0.736318
     20          6           0        4.778515   -0.114756   -1.613085
     21          1           0        5.739396    1.761027   -2.076186
     22          1           0        4.784059    2.941261   -0.106462
     23          1           0        3.274611    1.713900    1.473169
     24          1           0        3.683477   -1.848697   -0.885220
     25          1           0        5.194260   -0.632957   -2.472543
     26          7           0        2.525730   -0.838545    1.293600
     27          8           0        2.288589   -2.020032    1.051753
     28          8           0        2.080726   -0.208852    2.250729
 ---------------------------------------------------------------------

 SCF Done:  E(RHF) =  -868.339421052     A.U. after   16 cycles
 E2 =    -0.2599327721D+01 EUMP2 =    -0.87093874877238D+03

 The electronic state is 1-A.
 Alpha  occ. eigenvalues --  -20.62051 -20.62016 -20.60248 -20.60243 -15.87040
 Alpha  occ. eigenvalues --  -15.85298 -11.32187 -11.30522 -11.28721 -11.28702
 Alpha  occ. eigenvalues --  -11.28369 -11.27654 -11.27637 -11.27097 -11.27085
 Alpha  occ. eigenvalues --  -11.26699 -11.26048 -11.26023  -1.61099  -1.59327
 Alpha  occ. eigenvalues --   -1.40655  -1.38885  -1.20326  -1.18676  -1.09756
 Alpha  occ. eigenvalues --   -1.08077  -1.05682  -1.04069  -0.96626  -0.94940
 Alpha  occ. eigenvalues --   -0.87090  -0.85467  -0.83456  -0.81786  -0.78546
 Alpha  occ. eigenvalues --   -0.76873  -0.73244  -0.72447  -0.71519  -0.71405
 Alpha  occ. eigenvalues --   -0.70648  -0.69722  -0.65967  -0.65662  -0.64325
 Alpha  occ. eigenvalues --   -0.64068  -0.63028  -0.61434  -0.56163  -0.54507
 Alpha  occ. eigenvalues --   -0.54032  -0.53757  -0.52389  -0.52163  -0.50031
 Alpha  occ. eigenvalues --   -0.49985  -0.48283  -0.48267  -0.46070  -0.44323
 Alpha  occ. eigenvalues --   -0.38285  -0.37277  -0.36604  -0.35675
 Alpha virt. eigenvalues --    0.03931   0.05676   0.10355   0.11990   0.15444
 Alpha virt. eigenvalues --    0.17219   0.20554   0.22006   0.26498   0.27213
 Alpha virt. eigenvalues --    0.27811   0.28856   0.30471   0.30912   0.32545

 Mulliken charges:
               1
     1  C   -0.170298
     2  C   -0.219563
     3  C   -0.171608
     4  C    0.157590
     5  C   -0.171719
     6  C   -0.216098
     7  H    0.232753
     8  H    0.222115
     9  H    0.273334
    10  H    0.273210
    11  H    0.221453
    12  N    0.488271
    13  O   -0.462348
    14  O   -0.462266
    15  C   -0.169635
    16  C   -0.217933
    17  C   -0.173117
    18  C    0.154427
    19  C   -0.172574
    20  C   -0.217880
    21  H    0.229418
    22  H    0.227148
    23  H    0.276854
    24  H    0.274864
    25  H    0.226427
    26  N    0.485442
    27  O   -0.462230
    28  O   -0.456033
 Sum of Mulliken charges =  -0.00000

 Dipole moment (field-independent basis, Debye):
    X=              8.2043    Y=              0.1891    Z=             -3.8831  Tot=              9.0788
 Quadrupole moment (field-independent basis, Debye-Ang):
   XX=           -117.8099   YY=            -99.4384   ZZ=           -105.9418
   XY=             20.2724   XZ=             -8.6710   YZ=              5.8407

 Normal termination of Gaussian 16 at Wed May  5 16:29:03 2021.
