 Gaussian 16, Revision A.03,
 Gaussian 16:  EM64L-G16RevA.03 25-Dec-2016

 -------------
 #p 6-31g* mp2
 -------------

 ------------------------------------------------------
 Input file generated by CHIRIPA (05-May-2021 14:57:21)
 ------------------------------------------------------
 Symbolic Z-matrix:
 Charge =  0 Multiplicity = 1

                         Standard orientation:
 ---------------------------------------------------------------------
 Center     Atomic      Atomic             Coordinates (Angstroms)
 Number     Number       Type             X           Y           Z
 ---------------------------------------------------------------------
      1          6           0        3.970089    1.272668   -1.870036
      2          6           0        4.796200    0.275587   -1.340989
      3          6           0        4.381034   -0.480736   -0.240916
      4          6           0        3.127988   -0.212101    0.307719
      5          6           0        2.282145    0.774503   -0.196713
      6          6           0        2.717905    1.518510   -1.297219
      7          1           0        4.300599    1.855414   -2.724767
      8          1           0        5.769168    0.082471   -1.783804
      9          1           0        5.000493   -1.258653    0.188658
     10          1           0        1.317568    0.943917    0.266222
     11          1           0        2.074230    2.292226   -1.705987
     12          7           0        2.677569   -1.006268    1.472546
     13          8           0        1.569138   -0.750103    1.937730
     14          8           0        3.441491   -1.869863    1.898298
     15          6           0       -3.740331   -2.044976   -1.363011
     16          6           0       -2.426647   -1.565684   -1.330791
     17          6           0       -2.116952   -0.388692   -0.642807
     18          6           0       -3.150200    0.286765    0.004840
     19          6           0       -4.468810   -0.165306   -0.008947
     20          6           0       -4.755429   -1.344491   -0.703149
     21          1           0       -3.971946   -2.960144   -1.899870
     22          1           0       -1.636285   -2.107613   -1.842342
     23          1           0       -1.108550    0.004824   -0.601701
     24          1           0       -5.235359    0.396798    0.510535
     25          1           0       -5.776555   -1.714361   -0.726479
     26          7           0       -2.834554    1.533956    0.736470
     27          8           0       -3.762850    2.110560    1.298993
     28          8           0       -1.664832    1.911285    0.733546
 ---------------------------------------------------------------------

 SCF Done:  E(RHF) =  -868.338871829     A.U. after   16 cycles
 E2 =    -0.2599707214D+01 EUMP2 =    -0.87093857904283D+03

 The electronic state is 1-A.
 Alpha  occ. eigenvalues --  -20.60870 -20.60853 -20.60667 -20.60654 -15.85905
 Alpha  occ. eigenvalues --  -15.85711 -11.31134 -11.31080 -11.27729 -11.27685
 Alpha  occ. eigenvalues --  -11.27672 -11.27546 -11.27416 -11.27395 -11.26697
 Alpha  occ. eigenvalues --  -11.26687 -11.26677 -11.26617  -1.59914  -1.59744
 Alpha  occ. eigenvalues --   -1.39480  -1.39293  -1.19296  -1.19254  -1.08714
 Alpha  occ. eigenvalues --   -1.08654  -1.04691  -1.04639  -0.95579  -0.95479
 Alpha  occ. eigenvalues --   -0.86104  -0.86034  -0.82423  -0.82298  -0.77521
 Alpha  occ. eigenvalues --   -0.77312  -0.72147  -0.71919  -0.71212  -0.71077
 Alpha  occ. eigenvalues --   -0.70440  -0.70327  -0.64965  -0.64895  -0.64737
 Alpha  occ. eigenvalues --   -0.64594  -0.62139  -0.61870  -0.55213  -0.55139
 Alpha  occ. eigenvalues --   -0.53008  -0.53006  -0.52833  -0.52656  -0.48895
 Alpha  occ. eigenvalues --   -0.48858  -0.48694  -0.48675  -0.44907  -0.44697
 Alpha  occ. eigenvalues --   -0.37262  -0.37255  -0.36272  -0.36260
 Alpha virt. eigenvalues --    0.05057   0.05128   0.11309   0.11387   0.16577
 Alpha virt. eigenvalues --    0.16646   0.20524   0.22019   0.25620   0.27693
 Alpha virt. eigenvalues --    0.27972   0.29358   0.30708   0.31406   0.31816

 Mulliken charges:
               1
     1  C   -0.171267
     2  C   -0.218822
     3  C   -0.171517
     4  C    0.157731
     5  C   -0.188031
     6  C   -0.221815
     7  H    0.225335
     8  H    0.222751
     9  H    0.274767
    10  H    0.295165
    11  H    0.228015
    12  N    0.486744
    13  O   -0.457824
    14  O   -0.461921
    15  C   -0.169971
    16  C   -0.219276
    17  C   -0.164669
    18  C    0.158306
    19  C   -0.170037
    20  C   -0.218611
    21  H    0.225853
    22  H    0.224014
    23  H    0.271754
    24  H    0.275582
    25  H    0.223528
    26  N    0.492211
    27  O   -0.457798
    28  O   -0.470194
 Sum of Mulliken charges =  -0.00000

 Dipole moment (field-independent basis, Debye):
    X=              0.3282    Y=             -1.5754    Z=             -6.6274  Tot=              6.8200
 Quadrupole moment (field-independent basis, Debye-Ang):
   XX=            -79.5626   YY=           -108.3276   ZZ=           -108.5117
   XY=             19.4838   XZ=             -5.9364   YZ=              1.2487

 Normal termination of Gaussian 16 at Wed May  5 20:55:59 2021.
