 Gaussian 16, Revision A.03,
 Gaussian 16:  EM64L-G16RevA.03 25-Dec-2016

 -------------
 #p 6-31g* mp2
 -------------

 ------------------------------------------------------
 Input file generated by CHIRIPA (05-May-2021 14:57:27)
 ------------------------------------------------------
 Symbolic Z-matrix:
 Charge =  0 Multiplicity = 1

                         Standard orientation:
 ---------------------------------------------------------------------
 Center     Atomic      Atomic             Coordinates (Angstroms)
 Number     Number       Type             X           Y           Z
 ---------------------------------------------------------------------
      1          6           0        1.679320    1.944519   -0.490578
      2          6           0        1.435666    0.569067   -0.417885
      3          6           0        2.476676   -0.322882   -0.143526
      4          6           0        3.754822    0.197431    0.053724
      5          6           0        4.029345    1.562560   -0.012227
      6          6           0        2.973101    2.436010   -0.287875
      7          1           0        0.864721    2.630221   -0.704208
      8          1           0        0.431905    0.184536   -0.574872
      9          1           0        2.316077   -1.392360   -0.081536
     10          1           0        5.040548    1.916029    0.148854
     11          1           0        3.165263    3.503717   -0.343730
     12          7           0        4.864957   -0.737043    0.344858
     13          8           0        5.982052   -0.253444    0.514760
     14          8           0        4.596964   -1.935388    0.397633
     15          6           0       -5.286657    1.314415    0.800670
     16          6           0       -4.978174    1.230958   -0.561091
     17          6           0       -4.029687    0.311683   -1.019189
     18          6           0       -3.406078   -0.512493   -0.083703
     19          6           0       -3.691834   -0.453256    1.279428
     20          6           0       -4.643635    0.473525    1.714972
     21          1           0       -6.024752    2.031446    1.147772
     22          1           0       -5.475976    1.882745   -1.273420
     23          1           0       -3.771818    0.225972   -2.067795
     24          1           0       -3.178985   -1.116267    1.965591
     25          1           0       -4.881210    0.536128    2.773123
     26          7           0       -2.400203   -1.489661   -0.556732
     27          8           0       -1.864828   -2.204552    0.287629
     28          8           0       -2.166217   -1.522174   -1.762895
 ---------------------------------------------------------------------

 SCF Done:  E(RHF) =  -868.338553590     A.U. after   16 cycles
 E2 =    -0.2598976703D+01 EUMP2 =    -0.87093753029336D+03

 The electronic state is 1-A.
 Alpha  occ. eigenvalues --  -20.61745 -20.61739 -20.60213 -20.60193 -15.86779
 Alpha  occ. eigenvalues --  -15.85255 -11.31994 -11.30578 -11.28548 -11.28518
 Alpha  occ. eigenvalues --  -11.28232 -11.27508 -11.27481 -11.27198 -11.27043
 Alpha  occ. eigenvalues --  -11.26941 -11.26241 -11.26084  -1.60841  -1.59282
 Alpha  occ. eigenvalues --   -1.40384  -1.38835  -1.20151  -1.18757  -1.09574
 Alpha  occ. eigenvalues --   -1.08178  -1.05517  -1.04135  -0.96428  -0.95012
 Alpha  occ. eigenvalues --   -0.86920  -0.85552  -0.83250  -0.81828  -0.78326
 Alpha  occ. eigenvalues --   -0.76869  -0.72973  -0.72192  -0.71476  -0.71234
 Alpha  occ. eigenvalues --   -0.70605  -0.69891  -0.65790  -0.65502  -0.64409
 Alpha  occ. eigenvalues --   -0.64137  -0.62856  -0.61463  -0.56009  -0.54699
 Alpha  occ. eigenvalues --   -0.53872  -0.53593  -0.52496  -0.52220  -0.49753
 Alpha  occ. eigenvalues --   -0.49734  -0.48239  -0.48224  -0.45808  -0.44249
 Alpha  occ. eigenvalues --   -0.38128  -0.37118  -0.36778  -0.35734
 Alpha virt. eigenvalues --    0.04163   0.05642   0.10537   0.11904   0.15684
 Alpha virt. eigenvalues --    0.17130   0.20742   0.21889   0.26684   0.27289
 Alpha virt. eigenvalues --    0.27838   0.28879   0.30302   0.31309   0.31854

 Mulliken charges:
               1
     1  C   -0.172038
     2  C   -0.218925
     3  C   -0.171378
     4  C    0.157822
     5  C   -0.172092
     6  C   -0.218933
     7  H    0.221260
     8  H    0.228758
     9  H    0.283829
    10  H    0.273465
    11  H    0.220060
    12  N    0.487916
    13  O   -0.463314
    14  O   -0.458327
    15  C   -0.170244
    16  C   -0.218990
    17  C   -0.173095
    18  C    0.153682
    19  C   -0.170986
    20  C   -0.218633
    21  H    0.228224
    22  H    0.225409
    23  H    0.276191
    24  H    0.277971
    25  H    0.226480
    26  N    0.484469
    27  O   -0.458189
    28  O   -0.460393
 Sum of Mulliken charges =  -0.00000

 Dipole moment (field-independent basis, Debye):
    X=             -7.7797    Y=              6.5990    Z=              0.7012  Tot=             10.2256
 Quadrupole moment (field-independent basis, Debye-Ang):
   XX=           -108.7072   YY=           -104.6140   ZZ=           -101.5618
   XY=              3.4834   XZ=             -8.9165   YZ=             -2.6156

 Normal termination of Gaussian 16 at Thu May  6 14:50:23 2021.
