 Gaussian 16, Revision A.03,
 Gaussian 16:  EM64L-G16RevA.03 25-Dec-2016

 -------------
 #p 6-31g* mp2
 -------------

 ------------------------------------------------------
 Input file generated by CHIRIPA (05-May-2021 14:55:22)
 ------------------------------------------------------
 Symbolic Z-matrix:
 Charge =  0 Multiplicity = 1

                         Standard orientation:
 ---------------------------------------------------------------------
 Center     Atomic      Atomic             Coordinates (Angstroms)
 Number     Number       Type             X           Y           Z
 ---------------------------------------------------------------------
      1          6           0        4.095119    0.467557    1.368944
      2          6           0        3.091136   -0.306833    1.959588
      3          6           0        2.091949   -0.891624    1.175884
      4          6           0        2.127400   -0.680403   -0.201585
      5          6           0        3.114353    0.085921   -0.819614
      6          6           0        4.103508    0.661121   -0.016330
      7          1           0        4.867414    0.918112    1.985349
      8          1           0        3.082115   -0.458856    3.035159
      9          1           0        1.302929   -1.495736    1.607061
     10          1           0        3.096943    0.219565   -1.894442
     11          1           0        4.881980    1.262040   -0.477766
     12          7           0        1.074916   -1.294419   -1.041622
     13          8           0        1.128439   -1.093219   -2.252940
     14          8           0        0.216385   -1.965257   -0.472819
     15          6           0       -3.422577    0.185619   -0.135002
     16          6           0       -4.336546   -0.299661    0.990675
     17          6           0       -5.285978   -1.411576    0.543440
     18          1           0       -4.039215    0.542376   -0.971318
     19          1           0       -2.839676   -0.664067   -0.516651
     20          1           0       -4.916545    0.550959    1.371021
     21          1           0       -3.717660   -0.655127    1.824486
     22          1           0       -4.721963   -2.277913    0.182957
     23          1           0       -5.927660   -1.064974   -0.273084
     24          1           0       -5.930136   -1.743504    1.363650
     25          6           0       -2.467630    1.297148    0.296631
     26          6           0       -1.553661    1.782428   -0.829046
     27          6           0       -0.604229    2.894342   -0.381811
     28          1           0       -3.050531    2.146833    0.678281
     29          1           0       -1.850991    0.940391    1.132948
     30          1           0       -2.172547    2.137894   -1.662856
     31          1           0       -0.973663    0.931808   -1.209391
     32          1           0        0.037453    2.547740    0.434714
     33          1           0       -1.168243    3.760680   -0.021327
     34          1           0        0.039929    3.226271   -1.202020
 ---------------------------------------------------------------------

 SCF Done:  E(RHF) =  -669.536420895     A.U. after   15 cycles
 E2 =    -0.2092404464D+01 EUMP2 =    -0.67162882535942D+03

 The electronic state is 1-A.
 Alpha  occ. eigenvalues --  -20.60998 -20.60991 -15.86015 -11.31319 -11.27881
 Alpha  occ. eigenvalues --  -11.27868 -11.27603 -11.26875 -11.26861 -11.20971
 Alpha  occ. eigenvalues --  -11.20903 -11.20751 -11.20735 -11.20446 -11.20376
 Alpha  occ. eigenvalues --   -1.60060  -1.39612  -1.19480  -1.08890  -1.07723
 Alpha  occ. eigenvalues --   -1.04870  -1.02912  -0.95736  -0.95368  -0.86389
 Alpha  occ. eigenvalues --   -0.86272  -0.82569  -0.78968  -0.77628  -0.77511
 Alpha  occ. eigenvalues --   -0.72237  -0.71397  -0.70587  -0.65135  -0.64872
 Alpha  occ. eigenvalues --   -0.64332  -0.62219  -0.60311  -0.58743  -0.56973
 Alpha  occ. eigenvalues --   -0.55375  -0.54666  -0.53194  -0.52962  -0.52099
 Alpha  occ. eigenvalues --   -0.51795  -0.49303  -0.49007  -0.49000  -0.47289
 Alpha  occ. eigenvalues --   -0.46005  -0.45093  -0.45025  -0.44879  -0.43135
 Alpha  occ. eigenvalues --   -0.37451  -0.36466
 Alpha virt. eigenvalues --    0.04867   0.11171   0.16346   0.21280   0.23329
 Alpha virt. eigenvalues --    0.24767   0.27025   0.27302   0.28123   0.28294
 Alpha virt. eigenvalues --    0.28637   0.30953   0.31855   0.32122   0.32410

 Mulliken charges:
               1
     1  C   -0.170336
     2  C   -0.218630
     3  C   -0.171504
     4  C    0.157788
     5  C   -0.170152
     6  C   -0.218310
     7  H    0.226227
     8  H    0.223987
     9  H    0.275633
    10  H    0.276067
    11  H    0.224061
    12  N    0.487990
    13  O   -0.458250
    14  O   -0.460383
    15  C   -0.304587
    16  C   -0.298242
    17  C   -0.476179
    18  H    0.147150
    19  H    0.169099
    20  H    0.147728
    21  H    0.149651
    22  H    0.160189
    23  H    0.153942
    24  H    0.156615
    25  C   -0.295488
    26  C   -0.304816
    27  C   -0.476116
    28  H    0.145382
    29  H    0.144920
    30  H    0.152732
    31  H    0.161315
    32  H    0.151097
    33  H    0.153435
    34  H    0.157983
 Sum of Mulliken charges =  -0.00000

 Dipole moment (field-independent basis, Debye):
    X=              3.8674    Y=              2.0025    Z=              2.8486  Tot=              5.2039
 Quadrupole moment (field-independent basis, Debye-Ang):
   XX=            -79.0166   YY=            -98.1214   ZZ=            -92.7930
   XY=              2.3812   XZ=              4.1655   YZ=             -4.6724

 Normal termination of Gaussian 16 at Thu May  6 01:28:03 2021.
