 Gaussian 16, Revision A.03,
 Gaussian 16:  EM64L-G16RevA.03 25-Dec-2016

 -------------
 #p 6-31g* mp2
 -------------

 ------------------------------------------------------
 Input file generated by CHIRIPA (05-May-2021 14:51:08)
 ------------------------------------------------------
 Symbolic Z-matrix:
 Charge =  0 Multiplicity = 1

                         Standard orientation:
 ---------------------------------------------------------------------
 Center     Atomic      Atomic             Coordinates (Angstroms)
 Number     Number       Type             X           Y           Z
 ---------------------------------------------------------------------
      1          6           0       -2.465134    0.438771   -0.175965
      2          6           0       -3.670559    1.309688   -0.531548
      3          6           0       -3.270001    2.699104   -1.028408
      4          1           0       -1.867971    0.946865    0.593568
      5          1           0       -1.818846    0.341105   -1.059237
      6          1           0       -4.315088    1.404541    0.351742
      7          1           0       -4.265025    0.799374   -1.300186
      8          1           0       -2.645476    2.622599   -1.924353
      9          1           0       -2.695823    3.231205   -0.263039
     10          1           0       -4.147016    3.304871   -1.276903
     11          6           0       -2.849411   -0.953259    0.322345
     12          6           0       -1.643986   -1.824176    0.677928
     13          6           0       -2.044544   -3.213592    1.174788
     14          1           0       -3.495698   -0.855594    1.205617
     15          1           0       -3.446574   -1.461353   -0.447188
     16          1           0       -1.049519   -1.313862    1.446567
     17          1           0       -0.999457   -1.919029   -0.205361
     18          1           0       -2.618721   -3.745693    0.409419
     19          1           0       -2.669069   -3.137088    2.070733
     20          1           0       -1.167528   -3.819359    1.423283
     21          6           0        2.262238    0.898119    0.055881
     22          6           0        3.097308    2.006129    0.698499
     23          6           0        2.293090    3.281873    0.950499
     24          1           0        1.846331    1.264462   -0.892676
     25          1           0        1.405760    0.670441    0.705497
     26          1           0        3.952719    2.230686    0.048529
     27          1           0        3.511433    1.637042    1.645542
     28          1           0        1.448653    3.079545    1.617273
     29          1           0        1.892447    3.676563    0.011186
     30          1           0        2.909397    4.060718    1.410310
     31          6           0        3.052307   -0.383631   -0.202261
     32          6           0        2.217236   -1.491641   -0.844879
     33          6           0        3.021455   -2.767386   -1.096879
     34          1           0        3.908785   -0.155953   -0.851878
     35          1           0        3.468214   -0.749973    0.746296
     36          1           0        1.803112   -1.122554   -1.791922
     37          1           0        1.361825   -1.716198   -0.194909
     38          1           0        3.422097   -3.162074   -0.157567
     39          1           0        3.865892   -2.565058   -1.763653
     40          1           0        2.405148   -3.546230   -1.556690
 ---------------------------------------------------------------------

 SCF Done:  E(RHF) =  -470.733150746     A.U. after   11 cycles
 E2 =    -0.1583544234D+01 EUMP2 =    -0.47231669497979D+03

 The electronic state is 1-A.
 Alpha  occ. eigenvalues --  -11.21606 -11.21592 -11.21578 -11.21513 -11.21403
 Alpha  occ. eigenvalues --  -11.21361 -11.21340 -11.21302 -11.21100 -11.21058
 Alpha  occ. eigenvalues --  -11.21055 -11.21045  -1.08446  -1.08379  -1.03554
 Alpha  occ. eigenvalues --   -1.03483  -0.95985  -0.95946  -0.87006  -0.86958
 Alpha  occ. eigenvalues --   -0.79715  -0.79474  -0.78388  -0.78055  -0.65069
 Alpha  occ. eigenvalues --   -0.65024  -0.60992  -0.60857  -0.59419  -0.59254
 Alpha  occ. eigenvalues --   -0.57645  -0.57507  -0.55271  -0.55234  -0.52693
 Alpha  occ. eigenvalues --   -0.52634  -0.52433  -0.52348  -0.49950  -0.49877
 Alpha  occ. eigenvalues --   -0.48182  -0.47720  -0.46757  -0.46483  -0.46151
 Alpha  occ. eigenvalues --   -0.45757  -0.45634  -0.45197  -0.43788  -0.43739
 Alpha virt. eigenvalues --    0.21230   0.23188   0.23422   0.24378   0.25374
 Alpha virt. eigenvalues --    0.26007   0.27041   0.27563   0.28121   0.30176
 Alpha virt. eigenvalues --    0.30778   0.31195   0.31687   0.31788   0.32043

 Mulliken charges:
               1
     1  C   -0.298915
     2  C   -0.299750
     3  C   -0.475629
     4  H    0.150045
     5  H    0.150409
     6  H    0.151807
     7  H    0.151848
     8  H    0.155000
     9  H    0.155619
    10  H    0.160129
    11  C   -0.297785
    12  C   -0.305713
    13  C   -0.475995
    14  H    0.149297
    15  H    0.149641
    16  H    0.151166
    17  H    0.158525
    18  H    0.155415
    19  H    0.155295
    20  H    0.160175
    21  C   -0.299933
    22  C   -0.299705
    23  C   -0.475473
    24  H    0.149667
    25  H    0.151464
    26  H    0.151919
    27  H    0.151688
    28  H    0.154434
    29  H    0.155563
    30  H    0.160142
    31  C   -0.297674
    32  C   -0.308028
    33  C   -0.475319
    34  H    0.149168
    35  H    0.149189
    36  H    0.150364
    37  H    0.162353
    38  H    0.154915
    39  H    0.155003
    40  H    0.159679
 Sum of Mulliken charges =  -0.00000

 Dipole moment (field-independent basis, Debye):
    X=             -0.0273    Y=             -0.0041    Z=             -0.0031  Tot=              0.0278
 Quadrupole moment (field-independent basis, Debye-Ang):
   XX=            -85.0807   YY=            -86.6417   ZZ=            -83.2206
   XY=              0.4238   XZ=             -0.0609   YZ=              0.1478

 Normal termination of Gaussian 16 at Wed May  5 19:41:46 2021.
