 Gaussian 16, Revision A.03,
 Gaussian 16:  EM64L-G16RevA.03 25-Dec-2016

 -------------
 #p 6-31g* mp2
 -------------

 ------------------------------------------------------
 Input file generated by CHIRIPA (05-May-2021 14:57:27)
 ------------------------------------------------------
 Symbolic Z-matrix:
 Charge =  0 Multiplicity = 1

                         Standard orientation:
 ---------------------------------------------------------------------
 Center     Atomic      Atomic             Coordinates (Angstroms)
 Number     Number       Type             X           Y           Z
 ---------------------------------------------------------------------
      1          6           0        2.795751    2.269470    0.088119
      2          6           0        4.088915    2.069005   -0.405907
      3          6           0        4.627383    0.781185   -0.484126
      4          6           0        3.841342   -0.288216   -0.057731
      5          6           0        2.549699   -0.120831    0.439191
      6          6           0        2.031617    1.175840    0.508350
      7          1           0        2.385374    3.273317    0.145363
      8          1           0        4.684637    2.916464   -0.732977
      9          1           0        5.625656    0.597453   -0.862427
     10          1           0        1.979941   -0.985316    0.757718
     11          1           0        1.027030    1.328532    0.892453
     12          7           0        4.400603   -1.656259   -0.135742
     13          8           0        3.687765   -2.581773    0.246255
     14          8           0        5.541201   -1.777112   -0.577407
     15          6           0       -2.023633    1.836838    0.535835
     16          6           0       -1.955914    0.597147    1.180119
     17          6           0       -2.906593   -0.393258    0.915819
     18          6           0       -3.915988   -0.108767   -0.002591
     19          6           0       -4.010323    1.116534   -0.660641
     20          6           0       -3.048814    2.092124   -0.380873
     21          1           0       -1.280916    2.600454    0.747159
     22          1           0       -1.160856    0.396100    1.892516
     23          1           0       -2.877872   -1.361663    1.400366
     24          1           0       -4.814588    1.287570   -1.365851
     25          1           0       -3.103890    3.053975   -0.882725
     26          7           0       -4.928162   -1.149423   -0.290582
     27          8           0       -5.807551   -0.873985   -1.103874
     28          8           0       -4.822949   -2.220822    0.302436
 ---------------------------------------------------------------------

 SCF Done:  E(RHF) =  -868.335685842     A.U. after   16 cycles
 E2 =    -0.2600833906D+01 EUMP2 =    -0.87093651974789D+03

 The electronic state is 1-A.
 Alpha  occ. eigenvalues --  -20.61224 -20.61217 -20.61214 -20.61209 -15.86285
 Alpha  occ. eigenvalues --  -15.86275 -11.31859 -11.31790 -11.28474 -11.28439
 Alpha  occ. eigenvalues --  -11.28428 -11.28381 -11.28352 -11.28214 -11.27639
 Alpha  occ. eigenvalues --  -11.27537 -11.27522 -11.27401  -1.60294  -1.60287
 Alpha  occ. eigenvalues --   -1.39841  -1.39836  -1.20079  -1.19990  -1.09472
 Alpha  occ. eigenvalues --   -1.09365  -1.05520  -1.05419  -0.96256  -0.96172
 Alpha  occ. eigenvalues --   -0.86974  -0.86790  -0.83074  -0.83011  -0.78108
 Alpha  occ. eigenvalues --   -0.77980  -0.72505  -0.72490  -0.71618  -0.71611
 Alpha  occ. eigenvalues --   -0.71279  -0.71116  -0.65869  -0.65689  -0.65652
 Alpha  occ. eigenvalues --   -0.65253  -0.62960  -0.62646  -0.56116  -0.55953
 Alpha  occ. eigenvalues --   -0.53894  -0.53730  -0.53654  -0.53427  -0.49282
 Alpha  occ. eigenvalues --   -0.49261  -0.49239  -0.49235  -0.45208  -0.45199
 Alpha  occ. eigenvalues --   -0.38132  -0.37964  -0.37116  -0.36989
 Alpha virt. eigenvalues --    0.04465   0.04535   0.10369   0.10654   0.15860
 Alpha virt. eigenvalues --    0.15985   0.18061   0.22195   0.24915   0.25481
 Alpha virt. eigenvalues --    0.28016   0.29227   0.29998   0.30581   0.32273

 Mulliken charges:
               1
     1  C   -0.172040
     2  C   -0.217924
     3  C   -0.169888
     4  C    0.159458
     5  C   -0.171298
     6  C   -0.218755
     7  H    0.222389
     8  H    0.225301
     9  H    0.277922
    10  H    0.275115
    11  H    0.216461
    12  N    0.488037
    13  O   -0.458909
    14  O   -0.458470
    15  C   -0.170428
    16  C   -0.221814
    17  C   -0.168984
    18  C    0.159477
    19  C   -0.169245
    20  C   -0.217759
    21  H    0.217408
    22  H    0.218864
    23  H    0.279479
    24  H    0.278457
    25  H    0.224981
    26  N    0.487971
    27  O   -0.458373
    28  O   -0.457436
 Sum of Mulliken charges =  -0.00000

 Dipole moment (field-independent basis, Debye):
    X=              1.4962    Y=              8.3301    Z=              1.1423  Tot=              8.5401
 Quadrupole moment (field-independent basis, Debye-Ang):
   XX=           -141.9958   YY=           -106.7524   ZZ=           -103.3730
   XY=              4.6535   XZ=             -3.0244   YZ=             -3.8652

 Normal termination of Gaussian 16 at Fri May  7 05:05:42 2021.
