 Gaussian 16, Revision A.03,
 Gaussian 16:  EM64L-G16RevA.03 25-Dec-2016

 -------------
 #p 6-31g* mp2
 -------------

 ------------------------------------------------------
 Input file generated by CHIRIPA (05-May-2021 14:57:21)
 ------------------------------------------------------
 Symbolic Z-matrix:
 Charge =  0 Multiplicity = 1

                         Standard orientation:
 ---------------------------------------------------------------------
 Center     Atomic      Atomic             Coordinates (Angstroms)
 Number     Number       Type             X           Y           Z
 ---------------------------------------------------------------------
      1          6           0        3.732835    2.072895   -0.809521
      2          6           0        3.129306    2.120581    0.451430
      3          6           0        2.665592    0.951154    1.061314
      4          6           0        2.822346   -0.254183    0.378759
      5          6           0        3.419373   -0.334247   -0.878396
      6          6           0        3.875691    0.847792   -1.469247
      7          1           0        4.090186    2.986232   -1.275901
      8          1           0        3.017028    3.070600    0.966117
      9          1           0        2.194579    0.959348    2.036761
     10          1           0        3.517240   -1.296148   -1.366850
     11          1           0        4.344004    0.807747   -2.448596
     12          7           0        2.335348   -1.498879    1.014341
     13          8           0        2.485317   -2.548224    0.392231
     14          8           0        1.812892   -1.401558    2.122585
     15          6           0       -5.136232    0.770010    0.651769
     16          6           0       -5.042534   -0.386693   -0.129115
     17          6           0       -3.810129   -0.795651   -0.647267
     18          6           0       -2.686671   -0.020658   -0.363508
     19          6           0       -2.747713    1.136666    0.411193
     20          6           0       -3.990542    1.526663    0.918960
     21          1           0       -6.097642    1.080334    1.050247
     22          1           0       -5.930624   -0.976275   -0.338242
     23          1           0       -3.709081   -1.686833   -1.254722
     24          1           0       -1.844858    1.703808    0.602559
     25          1           0       -4.060320    2.425426    1.525098
     26          7           0       -1.376462   -0.443568   -0.906555
     27          8           0       -0.401521    0.256578   -0.642124
     28          8           0       -1.349269   -1.467182   -1.586343
 ---------------------------------------------------------------------

 SCF Done:  E(RHF) =  -868.337982419     A.U. after   16 cycles
 E2 =    -0.2600654270D+01 EUMP2 =    -0.87093863668863D+03

 The electronic state is 1-A.
 Alpha  occ. eigenvalues --  -20.60729 -20.60680 -20.59538 -20.59487 -15.85741
 Alpha  occ. eigenvalues --  -15.84562 -11.31073 -11.29819 -11.27671 -11.27623
 Alpha  occ. eigenvalues --  -11.27394 -11.26676 -11.26643 -11.26491 -11.26406
 Alpha  occ. eigenvalues --  -11.26288 -11.25569 -11.25496  -1.59767  -1.58570
 Alpha  occ. eigenvalues --   -1.39326  -1.38138  -1.19245  -1.18019  -1.08650
 Alpha  occ. eigenvalues --   -1.07462  -1.04652  -1.03476  -0.95494  -0.94318
 Alpha  occ. eigenvalues --   -0.86052  -0.84895  -0.82334  -0.81189  -0.77380
 Alpha  occ. eigenvalues --   -0.76217  -0.72002  -0.71087  -0.70824  -0.70369
 Alpha  occ. eigenvalues --   -0.69798  -0.69251  -0.64909  -0.64665  -0.63744
 Alpha  occ. eigenvalues --   -0.63563  -0.62007  -0.60870  -0.55164  -0.54062
 Alpha  occ. eigenvalues --   -0.52971  -0.52755  -0.51736  -0.51638  -0.48735
 Alpha  occ. eigenvalues --   -0.48701  -0.47572  -0.47556  -0.44752  -0.43574
 Alpha  occ. eigenvalues --   -0.37224  -0.36250  -0.35944  -0.35039
 Alpha virt. eigenvalues --    0.05146   0.06402   0.11408   0.12603   0.16656
 Alpha virt. eigenvalues --    0.17861   0.21497   0.22451   0.27382   0.28223
 Alpha virt. eigenvalues --    0.28466   0.29369   0.31033   0.31908   0.32599

 Mulliken charges:
               1
     1  C   -0.170465
     2  C   -0.218772
     3  C   -0.165371
     4  C    0.178041
     5  C   -0.163720
     6  C   -0.217828
     7  H    0.219476
     8  H    0.215194
     9  H    0.268128
    10  H    0.274348
    11  H    0.218882
    12  N    0.489501
    13  O   -0.459895
    14  O   -0.469081
    15  C   -0.170502
    16  C   -0.218425
    17  C   -0.169663
    18  C    0.160028
    19  C   -0.169119
    20  C   -0.218252
    21  H    0.225272
    22  H    0.223664
    23  H    0.276765
    24  H    0.272254
    25  H    0.222029
    26  N    0.491612
    27  O   -0.468676
    28  O   -0.455427
 Sum of Mulliken charges =  -0.00000

 Dipole moment (field-independent basis, Debye):
    X=             -3.1497    Y=              5.6405    Z=             -0.4761  Tot=              6.4779
 Quadrupole moment (field-independent basis, Debye-Ang):
   XX=            -70.7785   YY=           -103.8164   ZZ=           -105.1364
   XY=              8.7925   XZ=             -9.8795   YZ=              6.2713

 Normal termination of Gaussian 16 at Wed May  5 20:53:03 2021.
