 Gaussian 16, Revision A.03,
 Gaussian 16:  EM64L-G16RevA.03 25-Dec-2016

 -------------
 #p 6-31g* mp2
 -------------

 ------------------------------------------------------
 Input file generated by CHIRIPA (05-May-2021 14:57:25)
 ------------------------------------------------------
 Symbolic Z-matrix:
 Charge =  0 Multiplicity = 1

                         Standard orientation:
 ---------------------------------------------------------------------
 Center     Atomic      Atomic             Coordinates (Angstroms)
 Number     Number       Type             X           Y           Z
 ---------------------------------------------------------------------
      1          6           0        2.612200    2.586840   -0.443368
      2          6           0        3.784053    2.015094   -0.949716
      3          6           0        4.102550    0.682909   -0.669732
      4          6           0        3.222632   -0.051774    0.123537
      5          6           0        2.047536    0.489461    0.642675
      6          6           0        1.749203    1.823544    0.349813
      7          1           0        2.372616    3.622450   -0.665869
      8          1           0        4.456126    2.605493   -1.565989
      9          1           0        5.003097    0.215216   -1.048802
     10          1           0        1.397161   -0.124229    1.254080
     11          1           0        0.838428    2.264941    0.744405
     12          7           0        3.549136   -1.463103    0.426760
     13          8           0        2.757396   -2.089126    1.128101
     14          8           0        4.590609   -1.916557   -0.042656
     15          6           0       -3.833500    2.196049    0.450435
     16          6           0       -2.481019    1.843951    0.392620
     17          6           0       -2.101155    0.530004    0.103150
     18          6           0       -3.104561   -0.410618   -0.124220
     19          6           0       -4.460451   -0.090770   -0.073711
     20          6           0       -4.817165    1.229268    0.217496
     21          1           0       -4.119596    3.219120    0.675977
     22          1           0       -1.714931    2.592674    0.573088
     23          1           0       -1.061502    0.230107    0.052132
     24          1           0       -5.201362   -0.859164   -0.258205
     25          1           0       -5.868294    1.499849    0.261739
     26          7           0       -2.714669   -1.804860   -0.431588
     27          8           0       -3.617889   -2.614950   -0.628022
     28          8           0       -1.513235   -2.061176   -0.470250
 ---------------------------------------------------------------------

 SCF Done:  E(RHF) =  -868.335309953     A.U. after   16 cycles
 E2 =    -0.2601694767D+01 EUMP2 =    -0.87093700471984D+03

 The electronic state is 1-A.
 Alpha  occ. eigenvalues --  -20.60894 -20.60872 -20.60641 -20.60596 -15.85946
 Alpha  occ. eigenvalues --  -15.85690 -11.31553 -11.31379 -11.28216 -11.28121
 Alpha  occ. eigenvalues --  -11.28061 -11.27986 -11.27962 -11.27862 -11.27351
 Alpha  occ. eigenvalues --  -11.27254 -11.27171 -11.27047  -1.59957  -1.59690
 Alpha  occ. eigenvalues --   -1.39504  -1.39234  -1.19762  -1.19612  -1.09108
 Alpha  occ. eigenvalues --   -1.08946  -1.05251  -1.05069  -0.95900  -0.95718
 Alpha  occ. eigenvalues --   -0.86617  -0.86457  -0.82778  -0.82547  -0.77819
 Alpha  occ. eigenvalues --   -0.77488  -0.72155  -0.71907  -0.71288  -0.71015
 Alpha  occ. eigenvalues --   -0.70896  -0.70690  -0.65464  -0.65387  -0.65255
 Alpha  occ. eigenvalues --   -0.65001  -0.62846  -0.62158  -0.55717  -0.55556
 Alpha  occ. eigenvalues --   -0.53521  -0.53509  -0.53316  -0.53056  -0.48935
 Alpha  occ. eigenvalues --   -0.48903  -0.48694  -0.48635  -0.44855  -0.44567
 Alpha  occ. eigenvalues --   -0.37738  -0.37593  -0.36836  -0.36683
 Alpha virt. eigenvalues --    0.04807   0.04971   0.10810   0.10929   0.16202
 Alpha virt. eigenvalues --    0.16245   0.18386   0.22290   0.24713   0.26218
 Alpha virt. eigenvalues --    0.28101   0.28974   0.30312   0.31521   0.32898

 Mulliken charges:
               1
     1  C   -0.170864
     2  C   -0.218090
     3  C   -0.168943
     4  C    0.160208
     5  C   -0.172846
     6  C   -0.223948
     7  H    0.224285
     8  H    0.224804
     9  H    0.278026
    10  H    0.280013
    11  H    0.216101
    12  N    0.488228
    13  O   -0.453028
    14  O   -0.460597
    15  C   -0.170285
    16  C   -0.222569
    17  C   -0.175407
    18  C    0.159121
    19  C   -0.168974
    20  C   -0.218538
    21  H    0.225937
    22  H    0.214956
    23  H    0.276728
    24  H    0.277885
    25  H    0.225167
    26  N    0.487357
    27  O   -0.458883
    28  O   -0.455845
 Sum of Mulliken charges =  -0.00000

 Dipole moment (field-independent basis, Debye):
    X=             -2.4386    Y=              9.5699    Z=             -0.0568  Tot=              9.8758
 Quadrupole moment (field-independent basis, Debye-Ang):
   XX=            -94.1874   YY=           -110.3675   ZZ=           -105.3626
   XY=              3.1597   XZ=             -9.0991   YZ=             -0.7279

 Normal termination of Gaussian 16 at Fri May  7 06:32:38 2021.
