 Gaussian 16, Revision A.03,
 Gaussian 16:  EM64L-G16RevA.03 25-Dec-2016

 -------------
 #p 6-31g* mp2
 -------------

 ------------------------------------------------------
 Input file generated by CHIRIPA (05-May-2021 14:51:09)
 ------------------------------------------------------
 Symbolic Z-matrix:
 Charge =  0 Multiplicity = 1

                         Standard orientation:
 ---------------------------------------------------------------------
 Center     Atomic      Atomic             Coordinates (Angstroms)
 Number     Number       Type             X           Y           Z
 ---------------------------------------------------------------------
      1          6           0       -4.643498   -0.243544    0.230432
      2          6           0       -5.386921   -0.148009   -1.102302
      3          6           0       -6.867167    0.194161   -0.930295
      4          1           0       -5.126557   -1.004335    0.858760
      5          1           0       -4.740297    0.711254    0.765582
      6          1           0       -5.287582   -1.102241   -1.635396
      7          1           0       -4.901920    0.612508   -1.727605
      8          1           0       -6.983506    1.156089   -0.420627
      9          1           0       -7.371360   -0.568402   -0.327893
     10          1           0       -7.379370    0.257460   -1.895438
     11          6           0       -3.162625   -0.584967    0.074949
     12          6           0       -2.419202   -0.680502    1.407683
     13          6           0       -0.938956   -1.022672    1.235676
     14          1           0       -3.065826   -1.539765   -0.460201
     15          1           0       -2.679566    0.175824   -0.553379
     16          1           0       -2.904203   -1.441019    2.032986
     17          1           0       -2.518541    0.273730    1.940777
     18          1           0       -0.434763   -0.260109    0.633274
     19          1           0       -0.822617   -1.984600    0.726008
     20          1           0       -0.426753   -1.085971    2.200819
     21          6           0        3.675197    1.140682   -0.214456
     22          6           0        2.276943    1.387895    0.352778
     23          6           0        1.835160    2.845801    0.221900
     24          1           0        4.393989    1.790953    0.302681
     25          1           0        3.691514    1.436139   -1.272678
     26          1           0        2.262893    1.090763    1.409250
     27          1           0        1.561426    0.736821   -0.165637
     28          1           0        1.820872    3.151115   -0.829376
     29          1           0        2.526324    3.507068    0.754459
     30          1           0        0.832900    3.000092    0.633639
     31          6           0        4.130926   -0.312171   -0.090925
     32          6           0        5.529180   -0.559384   -0.658159
     33          6           0        5.970963   -2.017290   -0.527281
     34          1           0        4.114609   -0.607628    0.967297
     35          1           0        3.412134   -0.962442   -0.608062
     36          1           0        6.244697    0.091691   -0.139743
     37          1           0        5.543230   -0.262252   -1.714631
     38          1           0        5.279798   -2.678557   -1.059841
     39          1           0        5.985251   -2.322604    0.523995
     40          1           0        6.973223   -2.171581   -0.939020
 ---------------------------------------------------------------------

 SCF Done:  E(RHF) =  -470.733119706     A.U. after   11 cycles
 E2 =    -0.1582540384D+01 EUMP2 =    -0.47231566008927D+03

 The electronic state is 1-A.
 Alpha  occ. eigenvalues --  -11.21598 -11.21580 -11.21571 -11.21570 -11.21397
 Alpha  occ. eigenvalues --  -11.21380 -11.21337 -11.21319 -11.21087 -11.21068
 Alpha  occ. eigenvalues --  -11.21051 -11.20987  -1.08424  -1.08404  -1.03540
 Alpha  occ. eigenvalues --   -1.03489  -0.95984  -0.95942  -0.87008  -0.86952
 Alpha  occ. eigenvalues --   -0.79670  -0.79493  -0.78266  -0.78184  -0.65079
 Alpha  occ. eigenvalues --   -0.65016  -0.61001  -0.60844  -0.59343  -0.59323
 Alpha  occ. eigenvalues --   -0.57634  -0.57523  -0.55295  -0.55203  -0.52684
 Alpha  occ. eigenvalues --   -0.52635  -0.52423  -0.52358  -0.49997  -0.49848
 Alpha  occ. eigenvalues --   -0.48038  -0.47767  -0.46732  -0.46487  -0.45863
 Alpha  occ. eigenvalues --   -0.45724  -0.45700  -0.45524  -0.43778  -0.43753
 Alpha virt. eigenvalues --    0.21982   0.23038   0.23578   0.24911   0.25918
 Alpha virt. eigenvalues --    0.26771   0.26888   0.27603   0.27923   0.28967
 Alpha virt. eigenvalues --    0.30362   0.31354   0.31625   0.31841   0.32328

 Mulliken charges:
               1
     1  C   -0.298239
     2  C   -0.299653
     3  C   -0.475699
     4  H    0.149681
     5  H    0.149503
     6  H    0.151869
     7  H    0.151903
     8  H    0.155196
     9  H    0.155179
    10  H    0.160222
    11  C   -0.298314
    12  C   -0.299373
    13  C   -0.481228
    14  H    0.149402
    15  H    0.149284
    16  H    0.151673
    17  H    0.151549
    18  H    0.162279
    19  H    0.154412
    20  H    0.160035
    21  C   -0.297724
    22  C   -0.303682
    23  C   -0.476365
    24  H    0.149450
    25  H    0.149220
    26  H    0.152898
    27  H    0.155871
    28  H    0.155004
    29  H    0.155498
    30  H    0.159821
    31  C   -0.298290
    32  C   -0.299648
    33  C   -0.475672
    34  H    0.149665
    35  H    0.150087
    36  H    0.151827
    37  H    0.151810
    38  H    0.155227
    39  H    0.155191
    40  H    0.160133
 Sum of Mulliken charges =  -0.00000

 Dipole moment (field-independent basis, Debye):
    X=              0.0168    Y=             -0.0010    Z=              0.0013  Tot=              0.0169
 Quadrupole moment (field-independent basis, Debye-Ang):
   XX=            -86.0669   YY=            -84.8752   ZZ=            -83.9559
   XY=              1.0211   XZ=              0.3544   YZ=              0.1867

 Normal termination of Gaussian 16 at Wed May  5 16:37:29 2021.
