 Gaussian 16, Revision A.03,
 Gaussian 16:  EM64L-G16RevA.03 25-Dec-2016

 -------------
 #p 6-31g* mp2
 -------------

 ------------------------------------------------------
 Input file generated by CHIRIPA (05-May-2021 14:53:12)
 ------------------------------------------------------
 Symbolic Z-matrix:
 Charge =  0 Multiplicity = 1

                         Standard orientation:
 ---------------------------------------------------------------------
 Center     Atomic      Atomic             Coordinates (Angstroms)
 Number     Number       Type             X           Y           Z
 ---------------------------------------------------------------------
      1          6           0        4.556254   -0.085897   -0.089491
      2          6           0        4.723081   -1.282354    0.847870
      3          6           0        6.134017   -1.870287    0.810618
      4          1           0        4.799173   -0.395195   -1.115293
      5          1           0        5.285003    0.689687    0.183984
      6          1           0        3.993303   -2.054889    0.573588
      7          1           0        4.479551   -0.970220    1.871531
      8          1           0        6.872777   -1.117902    1.105154
      9          1           0        6.383767   -2.208735   -0.200164
     10          1           0        6.231045   -2.724414    1.488048
     11          6           0        3.151056    0.512825   -0.063404
     12          6           0        2.984230    1.709281   -1.000765
     13          6           0        1.573294    2.297214   -0.963512
     14          1           0        2.422307   -0.262759   -0.336879
     15          1           0        2.908138    0.822123    0.962398
     16          1           0        3.227759    1.397147   -2.024426
     17          1           0        3.714007    2.481817   -0.726483
     18          1           0        1.323544    2.635662    0.047269
     19          1           0        0.834533    1.544830   -1.258048
     20          1           0        1.476266    3.151342   -1.640943
     21          6           0       -2.628110    2.158829    0.960375
     22          6           0       -3.475197    1.276125    1.638461
     23          6           0       -3.694508   -0.014807    1.148619
     24          6           0       -3.047652   -0.391599   -0.027348
     25          6           0       -2.197924    0.464885   -0.725693
     26          6           0       -1.993296    1.751110   -0.217461
     27          1           0       -2.463446    3.159827    1.348039
     28          1           0       -3.969530    1.590042    2.553411
     29          1           0       -4.345216   -0.718441    1.653492
     30          1           0       -1.719158    0.123276   -1.635367
     31          1           0       -1.334906    2.434505   -0.746176
     32          7           0       -3.272055   -1.755759   -0.555655
     33          8           0       -2.690347   -2.063499   -1.593706
     34          8           0       -4.025403   -2.491417    0.078310
 ---------------------------------------------------------------------

 SCF Done:  E(RHF) =  -669.534806004     A.U. after   15 cycles
 E2 =    -0.2091842006D+01 EUMP2 =    -0.67162664801095D+03

 The electronic state is 1-A.
 Alpha  occ. eigenvalues --  -20.60736 -20.60731 -15.85787 -11.31138 -11.27686
 Alpha  occ. eigenvalues --  -11.27676 -11.27405 -11.26717 -11.26616 -11.22166
 Alpha  occ. eigenvalues --  -11.21986 -11.21741 -11.21724 -11.21596 -11.21151
 Alpha  occ. eigenvalues --   -1.59811  -1.39365  -1.19295  -1.08773  -1.08689
 Alpha  occ. eigenvalues --   -1.04700  -1.03925  -0.96414  -0.95535  -0.87466
 Alpha  occ. eigenvalues --   -0.86080  -0.82373  -0.80020  -0.78541  -0.77409
 Alpha  occ. eigenvalues --   -0.72006  -0.71133  -0.70407  -0.65401  -0.64945
 Alpha  occ. eigenvalues --   -0.64701  -0.62094  -0.61302  -0.59794  -0.57983
 Alpha  occ. eigenvalues --   -0.55705  -0.55194  -0.53300  -0.53089  -0.52884
 Alpha  occ. eigenvalues --   -0.52471  -0.50354  -0.48766  -0.48763  -0.48287
 Alpha  occ. eigenvalues --   -0.47012  -0.46091  -0.45984  -0.44775  -0.44161
 Alpha  occ. eigenvalues --   -0.37271  -0.36262
 Alpha virt. eigenvalues --    0.05086   0.11329   0.16532   0.20877   0.22563
 Alpha virt. eigenvalues --    0.23951   0.25732   0.26247   0.27186   0.27869
 Alpha virt. eigenvalues --    0.28920   0.29952   0.30865   0.31516   0.32138

 Mulliken charges:
               1
     1  C   -0.298818
     2  C   -0.300328
     3  C   -0.475986
     4  H    0.151049
     5  H    0.149199
     6  H    0.154763
     7  H    0.151563
     8  H    0.154619
     9  H    0.156046
    10  H    0.161460
    11  C   -0.299226
    12  C   -0.300214
    13  C   -0.481463
    14  H    0.152785
    15  H    0.149379
    16  H    0.154975
    17  H    0.153518
    18  H    0.154454
    19  H    0.152075
    20  H    0.159329
    21  C   -0.173604
    22  C   -0.218153
    23  C   -0.171653
    24  C    0.158638
    25  C   -0.174299
    26  C   -0.218263
    27  H    0.225255
    28  H    0.223048
    29  H    0.275239
    30  H    0.274456
    31  H    0.233416
    32  N    0.488206
    33  O   -0.460962
    34  O   -0.460504
 Sum of Mulliken charges =  -0.00000

 Dipole moment (field-independent basis, Debye):
    X=              0.9364    Y=              4.7809    Z=              1.8796  Tot=              5.2217
 Quadrupole moment (field-independent basis, Debye-Ang):
   XX=            -98.7950   YY=            -98.9254   ZZ=            -91.7314
   XY=            -13.8331   XZ=             -8.4142   YZ=             -1.1284

 Normal termination of Gaussian 16 at Thu May  6 15:20:43 2021.
