 Gaussian 16, Revision A.03,
 Gaussian 16:  EM64L-G16RevA.03 25-Dec-2016

 -------------
 #p 6-31g* mp2
 -------------

 ------------------------------------------------------
 Input file generated by CHIRIPA (05-May-2021 14:53:13)
 ------------------------------------------------------
 Symbolic Z-matrix:
 Charge =  0 Multiplicity = 1

                         Standard orientation:
 ---------------------------------------------------------------------
 Center     Atomic      Atomic             Coordinates (Angstroms)
 Number     Number       Type             X           Y           Z
 ---------------------------------------------------------------------
      1          6           0       -5.039698    0.206728    0.275266
      2          6           0       -6.409351   -0.212605   -0.259705
      3          6           0       -7.525790    0.744629    0.158699
      4          1           0       -5.083332    0.264631    1.371482
      5          1           0       -4.808589    1.219712   -0.082292
      6          1           0       -6.637197   -1.225038    0.097621
      7          1           0       -6.362398   -0.269702   -1.354763
      8          1           0       -7.325214    1.755452   -0.210904
      9          1           0       -7.601574    0.794688    1.249732
     10          1           0       -8.496196    0.425959   -0.234519
     11          6           0       -3.913326   -0.740385   -0.134601
     12          6           0       -2.543672   -0.321051    0.400370
     13          6           0       -1.427234   -1.278285   -0.018034
     14          1           0       -4.144434   -1.753368    0.222957
     15          1           0       -3.869691   -0.798287   -1.230817
     16          1           0       -2.590625   -0.263954    1.495428
     17          1           0       -2.315826    0.691382    0.043044
     18          1           0       -1.351449   -1.328344   -1.109066
     19          1           0       -1.627810   -2.289108    0.351570
     20          1           0       -0.456827   -0.959615    0.375184
     21          6           0        2.669444    2.588494   -0.181657
     22          6           0        3.974089    2.323043    0.247243
     23          6           0        4.443431    1.008214    0.321353
     24          6           0        3.577306   -0.021634   -0.042698
     25          6           0        2.272180    0.210663   -0.473943
     26          6           0        1.824143    1.533317   -0.540249
     27          1           0        2.313123    3.612924   -0.236197
     28          1           0        4.632775    3.140523    0.526357
     29          1           0        5.448789    0.774317    0.649934
     30          1           0        1.638891   -0.625149   -0.745573
     31          1           0        0.810450    1.736493   -0.873703
     32          7           0        4.062900   -1.417726    0.031629
     33          8           0        3.280154   -2.307372   -0.294676
     34          8           0        5.217059   -1.595902    0.414783
 ---------------------------------------------------------------------

 SCF Done:  E(RHF) =  -669.535414030     A.U. after   15 cycles
 E2 =    -0.2091368017D+01 EUMP2 =    -0.67162678204746D+03

 The electronic state is 1-A.
 Alpha  occ. eigenvalues --  -20.60729 -20.60723 -15.85782 -11.31151 -11.27735
 Alpha  occ. eigenvalues --  -11.27677 -11.27479 -11.26756 -11.26739 -11.22134
 Alpha  occ. eigenvalues --  -11.21872 -11.21778 -11.21703 -11.21589 -11.21312
 Alpha  occ. eigenvalues --   -1.59805  -1.39357  -1.19333  -1.08812  -1.08727
 Alpha  occ. eigenvalues --   -1.04739  -1.03922  -0.96372  -0.95558  -0.87391
 Alpha  occ. eigenvalues --   -0.86131  -0.82389  -0.79989  -0.78612  -0.77435
 Alpha  occ. eigenvalues --   -0.72001  -0.71129  -0.70449  -0.65444  -0.64985
 Alpha  occ. eigenvalues --   -0.64743  -0.62156  -0.61306  -0.59718  -0.57971
 Alpha  occ. eigenvalues --   -0.55650  -0.55238  -0.53247  -0.53023  -0.52805
 Alpha  occ. eigenvalues --   -0.52648  -0.50298  -0.48761  -0.48754  -0.48296
 Alpha  occ. eigenvalues --   -0.47020  -0.46154  -0.46076  -0.44762  -0.44169
 Alpha  occ. eigenvalues --   -0.37318  -0.36328
 Alpha virt. eigenvalues --    0.05059   0.11277   0.16521   0.20259   0.22679
 Alpha virt. eigenvalues --    0.23839   0.25981   0.26583   0.26812   0.28017
 Alpha virt. eigenvalues --    0.29335   0.29775   0.31095   0.31507   0.31899

 Mulliken charges:
               1
     1  C   -0.298295
     2  C   -0.299980
     3  C   -0.475855
     4  H    0.150569
     5  H    0.147703
     6  H    0.153352
     7  H    0.152195
     8  H    0.154559
     9  H    0.155660
    10  H    0.161327
    11  C   -0.298846
    12  C   -0.299052
    13  C   -0.483009
    14  H    0.152638
    15  H    0.149836
    16  H    0.155211
    17  H    0.144292
    18  H    0.153465
    19  H    0.164342
    20  H    0.159698
    21  C   -0.170774
    22  C   -0.218528
    23  C   -0.170847
    24  C    0.158531
    25  C   -0.175700
    26  C   -0.220539
    27  H    0.225474
    28  H    0.223354
    29  H    0.275517
    30  H    0.281737
    31  H    0.224801
    32  N    0.487807
    33  O   -0.459955
    34  O   -0.460693
 Sum of Mulliken charges =  -0.00000

 Dipole moment (field-independent basis, Debye):
    X=             -1.8263    Y=              4.8424    Z=             -0.2248  Tot=              5.1803
 Quadrupole moment (field-independent basis, Debye-Ang):
   XX=           -103.5933   YY=            -94.8772   ZZ=            -94.3464
   XY=             20.3556   XZ=              0.7734   YZ=             -0.2532

 Normal termination of Gaussian 16 at Thu May  6 20:17:39 2021.
