 Gaussian 16, Revision A.03,
 Gaussian 16:  EM64L-G16RevA.03 25-Dec-2016

 -------------
 #p 6-31g* mp2
 -------------

 ------------------------------------------------------
 Input file generated by CHIRIPA (05-May-2021 14:51:14)
 ------------------------------------------------------
 Symbolic Z-matrix:
 Charge =  0 Multiplicity = 1

                         Standard orientation:
 ---------------------------------------------------------------------
 Center     Atomic      Atomic             Coordinates (Angstroms)
 Number     Number       Type             X           Y           Z
 ---------------------------------------------------------------------
      1          6           0       -3.899592   -0.650489    0.291112
      2          6           0       -2.679642    0.225555    0.577916
      3          6           0       -1.442809   -0.589286    0.957484
      4          1           0       -4.119620   -1.262809    1.176323
      5          1           0       -3.657104   -1.350286   -0.520601
      6          1           0       -2.924810    0.924425    1.387910
      7          1           0       -2.462609    0.836000   -0.308012
      8          1           0       -1.170548   -1.275485    0.149025
      9          1           0       -1.635375   -1.186558    1.854583
     10          1           0       -0.582494    0.056782    1.158266
     11          6           0       -5.143951    0.149666   -0.089741
     12          6           0       -6.363901   -0.726378   -0.376545
     13          6           0       -7.600734    0.088463   -0.756113
     14          1           0       -5.386439    0.849463    0.721972
     15          1           0       -4.923924    0.761986   -0.974951
     16          1           0       -6.580934   -1.336823    0.509384
     17          1           0       -6.118733   -1.425248   -1.186538
     18          1           0       -7.408168    0.685735   -1.653212
     19          1           0       -7.872995    0.774662    0.052346
     20          1           0       -8.461049   -0.557605   -0.956895
     21          6           0        4.083810    0.860588   -0.239633
     22          6           0        2.669463    0.733592    0.327357
     23          6           0        1.805372    1.962127    0.041272
     24          1           0        4.562784    1.754135    0.183574
     25          1           0        4.023151    1.022730   -1.324725
     26          1           0        2.732813    0.570356    1.410850
     27          1           0        2.193868   -0.159863   -0.097102
     28          1           0        1.712471    2.125059   -1.037348
     29          1           0        2.254478    2.859427    0.479171
     30          1           0        0.798503    1.850031    0.455411
     31          6           0        4.959733   -0.359765    0.038261
     32          6           0        6.374081   -0.232769   -0.528728
     33          6           0        7.238172   -1.461304   -0.242644
     34          1           0        5.020393   -0.521907    1.123353
     35          1           0        4.480758   -1.253312   -0.384945
     36          1           0        6.849675    0.660685   -0.104269
     37          1           0        6.310729   -0.069533   -1.612221
     38          1           0        6.789064   -2.358604   -0.680542
     39          1           0        7.331072   -1.624236    0.835977
     40          1           0        8.245040   -1.349208   -0.656782
 ---------------------------------------------------------------------

 SCF Done:  E(RHF) =  -470.733228500     A.U. after   11 cycles
 E2 =    -0.1582437009D+01 EUMP2 =    -0.47231566550960D+03

 The electronic state is 1-A.
 Alpha  occ. eigenvalues --  -11.21599 -11.21598 -11.21592 -11.21581 -11.21402
 Alpha  occ. eigenvalues --  -11.21393 -11.21342 -11.21334 -11.21068 -11.21062
 Alpha  occ. eigenvalues --  -11.21057 -11.21043  -1.08431  -1.08414  -1.03553
 Alpha  occ. eigenvalues --   -1.03495  -0.96026  -0.95923  -0.87032  -0.86947
 Alpha  occ. eigenvalues --   -0.79600  -0.79568  -0.78244  -0.78223  -0.65063
 Alpha  occ. eigenvalues --   -0.65041  -0.60949  -0.60889  -0.59708  -0.59099
 Alpha  occ. eigenvalues --   -0.57799  -0.57337  -0.55282  -0.55228  -0.52912
 Alpha  occ. eigenvalues --   -0.52558  -0.52463  -0.52150  -0.49919  -0.49901
 Alpha  occ. eigenvalues --   -0.47962  -0.47835  -0.46645  -0.46587  -0.45785
 Alpha  occ. eigenvalues --   -0.45767  -0.45711  -0.45687  -0.43836  -0.43704
 Alpha virt. eigenvalues --    0.21487   0.23044   0.23337   0.25172   0.26528
 Alpha virt. eigenvalues --    0.26678   0.26787   0.27267   0.27799   0.28920
 Alpha virt. eigenvalues --    0.30407   0.31176   0.31553   0.31602   0.32178

 Mulliken charges:
               1
     1  C   -0.298192
     2  C   -0.300185
     3  C   -0.482295
     4  H    0.149708
     5  H    0.149488
     6  H    0.151730
     7  H    0.152442
     8  H    0.154941
     9  H    0.155153
    10  H    0.167387
    11  C   -0.298285
    12  C   -0.299654
    13  C   -0.475707
    14  H    0.149541
    15  H    0.149704
    16  H    0.151933
    17  H    0.151896
    18  H    0.155191
    19  H    0.155195
    20  H    0.160235
    21  C   -0.298382
    22  C   -0.300343
    23  C   -0.480479
    24  H    0.149603
    25  H    0.149460
    26  H    0.151756
    27  H    0.153645
    28  H    0.155245
    29  H    0.155249
    30  H    0.163937
    31  C   -0.298284
    32  C   -0.299654
    33  C   -0.475699
    34  H    0.149596
    35  H    0.149751
    36  H    0.151909
    37  H    0.151868
    38  H    0.155188
    39  H    0.155201
    40  H    0.160205
 Sum of Mulliken charges =  -0.00000

 Dipole moment (field-independent basis, Debye):
    X=              0.0019    Y=             -0.0031    Z=              0.0006  Tot=              0.0037
 Quadrupole moment (field-independent basis, Debye-Ang):
   XX=            -86.1972   YY=            -85.5088   ZZ=            -83.1099
   XY=              1.1412   XZ=             -0.3600   YZ=              0.6740

 Normal termination of Gaussian 16 at Wed May  5 23:16:03 2021.
