 Gaussian 16, Revision A.03,
 Gaussian 16:  EM64L-G16RevA.03 25-Dec-2016

 -------------
 #p 6-31g* mp2
 -------------

 ------------------------------------------------------
 Input file generated by CHIRIPA (05-May-2021 14:53:16)
 ------------------------------------------------------
 Symbolic Z-matrix:
 Charge =  0 Multiplicity = 1

                         Standard orientation:
 ---------------------------------------------------------------------
 Center     Atomic      Atomic             Coordinates (Angstroms)
 Number     Number       Type             X           Y           Z
 ---------------------------------------------------------------------
      1          6           0        3.604237   -0.301843    0.575161
      2          6           0        3.445018   -1.814185    0.734710
      3          6           0        2.162920   -2.198934    1.473619
      4          1           0        3.596566    0.168036    1.568187
      5          1           0        2.734616    0.096339    0.034230
      6          1           0        4.315346   -2.209593    1.273967
      7          1           0        3.453261   -2.280537   -0.258800
      8          1           0        1.283099   -1.831917    0.935274
      9          1           0        2.150083   -1.760570    2.476750
     10          1           0        2.069246   -3.284517    1.576550
     11          6           0        4.881210    0.098497   -0.161586
     12          6           0        5.040428    1.610839   -0.321135
     13          6           0        6.322526    1.995589   -1.060043
     14          1           0        5.750830   -0.299685    0.379346
     15          1           0        4.888880   -0.371382   -1.154611
     16          1           0        5.032185    2.077192    0.672376
     17          1           0        4.170100    2.006248   -0.860391
     18          1           0        6.335364    1.557225   -2.063174
     19          1           0        7.202347    1.628572   -0.521698
     20          1           0        6.416200    3.081172   -1.162975
     21          6           0       -4.823094    1.906769    0.705215
     22          6           0       -3.452273    1.940926    0.981262
     23          6           0       -2.607017    0.933788    0.506117
     24          6           0       -3.168794   -0.097229   -0.245349
     25          6           0       -4.530519   -0.159199   -0.537164
     26          6           0       -5.356901    0.858663   -0.051782
     27          1           0       -5.472379    2.693304    1.078297
     28          1           0       -3.034943    2.753675    1.568903
     29          1           0       -1.542191    0.935578    0.705015
     30          1           0       -4.917363   -0.982288   -1.125631
     31          1           0       -6.421125    0.829552   -0.267715
     32          7           0       -2.283950   -1.169117   -0.753783
     33          8           0       -2.803505   -2.066552   -1.413563
     34          8           0       -1.087609   -1.091532   -0.482885
 ---------------------------------------------------------------------

 SCF Done:  E(RHF) =  -669.536242074     A.U. after   15 cycles
 E2 =    -0.2090768750D+01 EUMP2 =    -0.67162701082489D+03

 The electronic state is 1-A.
 Alpha  occ. eigenvalues --  -20.60949 -20.60936 -15.85989 -11.31289 -11.27852
 Alpha  occ. eigenvalues --  -11.27848 -11.27589 -11.26857 -11.26847 -11.21206
 Alpha  occ. eigenvalues --  -11.20826 -11.20744 -11.20697 -11.20634 -11.19828
 Alpha  occ. eigenvalues --   -1.60007  -1.39565  -1.19457  -1.08865  -1.07777
 Alpha  occ. eigenvalues --   -1.04852  -1.02824  -0.95711  -0.95262  -0.86284
 Alpha  occ. eigenvalues --   -0.86251  -0.82547  -0.78923  -0.77622  -0.77551
 Alpha  occ. eigenvalues --   -0.72217  -0.71321  -0.70567  -0.65116  -0.64855
 Alpha  occ. eigenvalues --   -0.64402  -0.62199  -0.60206  -0.58682  -0.56876
 Alpha  occ. eigenvalues --   -0.55358  -0.54528  -0.53184  -0.52944  -0.51964
 Alpha  occ. eigenvalues --   -0.51691  -0.49232  -0.48968  -0.48917  -0.47224
 Alpha  occ. eigenvalues --   -0.45957  -0.45130  -0.45052  -0.44899  -0.43096
 Alpha  occ. eigenvalues --   -0.37436  -0.36453
 Alpha virt. eigenvalues --    0.04918   0.11203   0.16406   0.21263   0.23477
 Alpha virt. eigenvalues --    0.24981   0.26955   0.27364   0.27845   0.28368
 Alpha virt. eigenvalues --    0.28929   0.30811   0.31882   0.32314   0.32606

 Mulliken charges:
               1
     1  C   -0.298980
     2  C   -0.297845
     3  C   -0.487554
     4  H    0.144703
     5  H    0.153666
     6  H    0.146883
     7  H    0.154370
     8  H    0.182569
     9  H    0.145646
    10  H    0.157876
    11  C   -0.297821
    12  C   -0.299061
    13  C   -0.475296
    14  H    0.147916
    15  H    0.150794
    16  H    0.149534
    17  H    0.151124
    18  H    0.155592
    19  H    0.154599
    20  H    0.158100
    21  C   -0.170584
    22  C   -0.218562
    23  C   -0.170548
    24  C    0.157605
    25  C   -0.170659
    26  C   -0.218590
    27  H    0.226002
    28  H    0.223985
    29  H    0.275876
    30  H    0.275833
    31  H    0.223794
    32  N    0.494583
    33  O   -0.458682
    34  O   -0.466866
 Sum of Mulliken charges =  -0.00000

 Dipole moment (field-independent basis, Debye):
    X=             -3.4031    Y=              3.7468    Z=              1.6877  Tot=              5.3356
 Quadrupole moment (field-independent basis, Debye-Ang):
   XX=            -73.4133   YY=            -95.3785   ZZ=            -95.2085
   XY=            -10.3008   XZ=             -2.4950   YZ=              0.6127

 Normal termination of Gaussian 16 at Wed May  5 17:11:07 2021.
