 Gaussian 16, Revision A.03,
 Gaussian 16:  EM64L-G16RevA.03 25-Dec-2016

 -------------
 #p 6-31g* mp2
 -------------

 ------------------------------------------------------
 Input file generated by CHIRIPA (05-May-2021 14:55:21)
 ------------------------------------------------------
 Symbolic Z-matrix:
 Charge =  0 Multiplicity = 1

                         Standard orientation:
 ---------------------------------------------------------------------
 Center     Atomic      Atomic             Coordinates (Angstroms)
 Number     Number       Type             X           Y           Z
 ---------------------------------------------------------------------
      1          6           0        4.787238   -1.256623    0.097477
      2          6           0        4.193279   -0.850518    1.296982
      3          6           0        3.127316    0.054044    1.290851
      4          6           0        2.678611    0.534661    0.061639
      5          6           0        3.249546    0.149090   -1.150243
      6          6           0        4.314310   -0.756405   -1.120161
      7          1           0        5.614838   -1.959671    0.111543
      8          1           0        4.558482   -1.237351    2.244100
      9          1           0        2.649103    0.385240    2.204656
     10          1           0        2.863581    0.552017   -2.078736
     11          1           0        4.773659   -1.070030   -2.053264
     12          7           0        1.550759    1.492774    0.042471
     13          8           0        1.173950    1.901581   -1.053672
     14          8           0        1.064913    1.816794    1.123952
     15          6           0       -3.039003   -0.849217    0.151455
     16          6           0       -1.814493   -0.575479   -0.722405
     17          6           0       -0.566913   -1.316669   -0.240766
     18          1           0       -2.814955   -0.558536    1.186950
     19          1           0       -3.236234   -1.930089    0.165927
     20          1           0       -1.620460    0.504693   -0.736341
     21          1           0       -2.041548   -0.866667   -1.755978
     22          1           0       -0.736245   -2.398297   -0.243704
     23          1           0       -0.312765   -1.019145    0.781726
     24          1           0        0.296517   -1.106713   -0.879724
     25          6           0       -4.294105   -0.115269   -0.317339
     26          6           0       -5.518614   -0.389005    0.556520
     27          6           0       -6.766195    0.352183    0.074883
     28          1           0       -4.096874    0.965605   -0.331811
     29          1           0       -4.518153   -0.405949   -1.352835
     30          1           0       -5.291559   -0.097818    1.590093
     31          1           0       -5.712647   -1.469177    0.570458
     32          1           0       -7.020343    0.054660   -0.947609
     33          1           0       -6.596862    1.433812    0.077820
     34          1           0       -7.629624    0.142228    0.713841
 ---------------------------------------------------------------------

 SCF Done:  E(RHF) =  -669.535899540     A.U. after   15 cycles
 E2 =    -0.2093485430D+01 EUMP2 =    -0.67162938497030D+03

 The electronic state is 1-A.
 Alpha  occ. eigenvalues --  -20.60934 -20.60921 -15.85925 -11.31224 -11.27786
 Alpha  occ. eigenvalues --  -11.27780 -11.27525 -11.26815 -11.26803 -11.21026
 Alpha  occ. eigenvalues --  -11.20701 -11.20676 -11.20606 -11.20561 -11.20515
 Alpha  occ. eigenvalues --   -1.59970  -1.39530  -1.19403  -1.08812  -1.07720
 Alpha  occ. eigenvalues --   -1.04800  -1.02877  -0.95657  -0.95381  -0.86409
 Alpha  occ. eigenvalues --   -0.86202  -0.82496  -0.78938  -0.77554  -0.77514
 Alpha  occ. eigenvalues --   -0.72165  -0.71314  -0.70515  -0.65062  -0.64808
 Alpha  occ. eigenvalues --   -0.64331  -0.62152  -0.60247  -0.58750  -0.56979
 Alpha  occ. eigenvalues --   -0.55306  -0.54659  -0.53214  -0.52894  -0.52019
 Alpha  occ. eigenvalues --   -0.51802  -0.49319  -0.48935  -0.48925  -0.47262
 Alpha  occ. eigenvalues --   -0.45974  -0.45102  -0.45047  -0.44748  -0.43146
 Alpha  occ. eigenvalues --   -0.37325  -0.36392
 Alpha virt. eigenvalues --    0.04953   0.11150   0.16441   0.21357   0.23556
 Alpha virt. eigenvalues --    0.24791   0.27220   0.27384   0.28083   0.28278
 Alpha virt. eigenvalues --    0.28563   0.30990   0.31450   0.32051   0.32527

 Mulliken charges:
               1
     1  C   -0.170780
     2  C   -0.218115
     3  C   -0.171242
     4  C    0.161309
     5  C   -0.173375
     6  C   -0.217925
     7  H    0.225752
     8  H    0.223658
     9  H    0.275315
    10  H    0.275613
    11  H    0.223698
    12  N    0.492600
    13  O   -0.459630
    14  O   -0.460109
    15  C   -0.298464
    16  C   -0.302448
    17  C   -0.485470
    18  H    0.151787
    19  H    0.144462
    20  H    0.172418
    21  H    0.147800
    22  H    0.151476
    23  H    0.157092
    24  H    0.155757
    25  C   -0.298669
    26  C   -0.299231
    27  C   -0.475462
    28  H    0.154412
    29  H    0.147585
    30  H    0.152141
    31  H    0.149483
    32  H    0.154012
    33  H    0.156315
    34  H    0.158236
 Sum of Mulliken charges =  -0.00000

 Dipole moment (field-independent basis, Debye):
    X=              4.1134    Y=             -3.2027    Z=              0.0881  Tot=              5.2139
 Quadrupole moment (field-independent basis, Debye-Ang):
   XX=            -75.4458   YY=            -98.9464   ZZ=            -89.4845
   XY=             -6.8786   XZ=              0.1028   YZ=              0.0992

 Normal termination of Gaussian 16 at Thu May  6 14:07:47 2021.
