 Gaussian 16, Revision A.03,
 Gaussian 16:  EM64L-G16RevA.03 25-Dec-2016

 -------------
 #p 6-31g* mp2
 -------------

 ------------------------------------------------------
 Input file generated by CHIRIPA (05-May-2021 14:55:20)
 ------------------------------------------------------
 Symbolic Z-matrix:
 Charge =  0 Multiplicity = 1

                         Standard orientation:
 ---------------------------------------------------------------------
 Center     Atomic      Atomic             Coordinates (Angstroms)
 Number     Number       Type             X           Y           Z
 ---------------------------------------------------------------------
      1          6           0       -3.273439    1.481751    1.546589
      2          6           0       -2.093474    1.726789    0.836546
      3          6           0       -1.593161    0.776585   -0.058634
      4          6           0       -2.301511   -0.413154   -0.220041
      5          6           0       -3.479843   -0.686600    0.472817
      6          6           0       -3.961644    0.277961    1.362783
      7          1           0       -3.654903    2.225468    2.239962
      8          1           0       -1.556908    2.660777    0.977284
      9          1           0       -0.682058    0.940424   -0.621187
     10          1           0       -3.992621   -1.627028    0.311351
     11          1           0       -4.878269    0.084950    1.912864
     12          7           0       -1.781651   -1.426692   -1.164968
     13          8           0       -2.424365   -2.466932   -1.289293
     14          8           0       -0.741315   -1.161671   -1.763384
     15          6           0        3.579977   -0.073001    0.479681
     16          6           0        3.246369   -1.556956    0.636426
     17          6           0        4.304788   -2.319802    1.433677
     18          1           0        4.555965    0.026640   -0.014754
     19          1           0        3.686530    0.378893    1.475589
     20          1           0        3.139115   -2.005608   -0.359477
     21          1           0        2.270975   -1.653073    1.130373
     22          1           0        4.407111   -1.899074    2.439221
     23          1           0        5.280183   -2.253611    0.940906
     24          1           0        4.046334   -3.378610    1.533616
     25          6           0        2.531230    0.703044   -0.315058
     26          6           0        2.864838    2.186999   -0.471804
     27          6           0        1.806420    2.949847   -1.269055
     28          1           0        2.424678    0.251150   -1.310967
     29          1           0        1.555243    0.603403    0.179377
     30          1           0        3.840233    2.283117   -0.965750
     31          1           0        2.972092    2.635652    0.524100
     32          1           0        0.831024    2.883655   -0.776283
     33          1           0        1.704097    2.529117   -2.274598
     34          1           0        2.064873    4.008654   -1.368993
 ---------------------------------------------------------------------

 SCF Done:  E(RHF) =  -669.535050510     A.U. after   15 cycles
 E2 =    -0.2092974071D+01 EUMP2 =    -0.67162802458120D+03

 The electronic state is 1-A.
 Alpha  occ. eigenvalues --  -20.60756 -20.60747 -15.85802 -11.31156 -11.27742
 Alpha  occ. eigenvalues --  -11.27664 -11.27490 -11.26761 -11.26747 -11.21795
 Alpha  occ. eigenvalues --  -11.21576 -11.21305 -11.21238 -11.21182 -11.20768
 Alpha  occ. eigenvalues --   -1.59825  -1.39378  -1.19339  -1.08737  -1.08366
 Alpha  occ. eigenvalues --   -1.04746  -1.03515  -0.95988  -0.95572  -0.87013
 Alpha  occ. eigenvalues --   -0.86143  -0.82406  -0.79587  -0.78168  -0.77402
 Alpha  occ. eigenvalues --   -0.72021  -0.71146  -0.70460  -0.65086  -0.64969
 Alpha  occ. eigenvalues --   -0.64713  -0.62144  -0.60877  -0.59363  -0.57571
 Alpha  occ. eigenvalues --   -0.55312  -0.55244  -0.53077  -0.52861  -0.52679
 Alpha  occ. eigenvalues --   -0.52416  -0.49963  -0.48784  -0.48776  -0.47866
 Alpha  occ. eigenvalues --   -0.46587  -0.45678  -0.45537  -0.44757  -0.43734
 Alpha  occ. eigenvalues --   -0.37324  -0.36336
 Alpha virt. eigenvalues --    0.05047   0.11237   0.16555   0.19782   0.23172
 Alpha virt. eigenvalues --    0.23947   0.25846   0.27078   0.27429   0.28076
 Alpha virt. eigenvalues --    0.29022   0.30260   0.31570   0.31956   0.32532

 Mulliken charges:
               1
     1  C   -0.170441
     2  C   -0.223302
     3  C   -0.178692
     4  C    0.157937
     5  C   -0.170335
     6  C   -0.218886
     7  H    0.225546
     8  H    0.224153
     9  H    0.288384
    10  H    0.275465
    11  H    0.223419
    12  N    0.488079
    13  O   -0.460626
    14  O   -0.460626
    15  C   -0.298603
    16  C   -0.299408
    17  C   -0.476077
    18  H    0.149819
    19  H    0.146245
    20  H    0.160466
    21  H    0.151650
    22  H    0.152468
    23  H    0.154493
    24  H    0.161689
    25  C   -0.302788
    26  C   -0.299903
    27  C   -0.478420
    28  H    0.163823
    29  H    0.143349
    30  H    0.155132
    31  H    0.149338
    32  H    0.140178
    33  H    0.164030
    34  H    0.162446
 Sum of Mulliken charges =  -0.00000

 Dipole moment (field-independent basis, Debye):
    X=             -1.7344    Y=              3.4547    Z=              3.1806  Tot=              5.0059
 Quadrupole moment (field-independent basis, Debye-Ang):
   XX=            -83.5998   YY=            -96.9523   ZZ=            -96.1951
   XY=             -4.6115   XZ=             -9.7220   YZ=             -2.3449

 Normal termination of Gaussian 16 at Thu May  6 02:58:02 2021.
