 Gaussian 16, Revision A.03,
 Gaussian 16:  EM64L-G16RevA.03 25-Dec-2016

 -------------
 #p 6-31g* mp2
 -------------

 ------------------------------------------------------
 Input file generated by CHIRIPA (05-May-2021 14:57:23)
 ------------------------------------------------------
 Symbolic Z-matrix:
 Charge =  0 Multiplicity = 1

                         Standard orientation:
 ---------------------------------------------------------------------
 Center     Atomic      Atomic             Coordinates (Angstroms)
 Number     Number       Type             X           Y           Z
 ---------------------------------------------------------------------
      1          6           0       -0.979394   -1.847274   -1.534010
      2          6           0       -2.135832   -2.349669   -0.928394
      3          6           0       -2.983515   -1.504527   -0.206095
      4          6           0       -2.642747   -0.156276   -0.109203
      5          6           0       -1.497654    0.374282   -0.701286
      6          6           0       -0.664551   -0.489296   -1.418726
      7          1           0       -0.326557   -2.510961   -2.093222
      8          1           0       -2.382848   -3.403855   -1.016264
      9          1           0       -3.885051   -1.866986    0.272730
     10          1           0       -1.277810    1.429763   -0.596182
     11          1           0        0.232898   -0.096353   -1.888009
     12          7           0       -3.532433    0.748197    0.652891
     13          8           0       -3.209933    1.932109    0.723468
     14          8           0       -4.535423    0.256083    1.165212
     15          6           0        1.871025    2.423989   -0.984427
     16          6           0        1.520637    2.260579    0.359838
     17          6           0        1.861801    1.090875    1.045365
     18          6           0        2.556547    0.100522    0.352677
     19          6           0        2.919805    0.233695   -0.986577
     20          6           0        2.568261    1.411811   -1.652166
     21          1           0        1.601969    3.335910   -1.509217
     22          1           0        0.979148    3.044977    0.880947
     23          1           0        1.603035    0.938219    2.086112
     24          1           0        3.459518   -0.565876   -1.479339
     25          1           0        2.841686    1.535975   -2.696133
     26          7           0        2.923216   -1.142244    1.067860
     27          8           0        3.535348   -1.999849    0.435054
     28          8           0        2.591536   -1.235186    2.247685
 ---------------------------------------------------------------------

 SCF Done:  E(RHF) =  -868.336959208     A.U. after   16 cycles
 E2 =    -0.2604643483D+01 EUMP2 =    -0.87094160269102D+03

 The electronic state is 1-A.
 Alpha  occ. eigenvalues --  -20.61464 -20.61431 -20.60901 -20.60864 -15.86508
 Alpha  occ. eigenvalues --  -15.85929 -11.32038 -11.31123 -11.28671 -11.28564
 Alpha  occ. eigenvalues --  -11.28407 -11.27723 -11.27648 -11.27640 -11.27583
 Alpha  occ. eigenvalues --  -11.27340 -11.26634 -11.26492  -1.60520  -1.59959
 Alpha  occ. eigenvalues --   -1.40070  -1.39520  -1.20286  -1.19266  -1.09620
 Alpha  occ. eigenvalues --   -1.08696  -1.05689  -1.04642  -0.96411  -0.95563
 Alpha  occ. eigenvalues --   -0.87043  -0.86058  -0.83223  -0.82404  -0.78241
 Alpha  occ. eigenvalues --   -0.77493  -0.72721  -0.72156  -0.71847  -0.71312
 Alpha  occ. eigenvalues --   -0.71278  -0.70392  -0.65887  -0.65618  -0.64918
 Alpha  occ. eigenvalues --   -0.64695  -0.62975  -0.62109  -0.56123  -0.55257
 Alpha  occ. eigenvalues --   -0.54103  -0.53705  -0.52927  -0.52492  -0.49495
 Alpha  occ. eigenvalues --   -0.49466  -0.48923  -0.48883  -0.45438  -0.44964
 Alpha  occ. eigenvalues --   -0.38360  -0.37472  -0.37078  -0.36086
 Alpha virt. eigenvalues --    0.04193   0.05091   0.10185   0.11385   0.15687
 Alpha virt. eigenvalues --    0.16570   0.20523   0.21946   0.26277   0.27493
 Alpha virt. eigenvalues --    0.27938   0.28620   0.30356   0.31405   0.31894

 Mulliken charges:
               1
     1  C   -0.173376
     2  C   -0.217065
     3  C   -0.171079
     4  C    0.158516
     5  C   -0.174633
     6  C   -0.223192
     7  H    0.227021
     8  H    0.224668
     9  H    0.275393
    10  H    0.267912
    11  H    0.229129
    12  N    0.488627
    13  O   -0.466667
    14  O   -0.458674
    15  C   -0.175738
    16  C   -0.224288
    17  C   -0.166481
    18  C    0.166548
    19  C   -0.180697
    20  C   -0.229539
    21  H    0.231778
    22  H    0.235664
    23  H    0.282235
    24  H    0.276351
    25  H    0.226634
    26  N    0.488071
    27  O   -0.461931
    28  O   -0.455189
 Sum of Mulliken charges =  -0.00000

 Dipole moment (field-independent basis, Debye):
    X=              2.0808    Y=              1.2104    Z=             -4.9721  Tot=              5.5242
 Quadrupole moment (field-independent basis, Debye-Ang):
   XX=           -126.3814   YY=            -99.6979   ZZ=           -103.1941
   XY=             21.4024   XZ=             -2.6765   YZ=              2.9649

 Normal termination of Gaussian 16 at Thu May  6 16:15:48 2021.
