 Gaussian 16, Revision A.03,
 Gaussian 16:  EM64L-G16RevA.03 25-Dec-2016

 -------------
 #p 6-31g* mp2
 -------------

 ------------------------------------------------------
 Input file generated by CHIRIPA (05-May-2021 14:51:13)
 ------------------------------------------------------
 Symbolic Z-matrix:
 Charge =  0 Multiplicity = 1

                         Standard orientation:
 ---------------------------------------------------------------------
 Center     Atomic      Atomic             Coordinates (Angstroms)
 Number     Number       Type             X           Y           Z
 ---------------------------------------------------------------------
      1          6           0       -3.395941   -0.770864   -0.291159
      2          6           0       -1.998509   -1.384948   -0.380990
      3          6           0       -2.028833   -2.877708   -0.710447
      4          1           0       -3.975732   -1.304986    0.474021
      5          1           0       -3.919138   -0.926266   -1.244842
      6          1           0       -1.477601   -1.227219    0.572106
      7          1           0       -1.421914   -0.849178   -1.145912
      8          1           0       -2.524802   -3.050197   -1.671105
      9          1           0       -2.580805   -3.430386    0.056674
     10          1           0       -1.019328   -3.296315   -0.769838
     11          6           0       -3.382126    0.720942    0.037553
     12          6           0       -4.779558    1.335026    0.127383
     13          6           0       -4.749234    2.827786    0.456840
     14          1           0       -2.858928    0.876344    0.991235
     15          1           0       -2.802334    1.255064   -0.727628
     16          1           0       -5.356153    0.799256    0.892305
     17          1           0       -5.300466    1.177297   -0.825713
     18          1           0       -4.197262    3.380464   -0.310281
     19          1           0       -4.253264    3.000275    1.417498
     20          1           0       -5.758739    3.246393    0.516231
     21          6           0        3.963190    0.442232   -0.155440
     22          6           0        3.764489    1.947556    0.024849
     23          6           0        4.921431    2.768970   -0.544850
     24          1           0        4.901870    0.141986    0.330025
     25          1           0        4.079702    0.220354   -1.225295
     26          1           0        3.647004    2.166359    1.093933
     27          1           0        2.826076    2.244221   -0.460935
     28          1           0        5.036844    2.579887   -1.617011
     29          1           0        5.862436    2.501581   -0.053307
     30          1           0        4.758751    3.842234   -0.405215
     31          6           0        2.814877   -0.392310    0.409046
     32          6           0        3.013577   -1.897634    0.228757
     33          6           0        1.856635   -2.719048    0.798457
     34          1           0        2.698365   -0.170432    1.478901
     35          1           0        1.876196   -0.092064   -0.076418
     36          1           0        3.951990   -2.194299    0.714543
     37          1           0        3.131063   -2.116437   -0.840326
     38          1           0        0.915630   -2.451660    0.306915
     39          1           0        1.741222   -2.529965    1.870617
     40          1           0        2.019315   -3.792313    0.658821
 ---------------------------------------------------------------------

 SCF Done:  E(RHF) =  -470.733061906     A.U. after   11 cycles
 E2 =    -0.1582967767D+01 EUMP2 =    -0.47231602967288D+03

 The electronic state is 1-A.
 Alpha  occ. eigenvalues --  -11.21627 -11.21609 -11.21588 -11.21578 -11.21420
 Alpha  occ. eigenvalues --  -11.21384 -11.21360 -11.21324 -11.21076 -11.21062
 Alpha  occ. eigenvalues --  -11.21050 -11.21013  -1.08450  -1.08406  -1.03570
 Alpha  occ. eigenvalues --   -1.03488  -0.96034  -0.95920  -0.87042  -0.86943
 Alpha  occ. eigenvalues --   -0.79621  -0.79566  -0.78285  -0.78197  -0.65080
 Alpha  occ. eigenvalues --   -0.65041  -0.60999  -0.60904  -0.59399  -0.59312
 Alpha  occ. eigenvalues --   -0.57762  -0.57450  -0.55301  -0.55194  -0.52773
 Alpha  occ. eigenvalues --   -0.52619  -0.52497  -0.52244  -0.49925  -0.49860
 Alpha  occ. eigenvalues --   -0.47932  -0.47877  -0.46659  -0.46572  -0.45874
 Alpha  occ. eigenvalues --   -0.45751  -0.45702  -0.45620  -0.43818  -0.43741
 Alpha virt. eigenvalues --    0.21494   0.23086   0.23445   0.25016   0.26219
 Alpha virt. eigenvalues --    0.26514   0.27084   0.27122   0.28141   0.29062
 Alpha virt. eigenvalues --    0.30943   0.31350   0.31437   0.31771   0.31961

 Mulliken charges:
               1
     1  C   -0.298236
     2  C   -0.302207
     3  C   -0.480072
     4  H    0.149986
     5  H    0.149594
     6  H    0.154139
     7  H    0.151037
     8  H    0.155201
     9  H    0.155727
    10  H    0.164106
    11  C   -0.298372
    12  C   -0.299688
    13  C   -0.475709
    14  H    0.149868
    15  H    0.149376
    16  H    0.152019
    17  H    0.151914
    18  H    0.155133
    19  H    0.155275
    20  H    0.160282
    21  C   -0.298278
    22  C   -0.299623
    23  C   -0.475695
    24  H    0.149608
    25  H    0.149392
    26  H    0.151896
    27  H    0.152001
    28  H    0.155110
    29  H    0.155152
    30  H    0.160223
    31  C   -0.299175
    32  C   -0.299082
    33  C   -0.485571
    34  H    0.149243
    35  H    0.150853
    36  H    0.151775
    37  H    0.151567
    38  H    0.166778
    39  H    0.154748
    40  H    0.159701
 Sum of Mulliken charges =  -0.00000

 Dipole moment (field-independent basis, Debye):
    X=             -0.0241    Y=             -0.0020    Z=              0.0068  Tot=              0.0251
 Quadrupole moment (field-independent basis, Debye-Ang):
   XX=            -85.2361   YY=            -86.4652   ZZ=            -83.1426
   XY=             -0.3704   XZ=              0.6721   YZ=             -0.2464

 Normal termination of Gaussian 16 at Wed May  5 19:57:47 2021.
