 Gaussian 16, Revision A.03,
 Gaussian 16:  EM64L-G16RevA.03 25-Dec-2016

 -------------
 #p 6-31g* mp2
 -------------

 ------------------------------------------------------
 Input file generated by CHIRIPA (05-May-2021 14:55:25)
 ------------------------------------------------------
 Symbolic Z-matrix:
 Charge =  0 Multiplicity = 1

                         Standard orientation:
 ---------------------------------------------------------------------
 Center     Atomic      Atomic             Coordinates (Angstroms)
 Number     Number       Type             X           Y           Z
 ---------------------------------------------------------------------
      1          6           0       -0.584394    0.358164    0.589711
      2          6           0       -1.549941    1.200849    1.150177
      3          6           0       -2.906251    1.013128    0.867806
      4          6           0       -3.263233   -0.031845    0.016992
      5          6           0       -2.324846   -0.888227   -0.556880
      6          6           0       -0.974241   -0.681851   -0.260530
      7          1           0        0.467004    0.511236    0.814493
      8          1           0       -1.250088    2.009350    1.810828
      9          1           0       -3.674579    1.650688    1.288054
     10          1           0       -2.654386   -1.685624   -1.211846
     11          1           0       -0.226568   -1.337844   -0.697226
     12          7           0       -4.696077   -0.240451   -0.289341
     13          8           0       -4.984717   -1.168299   -1.041952
     14          8           0       -5.503370    0.527841    0.228966
     15          6           0        3.512714    0.664713   -0.007283
     16          6           0        4.252569    1.835697   -0.654889
     17          6           0        3.515999    3.165165   -0.488226
     18          1           0        2.508302    0.586491   -0.445443
     19          1           0        3.371777    0.875350    1.061905
     20          1           0        4.393291    1.622296   -1.722257
     21          1           0        5.255405    1.911021   -0.215274
     22          1           0        3.388480    3.404598    0.572439
     23          1           0        2.521468    3.114234   -0.943106
     24          1           0        4.062434    3.988587   -0.958591
     25          6           0        4.236617   -0.671204   -0.165464
     26          6           0        3.496763   -1.842189    0.482142
     27          6           0        4.233332   -3.171656    0.315479
     28          1           0        4.377554   -0.881841   -1.234652
     29          1           0        5.241029   -0.592983    0.272695
     30          1           0        2.493926   -1.917512    0.042527
     31          1           0        3.356040   -1.628788    1.549509
     32          1           0        5.227863   -3.120726    0.770359
     33          1           0        4.360851   -3.411090   -0.745187
     34          1           0        3.686897   -3.995079    0.785844
 ---------------------------------------------------------------------

 SCF Done:  E(RHF) =  -669.535582921     A.U. after   15 cycles
 E2 =    -0.2091958378D+01 EUMP2 =    -0.67162754129868D+03

 The electronic state is 1-A.
 Alpha  occ. eigenvalues --  -20.60705 -20.60700 -15.85759 -11.31106 -11.27683
 Alpha  occ. eigenvalues --  -11.27676 -11.27331 -11.26680 -11.26662 -11.22748
 Alpha  occ. eigenvalues --  -11.22674 -11.22560 -11.22437 -11.21965 -11.21939
 Alpha  occ. eigenvalues --   -1.59782  -1.39335  -1.19275  -1.09543  -1.08663
 Alpha  occ. eigenvalues --   -1.04680  -1.04533  -0.96975  -0.95504  -0.87986
 Alpha  occ. eigenvalues --   -0.86075  -0.82346  -0.80609  -0.79418  -0.77398
 Alpha  occ. eigenvalues --   -0.71976  -0.71105  -0.70368  -0.66171  -0.64921
 Alpha  occ. eigenvalues --   -0.64679  -0.62052  -0.61903  -0.60341  -0.58609
 Alpha  occ. eigenvalues --   -0.56267  -0.55177  -0.53622  -0.53375  -0.53004
 Alpha  occ. eigenvalues --   -0.52772  -0.50906  -0.48921  -0.48733  -0.48726
 Alpha  occ. eigenvalues --   -0.47643  -0.46882  -0.46838  -0.44818  -0.44745
 Alpha  occ. eigenvalues --   -0.37236  -0.36291
 Alpha virt. eigenvalues --    0.05127   0.11340   0.16576   0.18945   0.22585
 Alpha virt. eigenvalues --    0.22970   0.24708   0.25410   0.27015   0.27459
 Alpha virt. eigenvalues --    0.29526   0.30280   0.30806   0.31254   0.31488

 Mulliken charges:
               1
     1  C   -0.176891
     2  C   -0.220205
     3  C   -0.170782
     4  C    0.158262
     5  C   -0.170969
     6  C   -0.223698
     7  H    0.236157
     8  H    0.223527
     9  H    0.275240
    10  H    0.275322
    11  H    0.224899
    12  N    0.488046
    13  O   -0.460743
    14  O   -0.460659
    15  C   -0.305559
    16  C   -0.299242
    17  C   -0.477929
    18  H    0.145179
    19  H    0.147892
    20  H    0.155423
    21  H    0.155628
    22  H    0.153834
    23  H    0.155447
    24  H    0.165126
    25  C   -0.298054
    26  C   -0.302342
    27  C   -0.476285
    28  H    0.152735
    29  H    0.154389
    30  H    0.144046
    31  H    0.153356
    32  H    0.158608
    33  H    0.157191
    34  H    0.163049
 Sum of Mulliken charges =  -0.00000

 Dipole moment (field-independent basis, Debye):
    X=              5.3737    Y=              0.7411    Z=              1.0569  Tot=              5.5266
 Quadrupole moment (field-independent basis, Debye-Ang):
   XX=           -126.7215   YY=            -92.6803   ZZ=            -92.7779
   XY=             -3.2034   XZ=             -3.9330   YZ=              2.6226

 Normal termination of Gaussian 16 at Wed May  5 20:48:57 2021.
