 Gaussian 16, Revision A.03,
 Gaussian 16:  EM64L-G16RevA.03 25-Dec-2016

 -------------
 #p 6-31g* mp2
 -------------

 ------------------------------------------------------
 Input file generated by CHIRIPA (05-May-2021 14:55:24)
 ------------------------------------------------------
 Symbolic Z-matrix:
 Charge =  0 Multiplicity = 1

                         Standard orientation:
 ---------------------------------------------------------------------
 Center     Atomic      Atomic             Coordinates (Angstroms)
 Number     Number       Type             X           Y           Z
 ---------------------------------------------------------------------
      1          6           0       -5.284718   -0.752625    0.084532
      2          6           0       -4.914309    0.508481    0.562999
      3          6           0       -3.580166    0.923283    0.512513
      4          6           0       -2.638240    0.047611   -0.025321
      5          6           0       -2.976036   -1.215020   -0.510034
      6          6           0       -4.316107   -1.608841   -0.449516
      7          1           0       -6.323415   -1.066704    0.127648
      8          1           0       -5.664407    1.175520    0.978279
      9          1           0       -3.265832    1.894154    0.875862
     10          1           0       -2.205764   -1.857930   -0.918404
     11          1           0       -4.600881   -2.588802   -0.821839
     12          7           0       -1.222705    0.475637   -0.084078
     13          8           0       -0.411895   -0.314428   -0.562641
     14          8           0       -0.950821    1.593085    0.349542
     15          6           0        3.950898   -0.551061    0.433228
     16          6           0        3.878843   -1.897089   -0.288576
     17          6           0        4.433367   -3.048452    0.550866
     18          1           0        4.995478   -0.341377    0.701239
     19          1           0        3.393482   -0.619065    1.377716
     20          1           0        4.435067   -1.826150   -1.232079
     21          1           0        2.834339   -2.103503   -0.555069
     22          1           0        3.873133   -3.147923    1.486197
     23          1           0        5.482957   -2.868994    0.805341
     24          1           0        4.372133   -4.001220    0.015757
     25          6           0        3.400239    0.609769   -0.393198
     26          6           0        3.472294    1.955798    0.328606
     27          6           0        2.917769    3.107160   -0.510836
     28          1           0        3.957655    0.677774   -1.337685
     29          1           0        2.355659    0.400085   -0.661209
     30          1           0        4.516799    2.162212    0.595099
     31          1           0        2.916069    1.884859    1.272109
     32          1           0        1.868180    2.927702   -0.765311
     33          1           0        3.478004    3.206632   -1.446166
     34          1           0        2.979003    4.059929    0.024273
 ---------------------------------------------------------------------

 SCF Done:  E(RHF) =  -669.537208173     A.U. after   15 cycles
 E2 =    -0.2091876445D+01 EUMP2 =    -0.67162908461819D+03

 The electronic state is 1-A.
 Alpha  occ. eigenvalues --  -20.61228 -20.61221 -15.86216 -11.31447 -11.27993
 Alpha  occ. eigenvalues --  -11.27989 -11.27713 -11.26977 -11.26967 -11.20373
 Alpha  occ. eigenvalues --  -11.20154 -11.19961 -11.19935 -11.19458 -11.19383
 Alpha  occ. eigenvalues --   -1.60257  -1.39816  -1.19601  -1.09024  -1.06889
 Alpha  occ. eigenvalues --   -1.04981  -1.02096  -0.95879  -0.94553  -0.86386
 Alpha  occ. eigenvalues --   -0.85579  -0.82717  -0.78195  -0.77782  -0.76659
 Alpha  occ. eigenvalues --   -0.72428  -0.71556  -0.70708  -0.65257  -0.64985
 Alpha  occ. eigenvalues --   -0.63500  -0.62328  -0.59481  -0.57969  -0.56169
 Alpha  occ. eigenvalues --   -0.55489  -0.53825  -0.53318  -0.53070  -0.51320
 Alpha  occ. eigenvalues --   -0.50996  -0.49263  -0.49195  -0.48431  -0.46512
 Alpha  occ. eigenvalues --   -0.45256  -0.45199  -0.44239  -0.43947  -0.42315
 Alpha  occ. eigenvalues --   -0.37575  -0.36577
 Alpha virt. eigenvalues --    0.04741   0.11080   0.16260   0.21212   0.24354
 Alpha virt. eigenvalues --    0.25714   0.27152   0.27919   0.28314   0.29125
 Alpha virt. eigenvalues --    0.29343   0.30838   0.32317   0.32751   0.32938

 Mulliken charges:
               1
     1  C   -0.170219
     2  C   -0.218623
     3  C   -0.170425
     4  C    0.157611
     5  C   -0.170510
     6  C   -0.218576
     7  H    0.226590
     8  H    0.224394
     9  H    0.276261
    10  H    0.276044
    11  H    0.224409
    12  N    0.489828
    13  O   -0.459577
    14  O   -0.458729
    15  C   -0.295376
    16  C   -0.300702
    17  C   -0.474679
    18  H    0.142883
    19  H    0.148382
    20  H    0.148043
    21  H    0.159108
    22  H    0.153122
    23  H    0.152452
    24  H    0.155454
    25  C   -0.312998
    26  C   -0.295351
    27  C   -0.479656
    28  H    0.140368
    29  H    0.182365
    30  H    0.142621
    31  H    0.153800
    32  H    0.171897
    33  H    0.147151
    34  H    0.152638
 Sum of Mulliken charges =  -0.00000

 Dipole moment (field-independent basis, Debye):
    X=             -5.5948    Y=             -1.5195    Z=              0.1790  Tot=              5.8002
 Quadrupole moment (field-independent basis, Debye-Ang):
   XX=            -69.8881   YY=            -92.9362   ZZ=            -94.8905
   XY=              2.9728   XZ=             -1.6690   YZ=              2.7420

 Normal termination of Gaussian 16 at Thu May  6 19:19:47 2021.
