 Gaussian 16, Revision A.03,
 Gaussian 16:  EM64L-G16RevA.03 25-Dec-2016

 -------------
 #p 6-31g* mp2
 -------------

 ------------------------------------------------------
 Input file generated by CHIRIPA (05-May-2021 14:55:20)
 ------------------------------------------------------
 Symbolic Z-matrix:
 Charge =  0 Multiplicity = 1

                         Standard orientation:
 ---------------------------------------------------------------------
 Center     Atomic      Atomic             Coordinates (Angstroms)
 Number     Number       Type             X           Y           Z
 ---------------------------------------------------------------------
      1          6           0       -4.389323    2.423869    0.144633
      2          6           0       -3.056081    2.299833   -0.259844
      3          6           0       -2.461708    1.039174   -0.369422
      4          6           0       -3.233320   -0.081295   -0.065360
      5          6           0       -4.563924    0.009623    0.340246
      6          6           0       -5.137670    1.280384    0.442861
      7          1           0       -4.843035    3.407103    0.227051
      8          1           0       -2.472499    3.186139   -0.492093
      9          1           0       -1.431553    0.914330   -0.680247
     10          1           0       -5.120314   -0.892225    0.565009
     11          1           0       -6.173293    1.373691    0.757225
     12          7           0       -2.615002   -1.421246   -0.177680
     13          8           0       -3.316197   -2.392901    0.095902
     14          8           0       -1.440876   -1.474471   -0.537171
     15          6           0        4.825611    0.239206    0.374829
     16          6           0        5.176540    1.489079   -0.433040
     17          6           0        6.291557    2.314608    0.209638
     18          1           0        4.524982    0.537935    1.388401
     19          1           0        5.725355   -0.381695    0.485901
     20          1           0        4.276080    2.106764   -0.543735
     21          1           0        5.476185    1.187354   -1.444865
     22          1           0        7.205333    1.719275    0.305500
     23          1           0        5.998410    2.643909    1.211750
     24          1           0        6.526427    3.203359   -0.384346
     25          6           0        3.712567   -0.596441   -0.254898
     26          6           0        3.361638   -1.846314    0.552971
     27          6           0        2.246622   -2.671843   -0.089707
     28          1           0        2.812824    0.024461   -0.365970
     29          1           0        4.013197   -0.895169   -1.268470
     30          1           0        3.061993   -1.544589    1.564796
     31          1           0        4.262098   -2.463999    0.663667
     32          1           0        2.539767   -3.001143   -1.091819
     33          1           0        1.332844   -2.076509   -0.185569
     34          1           0        2.011750   -3.560594    0.504278
 ---------------------------------------------------------------------

 SCF Done:  E(RHF) =  -669.535947942     A.U. after   15 cycles
 E2 =    -0.2090757574D+01 EUMP2 =    -0.67162670551654D+03

 The electronic state is 1-A.
 Alpha  occ. eigenvalues --  -20.60917 -20.60907 -15.85960 -11.31289 -11.27858
 Alpha  occ. eigenvalues --  -11.27850 -11.27592 -11.26865 -11.26855 -11.21375
 Alpha  occ. eigenvalues --  -11.21001 -11.20912 -11.20821 -11.20743 -11.19701
 Alpha  occ. eigenvalues --   -1.59979  -1.39536  -1.19459  -1.08860  -1.07923
 Alpha  occ. eigenvalues --   -1.04858  -1.02924  -0.95703  -0.95340  -0.86353
 Alpha  occ. eigenvalues --   -0.86256  -0.82537  -0.79021  -0.77707  -0.77580
 Alpha  occ. eigenvalues --   -0.72184  -0.71296  -0.70569  -0.65116  -0.64861
 Alpha  occ. eigenvalues --   -0.64564  -0.62206  -0.60320  -0.58786  -0.56950
 Alpha  occ. eigenvalues --   -0.55361  -0.54618  -0.53188  -0.52950  -0.52021
 Alpha  occ. eigenvalues --   -0.51756  -0.49316  -0.48935  -0.48892  -0.47304
 Alpha  occ. eigenvalues --   -0.46075  -0.45236  -0.45174  -0.44895  -0.43192
 Alpha  occ. eigenvalues --   -0.37438  -0.36460
 Alpha virt. eigenvalues --    0.04934   0.11195   0.16419   0.21256   0.23289
 Alpha virt. eigenvalues --    0.24913   0.26812   0.27335   0.27763   0.28313
 Alpha virt. eigenvalues --    0.28866   0.30792   0.31857   0.32186   0.32539

 Mulliken charges:
               1
     1  C   -0.170660
     2  C   -0.218494
     3  C   -0.170623
     4  C    0.157623
     5  C   -0.170634
     6  C   -0.218548
     7  H    0.225989
     8  H    0.223808
     9  H    0.275109
    10  H    0.275920
    11  H    0.223818
    12  N    0.494259
    13  O   -0.458776
    14  O   -0.465788
    15  C   -0.297722
    16  C   -0.298570
    17  C   -0.475303
    18  H    0.148092
    19  H    0.149332
    20  H    0.148491
    21  H    0.151965
    22  H    0.155565
    23  H    0.154189
    24  H    0.158553
    25  C   -0.296435
    26  C   -0.299729
    27  C   -0.483561
    28  H    0.146434
    29  H    0.149110
    30  H    0.149047
    31  H    0.148117
    32  H    0.150589
    33  H    0.179664
    34  H    0.159169
 Sum of Mulliken charges =  -0.00000

 Dipole moment (field-independent basis, Debye):
    X=             -2.4502    Y=              4.6764    Z=              0.3772  Tot=              5.2929
 Quadrupole moment (field-independent basis, Debye-Ang):
   XX=            -77.9728   YY=            -95.4328   ZZ=            -95.1741
   XY=            -14.1837   XZ=             -3.3796   YZ=             -0.9613

 Normal termination of Gaussian 16 at Thu May  6 09:16:08 2021.
