 Gaussian 16, Revision A.03,
 Gaussian 16:  EM64L-G16RevA.03 25-Dec-2016

 -------------
 #p 6-31g* mp2
 -------------

 ------------------------------------------------------
 Input file generated by CHIRIPA (05-May-2021 14:53:18)
 ------------------------------------------------------
 Symbolic Z-matrix:
 Charge =  0 Multiplicity = 1

                         Standard orientation:
 ---------------------------------------------------------------------
 Center     Atomic      Atomic             Coordinates (Angstroms)
 Number     Number       Type             X           Y           Z
 ---------------------------------------------------------------------
      1          6           0        3.742724    0.085500   -0.462362
      2          6           0        4.643122   -0.931359    0.239967
      3          6           0        5.250338   -1.949533   -0.725644
      4          1           0        2.939020   -0.447669   -0.988418
      5          1           0        4.325257    0.610717   -1.231906
      6          1           0        4.059427   -1.453531    1.008896
      7          1           0        5.444666   -0.395695    0.764570
      8          1           0        5.855994   -1.445802   -1.485932
      9          1           0        4.462884   -2.509649   -1.240218
     10          1           0        5.890379   -2.666840   -0.202501
     11          6           0        3.128288    1.110018    0.489772
     12          6           0        2.227890    2.126877   -0.212557
     13          6           0        1.620674    3.145052    0.753054
     14          1           0        2.545755    0.584801    1.259316
     15          1           0        3.931992    1.643188    1.015828
     16          1           0        1.426346    1.591213   -0.737160
     17          1           0        2.811586    2.649050   -0.981486
     18          1           0        2.408129    3.705168    1.267628
     19          1           0        1.015019    2.641321    1.513342
     20          1           0        0.980633    3.862358    0.229911
     21          6           0       -0.837400   -2.126692    0.438132
     22          6           0       -0.524539   -0.807576    0.093784
     23          6           0       -1.539530    0.120543   -0.157088
     24          6           0       -2.862510   -0.306547   -0.054099
     25          6           0       -3.206237   -1.613778    0.286911
     26          6           0       -2.174893   -2.524880    0.533428
     27          1           0       -0.042580   -2.841067    0.631323
     28          1           0        0.513287   -0.495530    0.019032
     29          1           0       -1.325572    1.147966   -0.425497
     30          1           0       -4.250146   -1.895250    0.353589
     31          1           0       -2.420825   -3.548671    0.800660
     32          7           0       -3.945692    0.667004   -0.317381
     33          8           0       -5.103344    0.265754   -0.220030
     34          8           0       -3.616527    1.812888   -0.616107
 ---------------------------------------------------------------------

 SCF Done:  E(RHF) =  -669.535012144     A.U. after   15 cycles
 E2 =    -0.2092842722D+01 EUMP2 =    -0.67162785486588D+03

 The electronic state is 1-A.
 Alpha  occ. eigenvalues --  -20.60741 -20.60735 -15.85793 -11.31160 -11.27736
 Alpha  occ. eigenvalues --  -11.27716 -11.27474 -11.26750 -11.26692 -11.22567
 Alpha  occ. eigenvalues --  -11.22495 -11.22407 -11.22348 -11.21837 -11.21720
 Alpha  occ. eigenvalues --   -1.59816  -1.39369  -1.19333  -1.09412  -1.08727
 Alpha  occ. eigenvalues --   -1.04748  -1.04389  -0.96822  -0.95563  -0.87827
 Alpha  occ. eigenvalues --   -0.86137  -0.82404  -0.80459  -0.79212  -0.77451
 Alpha  occ. eigenvalues --   -0.72012  -0.71138  -0.70450  -0.66285  -0.64987
 Alpha  occ. eigenvalues --   -0.64623  -0.62282  -0.61555  -0.60172  -0.58423
 Alpha  occ. eigenvalues --   -0.56135  -0.55234  -0.53469  -0.53220  -0.53066
 Alpha  occ. eigenvalues --   -0.52811  -0.50757  -0.48779  -0.48769  -0.48741
 Alpha  occ. eigenvalues --   -0.47532  -0.46723  -0.46688  -0.44774  -0.44665
 Alpha  occ. eigenvalues --   -0.37316  -0.36336
 Alpha virt. eigenvalues --    0.05081   0.11270   0.16526   0.18465   0.22514
 Alpha virt. eigenvalues --    0.23519   0.25338   0.25876   0.26490   0.28494
 Alpha virt. eigenvalues --    0.29553   0.30616   0.31067   0.31188   0.32170

 Mulliken charges:
               1
     1  C   -0.301682
     2  C   -0.299535
     3  C   -0.476044
     4  H    0.143450
     5  H    0.155545
     6  H    0.148121
     7  H    0.156019
     8  H    0.158310
     9  H    0.153500
    10  H    0.162626
    11  C   -0.304443
    12  C   -0.304466
    13  C   -0.478665
    14  H    0.145677
    15  H    0.157201
    16  H    0.143244
    17  H    0.158878
    18  H    0.159167
    19  H    0.155976
    20  H    0.167190
    21  C   -0.173073
    22  C   -0.229210
    23  C   -0.176425
    24  C    0.159424
    25  C   -0.170942
    26  C   -0.218491
    27  H    0.225529
    28  H    0.238944
    29  H    0.278110
    30  H    0.275533
    31  H    0.223317
    32  N    0.488236
    33  O   -0.460653
    34  O   -0.460367
 Sum of Mulliken charges =  -0.00000

 Dipole moment (field-independent basis, Debye):
    X=              4.0428    Y=             -3.2844    Z=              0.9414  Tot=              5.2932
 Quadrupole moment (field-independent basis, Debye-Ang):
   XX=           -113.1522   YY=            -90.1047   ZZ=            -95.8550
   XY=             12.7367   XZ=             -3.4594   YZ=             -1.3540

 Normal termination of Gaussian 16 at Thu May  6 15:39:32 2021.
