 Gaussian 16, Revision A.03,
 Gaussian 16:  EM64L-G16RevA.03 25-Dec-2016

 -------------
 #p 6-31g* mp2
 -------------

 ------------------------------------------------------
 Input file generated by CHIRIPA (05-May-2021 14:53:15)
 ------------------------------------------------------
 Symbolic Z-matrix:
 Charge =  0 Multiplicity = 1

                         Standard orientation:
 ---------------------------------------------------------------------
 Center     Atomic      Atomic             Coordinates (Angstroms)
 Number     Number       Type             X           Y           Z
 ---------------------------------------------------------------------
      1          6           0        2.888328    0.577934    0.004864
      2          6           0        3.570408    1.944278   -0.071675
      3          6           0        2.573074    3.096962   -0.191833
      4          1           0        2.266558    0.434985   -0.889513
      5          1           0        2.205507    0.564461    0.865659
      6          1           0        4.252775    1.954698   -0.931258
      7          1           0        4.190777    2.083911    0.822897
      8          1           0        1.899400    3.115021    0.670976
      9          1           0        1.961750    2.985073   -1.093146
     10          1           0        3.082122    4.064378   -0.245103
     11          6           0        3.872250   -0.584447    0.125262
     12          6           0        3.190171   -1.950791    0.201802
     13          6           0        4.187504   -3.103475    0.321960
     14          1           0        4.555072   -0.570974   -0.735533
     15          1           0        4.494020   -0.441497    1.019640
     16          1           0        2.569801   -2.090424   -0.692770
     17          1           0        2.507803   -1.961211    1.061385
     18          1           0        4.798828   -2.991586    1.223273
     19          1           0        4.861178   -3.121534   -0.540849
     20          1           0        3.678456   -4.070890    0.375229
     21          6           0       -1.854607    2.395628    0.093718
     22          6           0       -3.119423    2.043993    0.576536
     23          6           0       -3.565441    0.721115    0.501625
     24          6           0       -2.716862   -0.228810   -0.064805
     25          6           0       -1.451334    0.090327   -0.554581
     26          6           0       -1.026060    1.419393   -0.469307
     27          1           0       -1.516187    3.425675    0.155935
     28          1           0       -3.765019    2.800048    1.014295
     29          1           0       -4.539891    0.421358    0.867702
     30          1           0       -0.830264   -0.685489   -0.985625
     31          1           0       -0.043292    1.689591   -0.845078
     32          7           0       -3.178061   -1.632558   -0.149595
     33          8           0       -2.411474   -2.450750   -0.653126
     34          8           0       -4.297402   -1.888043    0.289083
 ---------------------------------------------------------------------

 SCF Done:  E(RHF) =  -669.535272112     A.U. after   15 cycles
 E2 =    -0.2092445179D+01 EUMP2 =    -0.67162771729033D+03

 The electronic state is 1-A.
 Alpha  occ. eigenvalues --  -20.60686 -20.60681 -15.85736 -11.31074 -11.27642
 Alpha  occ. eigenvalues --  -11.27609 -11.27355 -11.26660 -11.26540 -11.22487
 Alpha  occ. eigenvalues --  -11.22266 -11.22235 -11.21927 -11.21867 -11.21224
 Alpha  occ. eigenvalues --   -1.59762  -1.39316  -1.19236  -1.09110  -1.08635
 Alpha  occ. eigenvalues --   -1.04633  -1.04165  -0.96652  -0.95477  -0.87672
 Alpha  occ. eigenvalues --   -0.86033  -0.82317  -0.80276  -0.78894  -0.77344
 Alpha  occ. eigenvalues --   -0.71956  -0.71085  -0.70344  -0.65742  -0.64883
 Alpha  occ. eigenvalues --   -0.64654  -0.62027  -0.61537  -0.60019  -0.58236
 Alpha  occ. eigenvalues --   -0.55961  -0.55130  -0.53313  -0.53136  -0.52970
 Alpha  occ. eigenvalues --   -0.52692  -0.50600  -0.48751  -0.48713  -0.48489
 Alpha  occ. eigenvalues --   -0.47291  -0.46399  -0.46292  -0.44728  -0.44414
 Alpha  occ. eigenvalues --   -0.37219  -0.36221
 Alpha virt. eigenvalues --    0.05154   0.11365   0.16625   0.19747   0.22649
 Alpha virt. eigenvalues --    0.23528   0.24645   0.26243   0.26399   0.28750
 Alpha virt. eigenvalues --    0.29459   0.30145   0.31007   0.31549   0.31954

 Mulliken charges:
               1
     1  C   -0.302799
     2  C   -0.298963
     3  C   -0.483065
     4  H    0.141519
     5  H    0.153575
     6  H    0.155544
     7  H    0.156571
     8  H    0.155240
     9  H    0.148330
    10  H    0.166620
    11  C   -0.298526
    12  C   -0.300976
    13  C   -0.476490
    14  H    0.151044
    15  H    0.151948
    16  H    0.152168
    17  H    0.154898
    18  H    0.155327
    19  H    0.155280
    20  H    0.165013
    21  C   -0.175123
    22  C   -0.218444
    23  C   -0.171660
    24  C    0.158816
    25  C   -0.174308
    26  C   -0.224304
    27  H    0.226026
    28  H    0.222801
    29  H    0.275030
    30  H    0.275649
    31  H    0.236873
    32  N    0.488019
    33  O   -0.460684
    34  O   -0.460948
 Sum of Mulliken charges =  -0.00000

 Dipole moment (field-independent basis, Debye):
    X=              1.8858    Y=              4.8890    Z=              0.3755  Tot=              5.2536
 Quadrupole moment (field-independent basis, Debye-Ang):
   XX=            -99.7060   YY=            -97.8368   ZZ=            -93.5849
   XY=            -14.6784   XZ=             -3.0075   YZ=              0.4739

 Normal termination of Gaussian 16 at Thu May  6 10:34:37 2021.
