 Gaussian 16, Revision A.03,
 Gaussian 16:  EM64L-G16RevA.03 25-Dec-2016

 -------------
 #p 6-31g* mp2
 -------------

 ------------------------------------------------------
 Input file generated by CHIRIPA (05-May-2021 14:55:20)
 ------------------------------------------------------
 Symbolic Z-matrix:
 Charge =  0 Multiplicity = 1

                         Standard orientation:
 ---------------------------------------------------------------------
 Center     Atomic      Atomic             Coordinates (Angstroms)
 Number     Number       Type             X           Y           Z
 ---------------------------------------------------------------------
      1          6           0       -4.619489   -0.717249   -1.144211
      2          6           0       -3.589510   -1.628267   -0.887871
      3          6           0       -2.482955   -1.251557   -0.120946
      4          6           0       -2.438714    0.050031    0.376247
      5          6           0       -3.449000    0.980596    0.138213
      6          6           0       -4.546076    0.581985   -0.631255
      7          1           0       -5.475405   -1.018393   -1.740964
      8          1           0       -3.643850   -2.637928   -1.284956
      9          1           0       -1.671544   -1.936635    0.092825
     10          1           0       -3.366664    1.980128    0.547572
     11          1           0       -5.344500    1.291611   -0.828726
     12          7           0       -1.272271    0.460430    1.189503
     13          8           0       -1.257075    1.612997    1.616112
     14          8           0       -0.395297   -0.378237    1.384924
     15          6           0        3.071944   -0.678619   -0.243830
     16          6           0        4.121136   -1.755255    0.035525
     17          6           0        3.514192   -3.152593    0.165370
     18          1           0        2.327343   -0.682904    0.563943
     19          1           0        2.532975   -0.932531   -1.167105
     20          1           0        4.658902   -1.498666    0.957254
     21          1           0        4.863430   -1.748277   -0.772908
     22          1           0        2.993694   -3.433647   -0.755874
     23          1           0        2.788004   -3.182618    0.984118
     24          1           0        4.281828   -3.906766    0.364919
     25          6           0        3.663308    0.723695   -0.376235
     26          6           0        2.614117    1.800331   -0.655590
     27          6           0        3.221059    3.197670   -0.785435
     28          1           0        4.202277    0.977606    0.547040
     29          1           0        4.407909    0.727981   -1.184008
     30          1           0        1.871821    1.793354    0.152844
     31          1           0        2.076350    1.543743   -1.577319
     32          1           0        3.947248    3.227693   -1.604183
     33          1           0        3.741558    3.478723    0.135809
     34          1           0        2.453424    3.951842   -0.984984
 ---------------------------------------------------------------------

 SCF Done:  E(RHF) =  -669.536653693     A.U. after   15 cycles
 E2 =    -0.2091620828D+01 EUMP2 =    -0.67162827452120D+03

 The electronic state is 1-A.
 Alpha  occ. eigenvalues --  -20.61021 -20.61013 -15.86037 -11.31316 -11.27875
 Alpha  occ. eigenvalues --  -11.27868 -11.27609 -11.26873 -11.26863 -11.20719
 Alpha  occ. eigenvalues --  -11.20478 -11.20368 -11.20328 -11.20169 -11.20120
 Alpha  occ. eigenvalues --   -1.60067  -1.39625  -1.19480  -1.08894  -1.07376
 Alpha  occ. eigenvalues --   -1.04870  -1.02586  -0.95742  -0.95045  -0.86272
 Alpha  occ. eigenvalues --   -0.86073  -0.82580  -0.78643  -0.77641  -0.77161
 Alpha  occ. eigenvalues --   -0.72260  -0.71370  -0.70590  -0.65138  -0.64874
 Alpha  occ. eigenvalues --   -0.63992  -0.62217  -0.59983  -0.58421  -0.56654
 Alpha  occ. eigenvalues --   -0.55379  -0.54333  -0.53204  -0.52962  -0.51786
 Alpha  occ. eigenvalues --   -0.51483  -0.49051  -0.49017  -0.48984  -0.46975
 Alpha  occ. eigenvalues --   -0.45663  -0.45170  -0.44731  -0.44385  -0.42801
 Alpha  occ. eigenvalues --   -0.37456  -0.36469
 Alpha virt. eigenvalues --    0.04855   0.11187   0.16340   0.21296   0.23920
 Alpha virt. eigenvalues --    0.25160   0.27236   0.27654   0.27954   0.28730
 Alpha virt. eigenvalues --    0.29054   0.30985   0.32186   0.32401   0.32728

 Mulliken charges:
               1
     1  C   -0.170437
     2  C   -0.218681
     3  C   -0.170495
     4  C    0.158364
     5  C   -0.170479
     6  C   -0.218664
     7  H    0.226103
     8  H    0.224035
     9  H    0.276329
    10  H    0.275876
    11  H    0.223887
    12  N    0.491248
    13  O   -0.459726
    14  O   -0.462191
    15  C   -0.309640
    16  C   -0.298227
    17  C   -0.475486
    18  H    0.178584
    19  H    0.140729
    20  H    0.151559
    21  H    0.147277
    22  H    0.149804
    23  H    0.158996
    24  H    0.156536
    25  C   -0.296495
    26  C   -0.305066
    27  C   -0.474478
    28  H    0.149227
    29  H    0.143561
    30  H    0.169796
    31  H    0.144319
    32  H    0.150459
    33  H    0.155397
    34  H    0.157979
 Sum of Mulliken charges =  -0.00000

 Dipole moment (field-independent basis, Debye):
    X=             -4.4308    Y=             -1.4170    Z=             -2.6557  Tot=              5.3566
 Quadrupole moment (field-independent basis, Debye-Ang):
   XX=            -75.4839   YY=            -92.5313   ZZ=            -96.8642
   XY=              1.1190   XZ=              6.0170   YZ=              0.3244

 Normal termination of Gaussian 16 at Thu May  6 19:07:06 2021.
