 Gaussian 16, Revision A.03,
 Gaussian 16:  EM64L-G16RevA.03 25-Dec-2016

 -------------
 #p 6-31g* mp2
 -------------

 ------------------------------------------------------
 Input file generated by CHIRIPA (05-May-2021 14:51:09)
 ------------------------------------------------------
 Symbolic Z-matrix:
 Charge =  0 Multiplicity = 1

                         Standard orientation:
 ---------------------------------------------------------------------
 Center     Atomic      Atomic             Coordinates (Angstroms)
 Number     Number       Type             X           Y           Z
 ---------------------------------------------------------------------
      1          6           0        2.588425    0.310571    0.728185
      2          6           0        3.008119   -1.154707    0.606527
      3          6           0        3.473702   -1.748637    1.936292
      4          1           0        3.432630    0.896072    1.117354
      5          1           0        1.782174    0.393416    1.470136
      6          1           0        3.812392   -1.234950   -0.135985
      7          1           0        2.162878   -1.736756    0.217421
      8          1           0        2.673744   -1.697859    2.682006
      9          1           0        4.332630   -1.193202    2.326592
     10          1           0        3.769007   -2.796765    1.826370
     11          6           0        2.120472    0.918401   -0.592910
     12          6           0        1.700778    2.383680   -0.471252
     13          6           0        1.235196    2.977610   -1.801016
     14          1           0        2.926723    0.835557   -1.334861
     15          1           0        1.276267    0.332900   -0.982079
     16          1           0        2.546019    2.965728   -0.082146
     17          1           0        0.896506    2.463922    0.271260
     18          1           0        0.376267    2.422175   -2.191317
     19          1           0        2.035153    2.926832   -2.546731
     20          1           0        0.939890    4.025738   -1.691095
     21          6           0       -2.848823   -0.394779    0.471580
     22          6           0       -2.883365    1.119336    0.681922
     23          6           0       -3.877126    1.543353    1.763791
     24          1           0       -3.855395   -0.744489    0.204257
     25          1           0       -2.589788   -0.884002    1.420767
     26          1           0       -3.140902    1.605633   -0.267712
     27          1           0       -1.876553    1.465508    0.948587
     28          1           0       -3.619874    1.085008    2.724178
     29          1           0       -4.891408    1.225929    1.500968
     30          1           0       -3.885566    2.629564    1.897704
     31          6           0       -1.860074   -0.834193   -0.606855
     32          6           0       -1.825533   -2.348310   -0.817197
     33          6           0       -0.831771   -2.772325   -1.899067
     34          1           0       -2.119110   -0.344970   -1.556042
     35          1           0       -0.853502   -0.484485   -0.339533
     36          1           0       -2.832344   -2.694481   -1.083861
     37          1           0       -1.567994   -2.834606    0.132438
     38          1           0        0.182511   -2.454902   -1.636243
     39          1           0       -1.089023   -2.313980   -2.859453
     40          1           0       -0.823331   -3.858538   -2.032979
 ---------------------------------------------------------------------

 SCF Done:  E(RHF) =  -470.733256010     A.U. after   11 cycles
 E2 =    -0.1584412430D+01 EUMP2 =    -0.47231766843957D+03

 The electronic state is 1-A.
 Alpha  occ. eigenvalues --  -11.21671 -11.21666 -11.21661 -11.21602 -11.21476
 Alpha  occ. eigenvalues --  -11.21432 -11.21416 -11.21344 -11.21123 -11.21119
 Alpha  occ. eigenvalues --  -11.21115 -11.21041  -1.08526  -1.08437  -1.03594
 Alpha  occ. eigenvalues --   -1.03546  -0.96044  -0.95990  -0.87061  -0.87006
 Alpha  occ. eigenvalues --   -0.79664  -0.79609  -0.78408  -0.78192  -0.65391
 Alpha  occ. eigenvalues --   -0.64858  -0.61048  -0.60892  -0.59411  -0.59361
 Alpha  occ. eigenvalues --   -0.57652  -0.57604  -0.55420  -0.55202  -0.52730
 Alpha  occ. eigenvalues --   -0.52688  -0.52493  -0.52392  -0.50042  -0.49889
 Alpha  occ. eigenvalues --   -0.48023  -0.47915  -0.46800  -0.46627  -0.46261
 Alpha  occ. eigenvalues --   -0.45807  -0.45736  -0.45189  -0.43848  -0.43800
 Alpha virt. eigenvalues --    0.18970   0.21877   0.23739   0.24313   0.25348
 Alpha virt. eigenvalues --    0.26558   0.26696   0.28014   0.28181   0.29944
 Alpha virt. eigenvalues --    0.30491   0.31490   0.31712   0.31774   0.32306

 Mulliken charges:
               1
     1  C   -0.298483
     2  C   -0.303815
     3  C   -0.475546
     4  H    0.150239
     5  H    0.148565
     6  H    0.152589
     7  H    0.154552
     8  H    0.154941
     9  H    0.155526
    10  H    0.160556
    11  C   -0.305942
    12  C   -0.301385
    13  C   -0.475935
    14  H    0.150009
    15  H    0.156677
    16  H    0.151998
    17  H    0.153178
    18  H    0.156320
    19  H    0.154991
    20  H    0.160088
    21  C   -0.297683
    22  C   -0.301959
    23  C   -0.475716
    24  H    0.150175
    25  H    0.149426
    26  H    0.152383
    27  H    0.153106
    28  H    0.155233
    29  H    0.155477
    30  H    0.160585
    31  C   -0.306661
    32  C   -0.299166
    33  C   -0.480822
    34  H    0.149387
    35  H    0.157316
    36  H    0.152422
    37  H    0.151810
    38  H    0.159170
    39  H    0.155555
    40  H    0.160837
 Sum of Mulliken charges =  -0.00000

 Dipole moment (field-independent basis, Debye):
    X=             -0.0141    Y=             -0.0070    Z=             -0.0105  Tot=              0.0190
 Quadrupole moment (field-independent basis, Debye-Ang):
   XX=            -83.7941   YY=            -85.2280   ZZ=            -85.5783
   XY=              0.7201   XZ=              0.5223   YZ=              0.0462

 Normal termination of Gaussian 16 at Wed May  5 15:08:36 2021.
