 Gaussian 16, Revision A.03,
 Gaussian 16:  EM64L-G16RevA.03 25-Dec-2016

 -------------
 #p 6-31g* mp2
 -------------

 ------------------------------------------------------
 Input file generated by CHIRIPA (05-May-2021 14:51:10)
 ------------------------------------------------------
 Symbolic Z-matrix:
 Charge =  0 Multiplicity = 1

                         Standard orientation:
 ---------------------------------------------------------------------
 Center     Atomic      Atomic             Coordinates (Angstroms)
 Number     Number       Type             X           Y           Z
 ---------------------------------------------------------------------
      1          6           0       -4.324145    0.435354   -0.265770
      2          6           0       -3.148723    0.433441    0.712169
      3          6           0       -1.885696    1.059077    0.119602
      4          1           0       -4.036386   -0.108205   -1.176091
      5          1           0       -4.535171    1.469157   -0.572549
      6          1           0       -2.940868   -0.599918    1.018080
      7          1           0       -3.439379    0.976903    1.620345
      8          1           0       -2.069894    2.098935   -0.169132
      9          1           0       -1.568550    0.513155   -0.774819
     10          1           0       -1.057966    1.047307    0.835552
     11          6           0       -5.594036   -0.186850    0.312130
     12          6           0       -6.769458   -0.184937   -0.665809
     13          6           0       -8.032485   -0.810574   -0.073243
     14          1           0       -5.383010   -1.220654    0.618908
     15          1           0       -5.881795    0.356708    1.222450
     16          1           0       -6.478802   -0.728399   -1.573986
     17          1           0       -6.977314    0.848421   -0.971721
     18          1           0       -8.349631   -0.264652    0.821178
     19          1           0       -7.848287   -1.850432    0.215492
     20          1           0       -8.860215   -0.798804   -0.789193
     21          6           0        4.280317    0.020300   -0.342246
     22          6           0        3.099014   -0.298954    0.574588
     23          6           0        1.747919   -0.004514   -0.077823
     24          1           0        4.234895    1.078721   -0.633153
     25          1           0        4.184563   -0.562857   -1.268612
     26          1           0        3.197700    0.283592    1.499529
     27          1           0        3.147361   -1.356692    0.863499
     28          1           0        1.623621   -0.596437   -0.990390
     29          1           0        1.674246    1.053166   -0.350746
     30          1           0        0.917404   -0.239917    0.594999
     31          6           0        5.637864   -0.268803    0.295886
     32          6           0        6.819167    0.050451   -0.620947
     33          6           0        8.170262   -0.243989    0.031464
     34          1           0        5.733619    0.314354    1.222253
     35          1           0        5.683287   -1.327224    0.586792
     36          1           0        6.770821    1.108189   -0.909859
     37          1           0        6.720481   -0.532095   -1.545888
     38          1           0        8.243935   -1.301669    0.304387
     39          1           0        8.294560    0.347934    0.944031
     40          1           0        9.000777   -0.008586   -0.641359
 ---------------------------------------------------------------------

 SCF Done:  E(RHF) =  -470.732681685     A.U. after   11 cycles
 E2 =    -0.1582378472D+01 EUMP2 =    -0.47231506015688D+03

 The electronic state is 1-A.
 Alpha  occ. eigenvalues --  -11.21584 -11.21580 -11.21549 -11.21546 -11.21377
 Alpha  occ. eigenvalues --  -11.21371 -11.21316 -11.21311 -11.21058 -11.21055
 Alpha  occ. eigenvalues --  -11.20968 -11.20937  -1.08404  -1.08389  -1.03523
 Alpha  occ. eigenvalues --   -1.03460  -0.96019  -0.95863  -0.87090  -0.86826
 Alpha  occ. eigenvalues --   -0.79651  -0.79459  -0.78222  -0.78197  -0.65031
 Alpha  occ. eigenvalues --   -0.65025  -0.60897  -0.60892  -0.59597  -0.59086
 Alpha  occ. eigenvalues --   -0.57666  -0.57430  -0.55233  -0.55226  -0.53027
 Alpha  occ. eigenvalues --   -0.52442  -0.52329  -0.52163  -0.49878  -0.49858
 Alpha  occ. eigenvalues --   -0.47944  -0.47795  -0.46594  -0.46585  -0.45772
 Alpha  occ. eigenvalues --   -0.45729  -0.45683  -0.45674  -0.43960  -0.43475
 Alpha virt. eigenvalues --    0.22390   0.22989   0.23607   0.24888   0.26595
 Alpha virt. eigenvalues --    0.26666   0.27080   0.27344   0.27632   0.29018
 Alpha virt. eigenvalues --    0.30375   0.31280   0.31346   0.31867   0.32144

 Mulliken charges:
               1
     1  C   -0.298343
     2  C   -0.300384
     3  C   -0.478024
     4  H    0.149632
     5  H    0.149459
     6  H    0.151415
     7  H    0.151472
     8  H    0.154084
     9  H    0.157076
    10  H    0.163859
    11  C   -0.298216
    12  C   -0.299609
    13  C   -0.475675
    14  H    0.149406
    15  H    0.149540
    16  H    0.151899
    17  H    0.151884
    18  H    0.155132
    19  H    0.155130
    20  H    0.160176
    21  C   -0.298475
    22  C   -0.300405
    23  C   -0.476948
    24  H    0.149633
    25  H    0.149360
    26  H    0.151469
    27  H    0.151461
    28  H    0.154078
    29  H    0.155995
    30  H    0.164169
    31  C   -0.298192
    32  C   -0.299595
    33  C   -0.475676
    34  H    0.149433
    35  H    0.149532
    36  H    0.151921
    37  H    0.151866
    38  H    0.155126
    39  H    0.155148
    40  H    0.160189
 Sum of Mulliken charges =  -0.00000

 Dipole moment (field-independent basis, Debye):
    X=              0.0016    Y=              0.0070    Z=             -0.0067  Tot=              0.0098
 Quadrupole moment (field-independent basis, Debye-Ang):
   XX=            -87.1022   YY=            -83.2239   ZZ=            -84.7472
   XY=             -0.4634   XZ=             -0.1512   YZ=              0.8719

 Normal termination of Gaussian 16 at Wed May  5 16:41:24 2021.
