 Gaussian 16, Revision A.03,
 Gaussian 16:  EM64L-G16RevA.03 25-Dec-2016

 -------------
 #p 6-31g* mp2
 -------------

 ------------------------------------------------------
 Input file generated by CHIRIPA (05-May-2021 14:51:11)
 ------------------------------------------------------
 Symbolic Z-matrix:
 Charge =  0 Multiplicity = 1

                         Standard orientation:
 ---------------------------------------------------------------------
 Center     Atomic      Atomic             Coordinates (Angstroms)
 Number     Number       Type             X           Y           Z
 ---------------------------------------------------------------------
      1          6           0        3.471953   -0.094713    0.339478
      2          6           0        4.665020    0.278749   -0.540920
      3          6           0        5.581259    1.313512    0.112966
      4          1           0        2.896831    0.812330    0.570677
      5          1           0        3.840571   -0.484045    1.298611
      6          1           0        4.294272    0.665968   -1.498638
      7          1           0        5.237260   -0.629317   -0.770208
      8          1           0        5.978935    0.932659    1.059225
      9          1           0        5.030589    2.235304    0.326656
     10          1           0        6.427487    1.565985   -0.533574
     11          6           0        2.546754   -1.128204   -0.300547
     12          6           0        1.353687   -1.501666    0.579851
     13          6           0        0.437448   -2.536429   -0.074035
     14          1           0        2.178135   -0.738872   -1.259680
     15          1           0        3.121876   -2.035247   -0.531746
     16          1           0        0.781446   -0.593600    0.809139
     17          1           0        1.724435   -1.888885    1.537569
     18          1           0        0.988118   -3.458221   -0.287725
     19          1           0        0.039772   -2.155576   -1.020294
     20          1           0       -0.408781   -2.788902    0.572505
     21          6           0       -3.549402    0.075796   -0.089073
     22          6           0       -3.011758   -1.348894    0.049421
     23          6           0       -4.104097   -2.409336   -0.092186
     24          1           0       -4.325701    0.243354    0.670026
     25          1           0       -4.040025    0.181699   -1.066554
     26          1           0       -2.521082   -1.451673    1.025787
     27          1           0       -2.236514   -1.513017   -0.709972
     28          1           0       -4.587977   -2.335578   -1.071482
     29          1           0       -4.874162   -2.273887    0.674140
     30          1           0       -3.697759   -3.420411    0.010164
     31          6           0       -2.469304    1.147120    0.050142
     32          6           0       -3.006949    2.571811   -0.088352
     33          6           0       -1.914610    3.632253    0.053255
     34          1           0       -1.978683    1.041219    1.027623
     35          1           0       -1.693006    0.979563   -0.708956
     36          1           0       -3.782192    2.735933    0.671042
     37          1           0       -3.497625    2.674590   -1.064717
     38          1           0       -1.144544    3.496803   -0.713071
     39          1           0       -1.430729    3.558495    1.032551
     40          1           0       -2.320949    4.643328   -0.049095
 ---------------------------------------------------------------------

 SCF Done:  E(RHF) =  -470.731893065     A.U. after   11 cycles
 E2 =    -0.1583936673D+01 EUMP2 =    -0.47231582973797D+03

 The electronic state is 1-A.
 Alpha  occ. eigenvalues --  -11.21632 -11.21582 -11.21539 -11.21484 -11.21424
 Alpha  occ. eigenvalues --  -11.21374 -11.21337 -11.21315 -11.21110 -11.21054
 Alpha  occ. eigenvalues --  -11.21037 -11.20946  -1.08450  -1.08378  -1.03573
 Alpha  occ. eigenvalues --   -1.03445  -0.96006  -0.95920  -0.87050  -0.86916
 Alpha  occ. eigenvalues --   -0.79729  -0.79433  -0.78253  -0.78208  -0.65107
 Alpha  occ. eigenvalues --   -0.64992  -0.61031  -0.60810  -0.59559  -0.59140
 Alpha  occ. eigenvalues --   -0.57678  -0.57458  -0.55315  -0.55204  -0.52722
 Alpha  occ. eigenvalues --   -0.52596  -0.52410  -0.52356  -0.50039  -0.49829
 Alpha  occ. eigenvalues --   -0.47965  -0.47782  -0.46756  -0.46436  -0.45846
 Alpha  occ. eigenvalues --   -0.45780  -0.45628  -0.45536  -0.43818  -0.43663
 Alpha virt. eigenvalues --    0.21192   0.23247   0.23631   0.24448   0.25399
 Alpha virt. eigenvalues --    0.26147   0.27043   0.27553   0.28009   0.29364
 Alpha virt. eigenvalues --    0.30130   0.31259   0.31639   0.31973   0.32587

 Mulliken charges:
               1
     1  C   -0.298373
     2  C   -0.299580
     3  C   -0.475713
     4  H    0.149922
     5  H    0.149394
     6  H    0.151748
     7  H    0.151860
     8  H    0.155124
     9  H    0.155280
    10  H    0.160156
    11  C   -0.298153
    12  C   -0.302538
    13  C   -0.477346
    14  H    0.149001
    15  H    0.149587
    16  H    0.154555
    17  H    0.151360
    18  H    0.153761
    19  H    0.154216
    20  H    0.165463
    21  C   -0.297867
    22  C   -0.304046
    23  C   -0.476319
    24  H    0.149199
    25  H    0.149115
    26  H    0.151209
    27  H    0.159803
    28  H    0.154979
    29  H    0.154797
    30  H    0.160350
    31  C   -0.299434
    32  C   -0.299586
    33  C   -0.475756
    34  H    0.150048
    35  H    0.149079
    36  H    0.152250
    37  H    0.152070
    38  H    0.154751
    39  H    0.155130
    40  H    0.160504
 Sum of Mulliken charges =  -0.00000

 Dipole moment (field-independent basis, Debye):
    X=             -0.0195    Y=             -0.0059    Z=              0.0014  Tot=              0.0205
 Quadrupole moment (field-independent basis, Debye-Ang):
   XX=            -85.6769   YY=            -85.5843   ZZ=            -83.7028
   XY=             -1.5382   XZ=             -0.2123   YZ=             -0.6111

 Normal termination of Gaussian 16 at Wed May  5 21:28:12 2021.
