 Gaussian 16, Revision A.03,
 Gaussian 16:  EM64L-G16RevA.03 25-Dec-2016

 -------------
 #p 6-31g* mp2
 -------------

 ------------------------------------------------------
 Input file generated by CHIRIPA (05-May-2021 14:55:23)
 ------------------------------------------------------
 Symbolic Z-matrix:
 Charge =  0 Multiplicity = 1

                         Standard orientation:
 ---------------------------------------------------------------------
 Center     Atomic      Atomic             Coordinates (Angstroms)
 Number     Number       Type             X           Y           Z
 ---------------------------------------------------------------------
      1          6           0        1.285113   -1.690238   -0.468746
      2          6           0        1.335800   -0.331617   -0.797532
      3          6           0        2.504292    0.406631   -0.587381
      4          6           0        3.608392   -0.248549   -0.044250
      5          6           0        3.589057   -1.600867    0.293614
      6          6           0        2.409921   -2.319418    0.074819
      7          1           0        0.373266   -2.256077   -0.635353
      8          1           0        0.463792    0.159631   -1.219816
      9          1           0        2.571030    1.459586   -0.832840
     10          1           0        4.474468   -2.062975    0.713043
     11          1           0        2.373439   -3.374420    0.331110
     12          7           0        4.851057    0.522575    0.182802
     13          8           0        5.810134   -0.077936    0.662588
     14          8           0        4.842450    1.712891   -0.123320
     15          6           0       -3.839639    0.906080   -0.263356
     16          6           0       -2.823862    1.567017    0.669030
     17          6           0       -1.796238    2.414427   -0.081755
     18          1           0       -3.306267    0.278938   -0.990785
     19          1           0       -4.356849    1.684323   -0.841478
     20          1           0       -2.309697    0.787848    1.246219
     21          1           0       -3.359727    2.192507    1.394445
     22          1           0       -2.291927    3.212135   -0.644387
     23          1           0       -1.235931    1.799495   -0.793456
     24          1           0       -1.079869    2.877579    0.603930
     25          6           0       -4.873542    0.055558    0.472434
     26          6           0       -5.889319   -0.605379   -0.459952
     27          6           0       -6.916942   -1.452789    0.290833
     28          1           0       -4.356332   -0.722685    1.050556
     29          1           0       -5.406913    0.682700    1.199863
     30          1           0       -5.353454   -1.230869   -1.185368
     31          1           0       -6.403484    0.173790   -1.037141
     32          1           0       -7.477249   -0.837858    1.002534
     33          1           0       -6.421253   -2.250498    0.853465
     34          1           0       -7.633311   -1.915941   -0.394853
 ---------------------------------------------------------------------

 SCF Done:  E(RHF) =  -669.535375094     A.U. after   15 cycles
 E2 =    -0.2090977377D+01 EUMP2 =    -0.67162635247159D+03

 The electronic state is 1-A.
 Alpha  occ. eigenvalues --  -20.60748 -20.60742 -15.85801 -11.31170 -11.27743
 Alpha  occ. eigenvalues --  -11.27730 -11.27492 -11.26763 -11.26736 -11.22351
 Alpha  occ. eigenvalues --  -11.22177 -11.22135 -11.22006 -11.21960 -11.21564
 Alpha  occ. eigenvalues --   -1.59823  -1.39376  -1.19345  -1.09120  -1.08741
 Alpha  occ. eigenvalues --   -1.04749  -1.04208  -0.96667  -0.95574  -0.87685
 Alpha  occ. eigenvalues --   -0.86148  -0.82407  -0.80269  -0.78920  -0.77452
 Alpha  occ. eigenvalues --   -0.72020  -0.71146  -0.70457  -0.65777  -0.64997
 Alpha  occ. eigenvalues --   -0.64769  -0.62165  -0.61553  -0.60022  -0.58261
 Alpha  occ. eigenvalues --   -0.55995  -0.55246  -0.53345  -0.53140  -0.53073
 Alpha  occ. eigenvalues --   -0.52794  -0.50599  -0.48784  -0.48774  -0.48573
 Alpha  occ. eigenvalues --   -0.47303  -0.46465  -0.46386  -0.44781  -0.44457
 Alpha  occ. eigenvalues --   -0.37330  -0.36345
 Alpha virt. eigenvalues --    0.05082   0.11272   0.16543   0.19530   0.22570
 Alpha virt. eigenvalues --    0.23688   0.25354   0.26327   0.26981   0.28370
 Alpha virt. eigenvalues --    0.28654   0.29871   0.31066   0.31380   0.32011

 Mulliken charges:
               1
     1  C   -0.172345
     2  C   -0.221971
     3  C   -0.172673
     4  C    0.158568
     5  C   -0.171054
     6  C   -0.218512
     7  H    0.225373
     8  H    0.230215
     9  H    0.276140
    10  H    0.275550
    11  H    0.223256
    12  N    0.488108
    13  O   -0.460593
    14  O   -0.460291
    15  C   -0.297448
    16  C   -0.300963
    17  C   -0.477625
    18  H    0.142915
    19  H    0.152342
    20  H    0.151836
    21  H    0.156476
    22  H    0.159841
    23  H    0.144029
    24  H    0.165714
    25  C   -0.298527
    26  C   -0.299774
    27  C   -0.475946
    28  H    0.148333
    29  H    0.152278
    30  H    0.150093
    31  H    0.153540
    32  H    0.156722
    33  H    0.154776
    34  H    0.161616
 Sum of Mulliken charges =  -0.00000

 Dipole moment (field-independent basis, Debye):
    X=             -4.5438    Y=             -2.6432    Z=             -0.7260  Tot=              5.3066
 Quadrupole moment (field-independent basis, Debye-Ang):
   XX=           -125.5386   YY=            -89.7032   ZZ=            -95.0024
   XY=            -12.1112   XZ=             -1.6707   YZ=             -0.9798

 Normal termination of Gaussian 16 at Thu May  6 15:56:48 2021.
