 Gaussian 16, Revision A.03,
 Gaussian 16:  EM64L-G16RevA.03 25-Dec-2016

 -------------
 #p 6-31g* mp2
 -------------

 ------------------------------------------------------
 Input file generated by CHIRIPA (05-May-2021 14:53:16)
 ------------------------------------------------------
 Symbolic Z-matrix:
 Charge =  0 Multiplicity = 1

                         Standard orientation:
 ---------------------------------------------------------------------
 Center     Atomic      Atomic             Coordinates (Angstroms)
 Number     Number       Type             X           Y           Z
 ---------------------------------------------------------------------
      1          6           0       -4.866315    0.180155   -0.259054
      2          6           0       -6.274156   -0.362755   -0.506479
      3          6           0       -7.088236    0.516273   -1.456414
      4          1           0       -4.939079    1.196603    0.151415
      5          1           0       -4.340619    0.267989   -1.219951
      6          1           0       -6.796562   -0.450844    0.454744
      7          1           0       -6.198035   -1.378101   -0.916227
      8          1           0       -6.591868    0.594947   -2.429055
      9          1           0       -7.193795    1.527473   -1.050295
     10          1           0       -8.091235    0.109675   -1.619292
     11          6           0       -4.040207   -0.687732    0.688599
     12          6           0       -2.632367   -0.144822    0.936024
     13          6           0       -1.818287   -1.023850    1.885959
     14          1           0       -4.565904   -0.775567    1.649496
     15          1           0       -3.967443   -1.704180    0.278130
     16          1           0       -2.708488    0.870524    1.345772
     17          1           0       -2.109961   -0.056733   -0.025199
     18          1           0       -1.712728   -2.035050    1.479840
     19          1           0       -2.314655   -1.102524    2.858600
     20          1           0       -0.815287   -0.617252    2.048837
     21          6           0        1.532857    1.744231    0.265838
     22          6           0        2.842845    2.227222    0.350539
     23          6           0        3.928865    1.379665    0.112303
     24          6           0        3.667267    0.048815   -0.209713
     25          6           0        2.373562   -0.462206   -0.301772
     26          6           0        1.302802    0.403422   -0.059474
     27          1           0        0.695138    2.409652    0.452483
     28          1           0        3.024503    3.268046    0.602986
     29          1           0        4.953133    1.727280    0.171107
     30          1           0        2.224041   -1.504655   -0.555471
     31          1           0        0.286510    0.025568   -0.125963
     32          7           0        4.808911   -0.858022   -0.464073
     33          8           0        4.551793   -2.026363   -0.746041
     34          8           0        5.939230   -0.383287   -0.376657
 ---------------------------------------------------------------------

 SCF Done:  E(RHF) =  -669.535240824     A.U. after   15 cycles
 E2 =    -0.2091825271D+01 EUMP2 =    -0.67162706609491D+03

 The electronic state is 1-A.
 Alpha  occ. eigenvalues --  -20.60731 -20.60725 -15.85783 -11.31144 -11.27716
 Alpha  occ. eigenvalues --  -11.27701 -11.27446 -11.26728 -11.26655 -11.22761
 Alpha  occ. eigenvalues --  -11.22220 -11.22159 -11.22066 -11.22021 -11.21542
 Alpha  occ. eigenvalues --   -1.59806  -1.39360  -1.19315  -1.09236  -1.08709
 Alpha  occ. eigenvalues --   -1.04724  -1.04327  -0.96747  -0.95545  -0.87756
 Alpha  occ. eigenvalues --   -0.86114  -0.82377  -0.80427  -0.79022  -0.77428
 Alpha  occ. eigenvalues --   -0.72002  -0.71129  -0.70419  -0.65902  -0.64963
 Alpha  occ. eigenvalues --   -0.64760  -0.62204  -0.61637  -0.60087  -0.58347
 Alpha  occ. eigenvalues --   -0.56016  -0.55200  -0.53493  -0.53236  -0.52995
 Alpha  occ. eigenvalues --   -0.52682  -0.50679  -0.48768  -0.48757  -0.48719
 Alpha  occ. eigenvalues --   -0.47460  -0.46556  -0.46458  -0.44766  -0.44567
 Alpha  occ. eigenvalues --   -0.37292  -0.36307
 Alpha virt. eigenvalues --    0.05106   0.11231   0.16575   0.19889   0.22489
 Alpha virt. eigenvalues --    0.23887   0.25494   0.26259   0.26947   0.28088
 Alpha virt. eigenvalues --    0.28975   0.29904   0.30902   0.31265   0.31575

 Mulliken charges:
               1
     1  C   -0.299070
     2  C   -0.300337
     3  C   -0.476159
     4  H    0.149556
     5  H    0.149281
     6  H    0.153199
     7  H    0.153415
     8  H    0.155678
     9  H    0.155358
    10  H    0.162285
    11  C   -0.297410
    12  C   -0.306495
    13  C   -0.483064
    14  H    0.153065
    15  H    0.152378
    16  H    0.152245
    17  H    0.144375
    18  H    0.158100
    19  H    0.161761
    20  H    0.161130
    21  C   -0.174805
    22  C   -0.218423
    23  C   -0.171145
    24  C    0.158967
    25  C   -0.173932
    26  C   -0.225850
    27  H    0.226195
    28  H    0.223205
    29  H    0.275441
    30  H    0.276009
    31  H    0.238106
    32  N    0.488027
    33  O   -0.460452
    34  O   -0.460636
 Sum of Mulliken charges =  -0.00000

 Dipole moment (field-independent basis, Debye):
    X=             -4.2452    Y=              3.1540    Z=              0.9442  Tot=              5.3722
 Quadrupole moment (field-independent basis, Debye-Ang):
   XX=           -122.1249   YY=            -91.8011   ZZ=            -95.4983
   XY=             14.7238   XZ=              3.8978   YZ=              0.8564

 Normal termination of Gaussian 16 at Thu May  6 22:02:50 2021.
