 Gaussian 16, Revision A.03,
 Gaussian 16:  EM64L-G16RevA.03 25-Dec-2016

 -------------
 #p 6-31g* mp2
 -------------

 ------------------------------------------------------
 Input file generated by CHIRIPA (05-May-2021 14:55:19)
 ------------------------------------------------------
 Symbolic Z-matrix:
 Charge =  0 Multiplicity = 1

                         Standard orientation:
 ---------------------------------------------------------------------
 Center     Atomic      Atomic             Coordinates (Angstroms)
 Number     Number       Type             X           Y           Z
 ---------------------------------------------------------------------
      1          6           0        4.562358   -1.775477    0.414960
      2          6           0        5.032527   -0.547453    0.891847
      3          6           0        4.315830    0.628747    0.652166
      4          6           0        3.127491    0.539928   -0.071195
      5          6           0        2.632990   -0.668519   -0.559473
      6          6           0        3.366199   -1.831991   -0.307903
      7          1           0        5.125519   -2.684233    0.605767
      8          1           0        5.961163   -0.500557    1.453524
      9          1           0        4.656825    1.592732    1.009758
     10          1           0        1.703944   -0.683582   -1.116306
     11          1           0        2.998650   -2.784297   -0.679476
     12          7           0        2.360015    1.778381   -0.331227
     13          8           0        1.315904    1.673380   -0.971105
     14          8           0        2.817112    2.830630    0.109760
     15          6           0       -3.726994   -1.055317    0.019392
     16          6           0       -2.264545   -0.762375   -0.317375
     17          6           0       -1.400740   -2.023619   -0.347363
     18          1           0       -3.778254   -1.559824    0.993963
     19          1           0       -4.131932   -1.760709   -0.719419
     20          1           0       -1.862886   -0.056673    0.421049
     21          1           0       -2.216774   -0.258334   -1.291170
     22          1           0       -1.774530   -2.728819   -1.096747
     23          1           0       -1.418630   -2.526011    0.625201
     24          1           0       -0.359136   -1.791161   -0.590025
     25          6           0       -4.603194    0.195628    0.053155
     26          6           0       -6.065644   -0.097313    0.389922
     27          6           0       -6.929448    1.163930    0.419910
     28          1           0       -4.198256    0.901020    0.791967
     29          1           0       -4.551934    0.700135   -0.921415
     30          1           0       -6.113414   -0.601354    1.363717
     31          1           0       -6.467303   -0.803016   -0.348502
     32          1           0       -6.911557    1.666323   -0.552655
     33          1           0       -6.555659    1.869130    1.169294
     34          1           0       -7.971052    0.931472    0.662572
 ---------------------------------------------------------------------

 SCF Done:  E(RHF) =  -669.535438001     A.U. after   15 cycles
 E2 =    -0.2091203054D+01 EUMP2 =    -0.67162664105431D+03

 The electronic state is 1-A.
 Alpha  occ. eigenvalues --  -20.60782 -20.60776 -15.85831 -11.31196 -11.27767
 Alpha  occ. eigenvalues --  -11.27754 -11.27508 -11.26787 -11.26774 -11.21343
 Alpha  occ. eigenvalues --  -11.21316 -11.21225 -11.21153 -11.21046 -11.20799
 Alpha  occ. eigenvalues --   -1.59855  -1.39408  -1.19371  -1.08765  -1.08179
 Alpha  occ. eigenvalues --   -1.04776  -1.03337  -0.95834  -0.95597  -0.86853
 Alpha  occ. eigenvalues --   -0.86170  -0.82432  -0.79376  -0.77961  -0.77482
 Alpha  occ. eigenvalues --   -0.72050  -0.71177  -0.70490  -0.65024  -0.64806
 Alpha  occ. eigenvalues --   -0.64786  -0.62171  -0.60728  -0.59193  -0.57423
 Alpha  occ. eigenvalues --   -0.55276  -0.55115  -0.53120  -0.52945  -0.52474
 Alpha  occ. eigenvalues --   -0.52216  -0.49753  -0.48809  -0.48807  -0.47698
 Alpha  occ. eigenvalues --   -0.46386  -0.45516  -0.45426  -0.44808  -0.43598
 Alpha  occ. eigenvalues --   -0.37350  -0.36368
 Alpha virt. eigenvalues --    0.05023   0.11245   0.16522   0.20519   0.23103
 Alpha virt. eigenvalues --    0.24053   0.26297   0.26944   0.27724   0.27966
 Alpha virt. eigenvalues --    0.29025   0.30837   0.31576   0.31586   0.32256

 Mulliken charges:
               1
     1  C   -0.170867
     2  C   -0.218479
     3  C   -0.170878
     4  C    0.159081
     5  C   -0.175506
     6  C   -0.219583
     7  H    0.225725
     8  H    0.223509
     9  H    0.275595
    10  H    0.281412
    11  H    0.224201
    12  N    0.487583
    13  O   -0.460274
    14  O   -0.460386
    15  C   -0.299096
    16  C   -0.298513
    17  C   -0.477347
    18  H    0.147757
    19  H    0.147615
    20  H    0.158887
    21  H    0.158116
    22  H    0.154326
    23  H    0.154919
    24  H    0.149414
    25  C   -0.298547
    26  C   -0.299543
    27  C   -0.475669
    28  H    0.152070
    29  H    0.151890
    30  H    0.150784
    31  H    0.150778
    32  H    0.155910
    33  H    0.156028
    34  H    0.159088
 Sum of Mulliken charges =  -0.00000

 Dipole moment (field-independent basis, Debye):
    X=              2.6972    Y=             -4.2639    Z=              0.9225  Tot=              5.1290
 Quadrupole moment (field-independent basis, Debye-Ang):
   XX=            -76.3444   YY=            -99.4151   ZZ=            -93.3469
   XY=             -9.9307   XZ=              5.0933   YZ=              2.3563

 Normal termination of Gaussian 16 at Thu May  6 10:47:42 2021.
