 Gaussian 16, Revision A.03,
 Gaussian 16:  EM64L-G16RevA.03 25-Dec-2016

 -------------
 #p 6-31g* mp2
 -------------

 ------------------------------------------------------
 Input file generated by CHIRIPA (05-May-2021 14:55:21)
 ------------------------------------------------------
 Symbolic Z-matrix:
 Charge =  0 Multiplicity = 1

                         Standard orientation:
 ---------------------------------------------------------------------
 Center     Atomic      Atomic             Coordinates (Angstroms)
 Number     Number       Type             X           Y           Z
 ---------------------------------------------------------------------
      1          6           0       -5.651156    0.471781    0.570705
      2          6           0       -4.759243    1.540335    0.432125
      3          6           0       -3.461275    1.325041   -0.040606
      4          6           0       -3.086915    0.022472   -0.366886
      5          6           0       -3.952509   -1.062831   -0.239787
      6          6           0       -5.245657   -0.824107    0.234898
      7          1           0       -6.657577    0.648127    0.938693
      8          1           0       -5.071417    2.547797    0.692150
      9          1           0       -2.750456    2.134036   -0.157572
     10          1           0       -3.612425   -2.055966   -0.507075
     11          1           0       -5.936198   -1.655872    0.341507
     12          7           0       -1.715365   -0.217852   -0.868380
     13          8           0       -1.409947   -1.374833   -1.149009
     14          8           0       -0.971733    0.755313   -0.971326
     15          6           0        4.747254   -0.006654   -0.203124
     16          6           0        6.144705    0.384102    0.278985
     17          6           0        7.147150    0.525921   -0.866783
     18          1           0        4.808908   -0.953108   -0.757533
     19          1           0        4.387683    0.749538   -0.914654
     20          1           0        6.500968   -0.371882    0.990449
     21          1           0        6.079688    1.329637    0.832475
     22          1           0        6.817862    1.294161   -1.573874
     23          1           0        7.241536   -0.417025   -1.415002
     24          1           0        8.139520    0.805708   -0.499657
     25          6           0        3.733929   -0.152271    0.930762
     26          6           0        2.336480   -0.543027    0.448653
     27          6           0        1.334034   -0.684847    1.594420
     28          1           0        4.093502   -0.908464    1.642291
     29          1           0        3.672276    0.794182    1.485170
     30          1           0        2.401496   -1.488562   -0.104838
     31          1           0        1.980217    0.212957   -0.262812
     32          1           0        1.239648    0.258100    2.142639
     33          1           0        1.663322   -1.453087    2.301511
     34          1           0        0.341665   -0.964633    1.227294
 ---------------------------------------------------------------------

 SCF Done:  E(RHF) =  -669.536262599     A.U. after   15 cycles
 E2 =    -0.2091901024D+01 EUMP2 =    -0.67162816362295D+03

 The electronic state is 1-A.
 Alpha  occ. eigenvalues --  -20.61011 -20.60995 -15.86005 -11.31313 -11.27873
 Alpha  occ. eigenvalues --  -11.27869 -11.27607 -11.26873 -11.26864 -11.20840
 Alpha  occ. eigenvalues --  -11.20423 -11.20410 -11.20237 -11.19983 -11.19762
 Alpha  occ. eigenvalues --   -1.60051  -1.39606  -1.19478  -1.08887  -1.07356
 Alpha  occ. eigenvalues --   -1.04870  -1.02426  -0.95734  -0.94937  -0.86272
 Alpha  occ. eigenvalues --   -0.85975  -0.82568  -0.78525  -0.77625  -0.77101
 Alpha  occ. eigenvalues --   -0.72229  -0.71388  -0.70588  -0.65134  -0.64874
 Alpha  occ. eigenvalues --   -0.63994  -0.62218  -0.59827  -0.58322  -0.56504
 Alpha  occ. eigenvalues --   -0.55371  -0.54255  -0.53203  -0.52962  -0.51652
 Alpha  occ. eigenvalues --   -0.51360  -0.49009  -0.48970  -0.48900  -0.46835
 Alpha  occ. eigenvalues --   -0.45558  -0.45031  -0.44668  -0.44501  -0.42703
 Alpha  occ. eigenvalues --   -0.37455  -0.36469
 Alpha virt. eigenvalues --    0.04873   0.11187   0.16360   0.21314   0.23871
 Alpha virt. eigenvalues --    0.25366   0.27241   0.27694   0.28150   0.28633
 Alpha virt. eigenvalues --    0.28933   0.30862   0.32310   0.32471   0.32794

 Mulliken charges:
               1
     1  C   -0.170412
     2  C   -0.218605
     3  C   -0.170428
     4  C    0.158262
     5  C   -0.170700
     6  C   -0.218592
     7  H    0.226103
     8  H    0.223900
     9  H    0.275817
    10  H    0.275965
    11  H    0.223938
    12  N    0.487160
    13  O   -0.458588
    14  O   -0.458105
    15  C   -0.297568
    16  C   -0.298684
    17  C   -0.475109
    18  H    0.149293
    19  H    0.150967
    20  H    0.149971
    21  H    0.150053
    22  H    0.154862
    23  H    0.154621
    24  H    0.157442
    25  C   -0.298392
    26  C   -0.300551
    27  C   -0.474390
    28  H    0.144507
    29  H    0.145565
    30  H    0.153051
    31  H    0.170545
    32  H    0.148183
    33  H    0.147076
    34  H    0.162845
 Sum of Mulliken charges =  -0.00000

 Dipole moment (field-independent basis, Debye):
    X=             -5.1666    Y=              0.8764    Z=              1.5816  Tot=              5.4739
 Quadrupole moment (field-independent basis, Debye-Ang):
   XX=            -67.0104   YY=            -89.0310   ZZ=            -97.8188
   XY=             -2.0145   XZ=             -3.5457   YZ=              0.3341

 Normal termination of Gaussian 16 at Thu May  6 17:29:47 2021.
