 Gaussian 16, Revision A.03,
 Gaussian 16:  EM64L-G16RevA.03 25-Dec-2016

 -------------
 #p 6-31g* mp2
 -------------

 ------------------------------------------------------
 Input file generated by CHIRIPA (05-May-2021 14:51:14)
 ------------------------------------------------------
 Symbolic Z-matrix:
 Charge =  0 Multiplicity = 1

                         Standard orientation:
 ---------------------------------------------------------------------
 Center     Atomic      Atomic             Coordinates (Angstroms)
 Number     Number       Type             X           Y           Z
 ---------------------------------------------------------------------
      1          6           0       -3.195920    0.351920    0.188939
      2          6           0       -3.936908   -0.297707   -0.980208
      3          6           0       -5.003539   -1.293650   -0.523932
      4          1           0       -2.729477   -0.432567    0.800458
      5          1           0       -3.922464    0.862277    0.836292
      6          1           0       -3.209025   -0.805517   -1.625912
      7          1           0       -4.401481    0.488429   -1.589123
      8          1           0       -5.751504   -0.797001    0.102557
      9          1           0       -4.552273   -2.098299    0.065559
     10          1           0       -5.520851   -1.746171   -1.375680
     11          6           0       -2.126435    1.350033   -0.251176
     12          6           0       -1.385448    1.999660    0.917971
     13          6           0       -0.318816    2.995604    0.461695
     14          1           0       -1.399892    0.839676   -0.898529
     15          1           0       -2.592879    2.134520   -0.862695
     16          1           0       -0.920875    1.213524    1.526886
     17          1           0       -2.113330    2.507470    1.563675
     18          1           0       -0.770082    3.800252   -0.127796
     19          1           0        0.429148    2.498954   -0.164794
     20          1           0        0.198496    3.448124    1.313443
     21          6           0        3.348244   -0.573191    0.216068
     22          6           0        4.019363    0.193339   -0.924114
     23          6           0        5.393136    0.742941   -0.538779
     24          1           0        3.248556    0.089836    1.086357
     25          1           0        4.001258   -1.400552    0.526621
     26          1           0        3.364656    1.018170   -1.233351
     27          1           0        4.117293   -0.471533   -1.791853
     28          1           0        6.066441   -0.070669   -0.250163
     29          1           0        5.309526    1.427497    0.311510
     30          1           0        5.854900    1.287281   -1.368435
     31          6           0        1.974111   -1.128762   -0.153831
     32          6           0        1.302992   -1.895293    0.986351
     33          6           0       -0.070780   -2.444894    0.601016
     34          1           0        1.321097   -0.301401   -0.464384
     35          1           0        2.073799   -1.791789   -1.024119
     36          1           0        1.205063   -1.230420    1.854090
     37          1           0        1.957700   -2.720123    1.295588
     38          1           0        0.012829   -3.129450   -0.249274
     39          1           0       -0.744085   -1.631283    0.312401
     40          1           0       -0.532544   -2.989234    1.430672
 ---------------------------------------------------------------------

 SCF Done:  E(RHF) =  -470.733139329     A.U. after   11 cycles
 E2 =    -0.1584401906D+01 EUMP2 =    -0.47231754123575D+03

 The electronic state is 1-A.
 Alpha  occ. eigenvalues --  -11.21672 -11.21667 -11.21631 -11.21589 -11.21462
 Alpha  occ. eigenvalues --  -11.21437 -11.21394 -11.21349 -11.21150 -11.21129
 Alpha  occ. eigenvalues --  -11.21083 -11.21043  -1.08511  -1.08437  -1.03580
 Alpha  occ. eigenvalues --   -1.03555  -0.96062  -0.95977  -0.87064  -0.87007
 Alpha  occ. eigenvalues --   -0.79668  -0.79596  -0.78304  -0.78266  -0.65423
 Alpha  occ. eigenvalues --   -0.64855  -0.61004  -0.60910  -0.59395  -0.59373
 Alpha  occ. eigenvalues --   -0.57644  -0.57613  -0.55571  -0.55061  -0.52724
 Alpha  occ. eigenvalues --   -0.52699  -0.52476  -0.52400  -0.50085  -0.49842
 Alpha  occ. eigenvalues --   -0.47966  -0.47936  -0.46822  -0.46562  -0.46004
 Alpha  occ. eigenvalues --   -0.45808  -0.45686  -0.45510  -0.43833  -0.43809
 Alpha virt. eigenvalues --    0.18470   0.22039   0.24130   0.24243   0.25625
 Alpha virt. eigenvalues --    0.26412   0.26912   0.27760   0.28893   0.29396
 Alpha virt. eigenvalues --    0.30815   0.31469   0.31735   0.31818   0.32362

 Mulliken charges:
               1
     1  C   -0.303289
     2  C   -0.300076
     3  C   -0.475864
     4  H    0.153754
     5  H    0.150239
     6  H    0.152614
     7  H    0.151900
     8  H    0.154944
     9  H    0.156018
    10  H    0.160201
    11  C   -0.301928
    12  C   -0.300931
    13  C   -0.477776
    14  H    0.151073
    15  H    0.150500
    16  H    0.152755
    17  H    0.152662
    18  H    0.155797
    19  H    0.155948
    20  H    0.160431
    21  C   -0.298203
    22  C   -0.300208
    23  C   -0.475747
    24  H    0.150204
    25  H    0.149769
    26  H    0.152092
    27  H    0.152005
    28  H    0.155188
    29  H    0.155506
    30  H    0.160431
    31  C   -0.302890
    32  C   -0.299581
    33  C   -0.484634
    34  H    0.152742
    35  H    0.149915
    36  H    0.152245
    37  H    0.152484
    38  H    0.155524
    39  H    0.163976
    40  H    0.160210
 Sum of Mulliken charges =  -0.00000

 Dipole moment (field-independent basis, Debye):
    X=              0.0009    Y=             -0.0036    Z=              0.0032  Tot=              0.0049
 Quadrupole moment (field-independent basis, Debye-Ang):
   XX=            -85.6865   YY=            -84.1925   ZZ=            -84.7285
   XY=             -1.9782   XZ=             -0.1507   YZ=              0.3818

 Normal termination of Gaussian 16 at Wed May  5 20:01:53 2021.
