 Gaussian 16, Revision A.03,
 Gaussian 16:  EM64L-G16RevA.03 25-Dec-2016

 -------------
 #p 6-31g* mp2
 -------------

 ------------------------------------------------------
 Input file generated by CHIRIPA (05-May-2021 14:57:25)
 ------------------------------------------------------
 Symbolic Z-matrix:
 Charge =  0 Multiplicity = 1

                         Standard orientation:
 ---------------------------------------------------------------------
 Center     Atomic      Atomic             Coordinates (Angstroms)
 Number     Number       Type             X           Y           Z
 ---------------------------------------------------------------------
      1          6           0       -2.889073   -2.195606    0.807271
      2          6           0       -3.650103   -1.653281   -0.233517
      3          6           0       -3.530453   -0.301870   -0.571035
      4          6           0       -2.636074    0.481832    0.156419
      5          6           0       -1.864035   -0.029159    1.198597
      6          6           0       -2.000035   -1.383246    1.518751
      7          1           0       -2.988370   -3.246455    1.062719
      8          1           0       -4.341337   -2.281796   -0.787781
      9          1           0       -4.107434    0.143870   -1.372176
     10          1           0       -1.183367    0.622396    1.732999
     11          1           0       -1.407732   -1.801709    2.327523
     12          7           0       -2.500752    1.913927   -0.191705
     13          8           0       -1.705720    2.583245    0.464477
     14          8           0       -3.192280    2.339968   -1.114155
     15          6           0        4.174175    1.657158    0.454796
     16          6           0        4.660387    0.345671    0.443659
     17          6           0        3.829492   -0.716495    0.074931
     18          6           0        2.511836   -0.429776   -0.278431
     19          6           0        1.998014    0.866092   -0.277236
     20          6           0        2.846881    1.912732    0.094947
     21          1           0        4.826615    2.476243    0.742576
     22          1           0        5.690742    0.144222    0.722644
     23          1           0        4.179962   -1.741330    0.057572
     24          1           0        0.966266    1.035639   -0.560376
     25          1           0        2.466563    2.930250    0.102681
     26          7           0        1.622691   -1.546026   -0.670617
     27          8           0        0.465751   -1.267027   -0.977680
     28          8           0        2.099555   -2.678804   -0.663522
 ---------------------------------------------------------------------

 SCF Done:  E(RHF) =  -868.339640508     A.U. after   16 cycles
 E2 =    -0.2601167367D+01 EUMP2 =    -0.87094080787431D+03

 The electronic state is 1-A.
 Alpha  occ. eigenvalues --  -20.60941 -20.60881 -20.60663 -20.60606 -15.85926
 Alpha  occ. eigenvalues --  -15.85647 -11.31112 -11.30492 -11.27690 -11.27553
 Alpha  occ. eigenvalues --  -11.27347 -11.27079 -11.27027 -11.26677 -11.26673
 Alpha  occ. eigenvalues --  -11.26518 -11.25951 -11.25939  -1.59988  -1.59704
 Alpha  occ. eigenvalues --   -1.39545  -1.39276  -1.19263  -1.18615  -1.08698
 Alpha  occ. eigenvalues --   -1.08117  -1.04610  -1.03985  -0.95563  -0.95045
 Alpha  occ. eigenvalues --   -0.86027  -0.85431  -0.82384  -0.81928  -0.77462
 Alpha  occ. eigenvalues --   -0.77028  -0.72178  -0.71892  -0.71322  -0.71000
 Alpha  occ. eigenvalues --   -0.70351  -0.69792  -0.64903  -0.64594  -0.64317
 Alpha  occ. eigenvalues --   -0.64043  -0.61946  -0.61392  -0.55133  -0.54526
 Alpha  occ. eigenvalues --   -0.52992  -0.52681  -0.52250  -0.52129  -0.48943
 Alpha  occ. eigenvalues --   -0.48902  -0.48671  -0.48590  -0.44989  -0.44778
 Alpha  occ. eigenvalues --   -0.37259  -0.36508  -0.36213  -0.35450
 Alpha virt. eigenvalues --    0.04941   0.05575   0.11346   0.12142   0.16535
 Alpha virt. eigenvalues --    0.17123   0.21585   0.22130   0.27324   0.27957
 Alpha virt. eigenvalues --    0.28309   0.29045   0.31079   0.31546   0.32414

 Mulliken charges:
               1
     1  C   -0.162370
     2  C   -0.215298
     3  C   -0.168287
     4  C    0.161191
     5  C   -0.165825
     6  C   -0.209501
     7  H    0.225302
     8  H    0.221642
     9  H    0.272503
    10  H    0.266813
    11  H    0.220012
    12  N    0.487251
    13  O   -0.472822
    14  O   -0.458557
    15  C   -0.171126
    16  C   -0.218912
    17  C   -0.172420
    18  C    0.156305
    19  C   -0.175386
    20  C   -0.220331
    21  H    0.226321
    22  H    0.222564
    23  H    0.273535
    24  H    0.280520
    25  H    0.233348
    26  N    0.487053
    27  O   -0.459556
    28  O   -0.463970
 Sum of Mulliken charges =  -0.00000

 Dipole moment (field-independent basis, Debye):
    X=              2.5845    Y=             -1.2280    Z=              2.5284  Tot=              3.8184
 Quadrupole moment (field-independent basis, Debye-Ang):
   XX=            -82.2087   YY=           -111.8056   ZZ=           -103.8441
   XY=             20.5412   XZ=              2.9940   YZ=             -2.1368

 Normal termination of Gaussian 16 at Thu May  6 16:22:01 2021.
