 Gaussian 16, Revision A.03,
 Gaussian 16:  EM64L-G16RevA.03 25-Dec-2016

 -------------
 #p 6-31g* mp2
 -------------

 ------------------------------------------------------
 Input file generated by CHIRIPA (05-May-2021 14:55:24)
 ------------------------------------------------------
 Symbolic Z-matrix:
 Charge =  0 Multiplicity = 1

                         Standard orientation:
 ---------------------------------------------------------------------
 Center     Atomic      Atomic             Coordinates (Angstroms)
 Number     Number       Type             X           Y           Z
 ---------------------------------------------------------------------
      1          6           0       -1.470911    2.747010   -0.815637
      2          6           0       -0.943259    2.329385    0.410615
      3          6           0       -1.334702    1.111264    0.974088
      4          6           0       -2.259939    0.332246    0.281011
      5          6           0       -2.803637    0.720901   -0.942357
      6          6           0       -2.397781    1.942852   -1.487026
      7          1           0       -1.161230    3.694763   -1.246053
      8          1           0       -0.223276    2.951853    0.934259
      9          1           0       -0.942082    0.763746    1.921980
     10          1           0       -3.519625    0.078776   -1.440809
     11          1           0       -2.809226    2.264647   -2.439500
     12          7           0       -2.681971   -0.959352    0.867581
     13          8           0       -3.498566   -1.627416    0.237104
     14          8           0       -2.188175   -1.279186    1.946705
     15          6           0        2.165027   -1.093627   -0.098761
     16          6           0        1.727090   -1.965145   -1.276322
     17          6           0        0.447913   -2.750991   -0.986590
     18          1           0        2.315933   -1.729987    0.783972
     19          1           0        1.354333   -0.396152    0.153629
     20          1           0        2.538901   -2.659830   -1.527306
     21          1           0        1.577395   -1.326660   -2.156405
     22          1           0       -0.378625   -2.070615   -0.757409
     23          1           0        0.588343   -3.411359   -0.124735
     24          1           0        0.152945   -3.367213   -1.841647
     25          6           0        3.442355   -0.301871   -0.373143
     26          6           0        3.880291    0.569647    0.804419
     27          6           0        5.159469    1.355492    0.514687
     28          1           0        4.253048   -0.999345   -0.625532
     29          1           0        3.291449    0.334489   -1.255876
     30          1           0        4.029987   -0.068838    1.684502
     31          1           0        3.068481    1.264332    1.055402
     32          1           0        5.019039    2.015861   -0.347169
     33          1           0        5.986007    0.675117    0.285505
     34          1           0        5.454437    1.971716    1.369744
 ---------------------------------------------------------------------

 SCF Done:  E(RHF) =  -669.535493149     A.U. after   15 cycles
 E2 =    -0.2093201526D+01 EUMP2 =    -0.67162869467509D+03

 The electronic state is 1-A.
 Alpha  occ. eigenvalues --  -20.60810 -20.60805 -15.85861 -11.31280 -11.27856
 Alpha  occ. eigenvalues --  -11.27849 -11.27596 -11.26883 -11.26862 -11.21851
 Alpha  occ. eigenvalues --  -11.21474 -11.21426 -11.21329 -11.21269 -11.20686
 Alpha  occ. eigenvalues --   -1.59888  -1.39437  -1.19464  -1.08846  -1.08446
 Alpha  occ. eigenvalues --   -1.04867  -1.03521  -0.95949  -0.95670  -0.86961
 Alpha  occ. eigenvalues --   -0.86257  -0.82496  -0.79603  -0.78247  -0.77534
 Alpha  occ. eigenvalues --   -0.72080  -0.71235  -0.70554  -0.65114  -0.65080
 Alpha  occ. eigenvalues --   -0.64858  -0.62205  -0.60927  -0.59342  -0.57558
 Alpha  occ. eigenvalues --   -0.55357  -0.55238  -0.53207  -0.52950  -0.52641
 Alpha  occ. eigenvalues --   -0.52360  -0.49900  -0.48846  -0.48832  -0.47905
 Alpha  occ. eigenvalues --   -0.46659  -0.45780  -0.45701  -0.44821  -0.43767
 Alpha  occ. eigenvalues --   -0.37425  -0.36438
 Alpha virt. eigenvalues --    0.04967   0.11144   0.16414   0.20990   0.22806
 Alpha virt. eigenvalues --    0.24120   0.25813   0.26986   0.27595   0.28041
 Alpha virt. eigenvalues --    0.28722   0.30126   0.31613   0.31751   0.32150

 Mulliken charges:
               1
     1  C   -0.170665
     2  C   -0.219479
     3  C   -0.170825
     4  C    0.154864
     5  C   -0.171626
     6  C   -0.218229
     7  H    0.226107
     8  H    0.224435
     9  H    0.277234
    10  H    0.276481
    11  H    0.223972
    12  N    0.491377
    13  O   -0.459574
    14  O   -0.459037
    15  C   -0.301594
    16  C   -0.300042
    17  C   -0.472968
    18  H    0.152811
    19  H    0.148347
    20  H    0.151455
    21  H    0.148785
    22  H    0.150726
    23  H    0.161774
    24  H    0.160586
    25  C   -0.297681
    26  C   -0.297924
    27  C   -0.475569
    28  H    0.150665
    29  H    0.147338
    30  H    0.154397
    31  H    0.143789
    32  H    0.153390
    33  H    0.157177
    34  H    0.159504
 Sum of Mulliken charges =  -0.00000

 Dipole moment (field-independent basis, Debye):
    X=              1.3997    Y=              4.4725    Z=             -2.0381  Tot=              5.1104
 Quadrupole moment (field-independent basis, Debye-Ang):
   XX=           -100.7508   YY=            -91.7161   ZZ=            -93.0454
   XY=            -10.5314   XZ=              8.2110   YZ=              0.8879

 Normal termination of Gaussian 16 at Thu May  6 03:10:19 2021.
