 Gaussian 16, Revision A.03,
 Gaussian 16:  EM64L-G16RevA.03 25-Dec-2016

 -------------
 #p 6-31g* mp2
 -------------

 ------------------------------------------------------
 Input file generated by CHIRIPA (05-May-2021 14:51:14)
 ------------------------------------------------------
 Symbolic Z-matrix:
 Charge =  0 Multiplicity = 1

                         Standard orientation:
 ---------------------------------------------------------------------
 Center     Atomic      Atomic             Coordinates (Angstroms)
 Number     Number       Type             X           Y           Z
 ---------------------------------------------------------------------
      1          6           0       -4.227494    0.661423   -0.326669
      2          6           0       -4.281514    1.813296    0.677450
      3          6           0       -5.161594    2.970162    0.203198
      4          1           0       -3.852926    1.038744   -1.288060
      5          1           0       -5.247414    0.296101   -0.510238
      6          1           0       -3.261657    2.175425    0.860122
      7          1           0       -4.655816    1.433149    1.636618
      8          1           0       -6.189263    2.630230    0.039054
      9          1           0       -4.787183    3.376724   -0.741855
     10          1           0       -5.185986    3.782651    0.936087
     11          6           0       -3.351579   -0.502610    0.133255
     12          6           0       -3.297559   -1.654482   -0.870864
     13          6           0       -2.417480   -2.811349   -0.396612
     14          1           0       -2.331659   -0.137288    0.316824
     15          1           0       -3.726147   -0.879931    1.094646
     16          1           0       -2.923258   -1.274335   -1.830032
     17          1           0       -4.317416   -2.016612   -1.053536
     18          1           0       -2.791891   -3.217911    0.548441
     19          1           0       -1.389811   -2.471416   -0.232468
     20          1           0       -2.393088   -3.623838   -1.129501
     21          6           0        4.042720    0.503919   -0.326449
     22          6           0        5.322460    1.138322    0.219250
     23          6           0        5.816554    2.303907   -0.638116
     24          1           0        4.222483    0.155641   -1.352769
     25          1           0        3.259238    1.271744   -0.389652
     26          1           0        6.102891    0.369222    0.282707
     27          1           0        5.139686    1.484959    1.244458
     28          1           0        5.057793    3.091299   -0.691941
     29          1           0        6.026472    1.969223   -1.659156
     30          1           0        6.732372    2.742617   -0.229865
     31          6           0        3.536353   -0.662732    0.519862
     32          6           0        2.256614   -1.297135   -0.025835
     33          6           0        1.762520   -2.462720    0.831531
     34          1           0        4.319836   -1.430558    0.583066
     35          1           0        3.356590   -0.314454    1.546182
     36          1           0        2.439388   -1.643772   -1.051043
     37          1           0        1.476182   -0.528035   -0.089293
     38          1           0        1.552601   -2.128036    1.852570
     39          1           0        2.521280   -3.250112    0.885355
     40          1           0        0.846701   -2.901431    0.423279
 ---------------------------------------------------------------------

 SCF Done:  E(RHF) =  -470.733313674     A.U. after   11 cycles
 E2 =    -0.1582342285D+01 EUMP2 =    -0.47231565595851D+03

 The electronic state is 1-A.
 Alpha  occ. eigenvalues --  -11.21629 -11.21614 -11.21612 -11.21604 -11.21422
 Alpha  occ. eigenvalues --  -11.21412 -11.21362 -11.21352 -11.21083 -11.21080
 Alpha  occ. eigenvalues --  -11.21059 -11.21044  -1.08448  -1.08434  -1.03557
 Alpha  occ. eigenvalues --   -1.03521  -0.96023  -0.95954  -0.87055  -0.86956
 Alpha  occ. eigenvalues --   -0.79631  -0.79573  -0.78260  -0.78248  -0.65089
 Alpha  occ. eigenvalues --   -0.65056  -0.60984  -0.60913  -0.59404  -0.59330
 Alpha  occ. eigenvalues --   -0.57719  -0.57497  -0.55305  -0.55241  -0.52807
 Alpha  occ. eigenvalues --   -0.52662  -0.52480  -0.52247  -0.49943  -0.49890
 Alpha  occ. eigenvalues --   -0.47998  -0.47828  -0.46642  -0.46618  -0.45801
 Alpha  occ. eigenvalues --   -0.45790  -0.45739  -0.45698  -0.43800  -0.43767
 Alpha virt. eigenvalues --    0.21473   0.23091   0.23445   0.24874   0.26271
 Alpha virt. eigenvalues --    0.26655   0.26928   0.27359   0.27854   0.28873
 Alpha virt. eigenvalues --    0.30429   0.31287   0.31622   0.31760   0.32032

 Mulliken charges:
               1
     1  C   -0.298344
     2  C   -0.299610
     3  C   -0.475712
     4  H    0.149687
     5  H    0.149609
     6  H    0.151703
     7  H    0.151983
     8  H    0.155242
     9  H    0.155195
    10  H    0.160237
    11  C   -0.298342
    12  C   -0.299281
    13  C   -0.482641
    14  H    0.149322
    15  H    0.149760
    16  H    0.152009
    17  H    0.151949
    18  H    0.155504
    19  H    0.161766
    20  H    0.160190
    21  C   -0.298266
    22  C   -0.299682
    23  C   -0.475713
    24  H    0.149673
    25  H    0.149296
    26  H    0.152011
    27  H    0.151988
    28  H    0.155130
    29  H    0.155192
    30  H    0.160321
    31  C   -0.298190
    32  C   -0.299979
    33  C   -0.482161
    34  H    0.149806
    35  H    0.149769
    36  H    0.152077
    37  H    0.150965
    38  H    0.155293
    39  H    0.155427
    40  H    0.166818
 Sum of Mulliken charges =  -0.00000

 Dipole moment (field-independent basis, Debye):
    X=              0.0011    Y=             -0.0114    Z=              0.0026  Tot=              0.0117
 Quadrupole moment (field-independent basis, Debye-Ang):
   XX=            -84.3779   YY=            -85.7400   ZZ=            -84.5797
   XY=              0.1063   XZ=             -0.5787   YZ=              0.7956

 Normal termination of Gaussian 16 at Wed May  5 23:14:29 2021.
