 Gaussian 16, Revision A.03,
 Gaussian 16:  EM64L-G16RevA.03 25-Dec-2016

 -------------
 #p 6-31g* mp2
 -------------

 ------------------------------------------------------
 Input file generated by CHIRIPA (05-May-2021 14:51:10)
 ------------------------------------------------------
 Symbolic Z-matrix:
 Charge =  0 Multiplicity = 1

                         Standard orientation:
 ---------------------------------------------------------------------
 Center     Atomic      Atomic             Coordinates (Angstroms)
 Number     Number       Type             X           Y           Z
 ---------------------------------------------------------------------
      1          6           0        2.473942   -0.018048   -0.566272
      2          6           0        3.302808    1.266376   -0.531313
      3          6           0        3.339372    1.983263   -1.881324
      4          1           0        2.885799   -0.691999   -1.329888
      5          1           0        1.449569    0.223366   -0.882144
      6          1           0        4.324949    1.022809   -0.214266
      7          1           0        2.889046    1.937268    0.232442
      8          1           0        2.328030    2.254650   -2.200911
      9          1           0        3.772091    1.334995   -2.650157
     10          1           0        3.937239    2.898765   -1.833666
     11          6           0        2.427883   -0.746050    0.775972
     12          6           0        1.599017   -2.030474    0.741013
     13          6           0        1.562452   -2.747361    2.091024
     14          1           0        3.452255   -0.987463    1.091844
     15          1           0        2.016026   -0.072099    1.539588
     16          1           0        2.012778   -2.701366   -0.022742
     17          1           0        0.576876   -1.786906    0.423966
     18          1           0        1.129734   -2.099092    2.859857
     19          1           0        2.573795   -3.018748    2.410611
     20          1           0        0.964585   -3.662863    2.043366
     21          6           0       -2.034555    1.000499    0.061277
     22          6           0       -2.653367    1.872369    1.154392
     23          6           0       -1.808814    3.105795    1.475614
     24          1           0       -1.029863    0.686849    0.376174
     25          1           0       -1.903192    1.603067   -0.848146
     26          1           0       -2.784801    1.267965    2.061055
     27          1           0       -3.656780    2.183823    0.836939
     28          1           0       -1.688102    3.732373    0.585990
     29          1           0       -0.811170    2.811312    1.817061
     30          1           0       -2.269644    3.714839    2.259552
     31          6           0       -2.867269   -0.236401   -0.270977
     32          6           0       -2.248457   -1.108271   -1.364092
     33          6           0       -3.093011   -2.341698   -1.685314
     34          1           0       -2.998632   -0.838969    0.638446
     35          1           0       -3.871962    0.077249   -0.585874
     36          1           0       -1.245045   -1.419725   -1.046639
     37          1           0       -2.117023   -0.503867   -2.270755
     38          1           0       -4.090655   -2.047214   -2.026761
     39          1           0       -3.213723   -2.968276   -0.795690
     40          1           0       -2.632181   -2.950742   -2.469253
 ---------------------------------------------------------------------

 SCF Done:  E(RHF) =  -470.733248655     A.U. after   11 cycles
 E2 =    -0.1584059381D+01 EUMP2 =    -0.47231730803590D+03

 The electronic state is 1-A.
 Alpha  occ. eigenvalues --  -11.21668 -11.21646 -11.21612 -11.21591 -11.21477
 Alpha  occ. eigenvalues --  -11.21426 -11.21408 -11.21346 -11.21136 -11.21122
 Alpha  occ. eigenvalues --  -11.21086 -11.21051  -1.08509  -1.08433  -1.03584
 Alpha  occ. eigenvalues --   -1.03542  -0.96029  -0.95993  -0.87046  -0.87009
 Alpha  occ. eigenvalues --   -0.79691  -0.79572  -0.78412  -0.78164  -0.65340
 Alpha  occ. eigenvalues --   -0.64886  -0.61074  -0.60859  -0.59413  -0.59343
 Alpha  occ. eigenvalues --   -0.57652  -0.57591  -0.55346  -0.55253  -0.52725
 Alpha  occ. eigenvalues --   -0.52684  -0.52465  -0.52406  -0.50010  -0.49910
 Alpha  occ. eigenvalues --   -0.48085  -0.47854  -0.46893  -0.46494  -0.46287
 Alpha  occ. eigenvalues --   -0.45794  -0.45766  -0.45137  -0.43834  -0.43797
 Alpha virt. eigenvalues --    0.19443   0.22932   0.23938   0.24487   0.25143
 Alpha virt. eigenvalues --    0.26652   0.26999   0.27729   0.28009   0.30442
 Alpha virt. eigenvalues --    0.31192   0.31598   0.31637   0.31850   0.31965

 Mulliken charges:
               1
     1  C   -0.303033
     2  C   -0.299402
     3  C   -0.475751
     4  H    0.149569
     5  H    0.154233
     6  H    0.151827
     7  H    0.151909
     8  H    0.155600
     9  H    0.155042
    10  H    0.160199
    11  C   -0.297571
    12  C   -0.309650
    13  C   -0.475069
    14  H    0.149940
    15  H    0.148736
    16  H    0.152294
    17  H    0.160308
    18  H    0.154761
    19  H    0.155600
    20  H    0.160270
    21  C   -0.303535
    22  C   -0.299588
    23  C   -0.475672
    24  H    0.153371
    25  H    0.149568
    26  H    0.152100
    27  H    0.152470
    28  H    0.155387
    29  H    0.154479
    30  H    0.160684
    31  C   -0.297698
    32  C   -0.309179
    33  C   -0.475190
    34  H    0.149444
    35  H    0.150091
    36  H    0.160519
    37  H    0.152054
    38  H    0.155226
    39  H    0.155106
    40  H    0.160551
 Sum of Mulliken charges =  -0.00000

 Dipole moment (field-independent basis, Debye):
    X=             -0.0135    Y=             -0.0022    Z=             -0.0106  Tot=              0.0173
 Quadrupole moment (field-independent basis, Debye-Ang):
   XX=            -84.0613   YY=            -85.4487   ZZ=            -85.1573
   XY=             -1.3039   XZ=              0.0650   YZ=              0.0230

 Normal termination of Gaussian 16 at Wed May  5 19:47:02 2021.
