 Gaussian 16, Revision A.03,
 Gaussian 16:  EM64L-G16RevA.03 25-Dec-2016

 -------------
 #p 6-31g* mp2
 -------------

 ------------------------------------------------------
 Input file generated by CHIRIPA (05-May-2021 14:55:23)
 ------------------------------------------------------
 Symbolic Z-matrix:
 Charge =  0 Multiplicity = 1

                         Standard orientation:
 ---------------------------------------------------------------------
 Center     Atomic      Atomic             Coordinates (Angstroms)
 Number     Number       Type             X           Y           Z
 ---------------------------------------------------------------------
      1          6           0       -4.168401    0.501964   -1.304912
      2          6           0       -3.128546   -0.212015   -1.909442
      3          6           0       -2.118602   -0.788906   -1.133712
      4          6           0       -2.179991   -0.631471    0.250028
      5          6           0       -3.202888    0.074044    0.881867
      6          6           0       -4.202194    0.642468    0.086360
      7          1           0       -4.948818    0.946818   -1.915199
      8          1           0       -3.099739   -0.322746   -2.989698
      9          1           0       -1.301990   -1.346799   -1.575661
     10          1           0       -3.204589    0.167421    1.961077
     11          1           0       -5.008544    1.196413    0.558577
     12          7           0       -1.116439   -1.237717    1.081727
     13          8           0       -1.193331   -1.084660    2.298813
     14          8           0       -0.226074   -1.854471    0.500778
     15          6           0        2.954455    1.397352    0.111855
     16          6           0        1.553635    1.986284   -0.057984
     17          6           0        1.448849    3.421144    0.459696
     18          1           0        3.231097    1.426340    1.174669
     19          1           0        3.678347    2.032723   -0.416993
     20          1           0        0.832421    1.349229    0.469869
     21          1           0        1.280220    1.955716   -1.120493
     22          1           0        2.146049    4.075118   -0.073999
     23          1           0        1.695707    3.465186    1.525398
     24          1           0        0.439140    3.822552    0.328470
     25          6           0        3.075053   -0.036574   -0.401017
     26          6           0        4.475874   -0.625507   -0.231178
     27          6           0        4.580660   -2.060365   -0.748858
     28          1           0        2.351161   -0.671945    0.127831
     29          1           0        2.798413   -0.065562   -1.463832
     30          1           0        4.749290   -0.594937    0.831331
     31          1           0        5.197087    0.011549   -0.759031
     32          1           0        4.333803   -2.104408   -1.814562
     33          1           0        3.883460   -2.714340   -0.215163
     34          1           0        5.590369   -2.461774   -0.617632
 ---------------------------------------------------------------------

 SCF Done:  E(RHF) =  -669.536351754     A.U. after   15 cycles
 E2 =    -0.2092136003D+01 EUMP2 =    -0.67162848775669D+03

 The electronic state is 1-A.
 Alpha  occ. eigenvalues --  -20.60995 -20.60983 -15.86011 -11.31289 -11.27850
 Alpha  occ. eigenvalues --  -11.27841 -11.27582 -11.26846 -11.26835 -11.21150
 Alpha  occ. eigenvalues --  -11.20752 -11.20727 -11.20682 -11.20307 -11.20226
 Alpha  occ. eigenvalues --   -1.60051  -1.39606  -1.19453  -1.08869  -1.07671
 Alpha  occ. eigenvalues --   -1.04842  -1.02862  -0.95718  -0.95293  -0.86320
 Alpha  occ. eigenvalues --   -0.86245  -0.82552  -0.78952  -0.77634  -0.77423
 Alpha  occ. eigenvalues --   -0.72236  -0.71364  -0.70564  -0.65112  -0.64848
 Alpha  occ. eigenvalues --   -0.64284  -0.62190  -0.60259  -0.58693  -0.56909
 Alpha  occ. eigenvalues --   -0.55353  -0.54569  -0.53173  -0.52935  -0.52050
 Alpha  occ. eigenvalues --   -0.51721  -0.49242  -0.49001  -0.48990  -0.47269
 Alpha  occ. eigenvalues --   -0.45988  -0.45382  -0.45000  -0.44453  -0.43075
 Alpha  occ. eigenvalues --   -0.37426  -0.36437
 Alpha virt. eigenvalues --    0.04878   0.11212   0.16353   0.21319   0.23534
 Alpha virt. eigenvalues --    0.24933   0.27165   0.27263   0.27683   0.28451
 Alpha virt. eigenvalues --    0.28740   0.31045   0.31931   0.32300   0.32475

 Mulliken charges:
               1
     1  C   -0.170351
     2  C   -0.218688
     3  C   -0.169828
     4  C    0.157470
     5  C   -0.170855
     6  C   -0.218674
     7  H    0.226001
     8  H    0.223845
     9  H    0.276418
    10  H    0.275815
    11  H    0.223792
    12  N    0.489261
    13  O   -0.459223
    14  O   -0.459604
    15  C   -0.297244
    16  C   -0.298122
    17  C   -0.475149
    18  H    0.151354
    19  H    0.145337
    20  H    0.151297
    21  H    0.146825
    22  H    0.153727
    23  H    0.157079
    24  H    0.155808
    25  C   -0.310205
    26  C   -0.298507
    27  C   -0.476392
    28  H    0.177610
    29  H    0.141371
    30  H    0.152256
    31  H    0.146724
    32  H    0.150902
    33  H    0.163466
    34  H    0.156483
 Sum of Mulliken charges =  -0.00000

 Dipole moment (field-independent basis, Debye):
    X=             -3.9437    Y=              1.9752    Z=             -2.8149  Tot=              5.2324
 Quadrupole moment (field-independent basis, Debye-Ang):
   XX=            -78.5910   YY=            -98.8464   ZZ=            -92.3221
   XY=             -3.2237   XZ=              3.7920   YZ=              3.3880

 Normal termination of Gaussian 16 at Thu May  6 07:52:14 2021.
