 Gaussian 16, Revision A.03,
 Gaussian 16:  EM64L-G16RevA.03 25-Dec-2016

 -------------
 #p 6-31g* mp2
 -------------

 ------------------------------------------------------
 Input file generated by CHIRIPA (05-May-2021 14:51:09)
 ------------------------------------------------------
 Symbolic Z-matrix:
 Charge =  0 Multiplicity = 1

                         Standard orientation:
 ---------------------------------------------------------------------
 Center     Atomic      Atomic             Coordinates (Angstroms)
 Number     Number       Type             X           Y           Z
 ---------------------------------------------------------------------
      1          6           0        3.771458    0.093295   -0.109042
      2          6           0        3.909524   -1.101557   -1.053103
      3          6           0        5.158505   -1.937009   -0.770510
      4          1           0        4.665152    0.726311   -0.195912
      5          1           0        3.744555   -0.268872    0.928025
      6          1           0        3.934767   -0.737345   -2.088153
      7          1           0        3.015312   -1.731700   -0.964116
      8          1           0        5.137209   -2.328061    0.251853
      9          1           0        6.061888   -1.328057   -0.878571
     10          1           0        5.237457   -2.785868   -1.456852
     11          6           0        2.527669    0.938168   -0.379054
     12          6           0        2.389602    2.133020    0.565008
     13          6           0        1.140621    2.968473    0.282415
     14          1           0        2.554572    1.300335   -1.416120
     15          1           0        1.633975    0.305152   -0.292183
     16          1           0        3.283815    2.763164    0.476020
     17          1           0        2.364360    1.768809    1.600058
     18          1           0        0.237238    2.359520    0.390476
     19          1           0        1.161917    3.359525   -0.739948
     20          1           0        1.061670    3.817331    0.968757
     21          6           0       -2.395987   -0.634827    0.281067
     22          6           0       -1.908934   -1.006494    1.682006
     23          6           0       -0.399249   -1.241620    1.739978
     24          1           0       -2.120832   -1.434617   -0.420054
     25          1           0       -1.869944    0.269652   -0.054478
     26          1           0       -2.436746   -1.909212    2.015368
     27          1           0       -2.185449   -0.205815    2.379910
     28          1           0        0.142905   -0.341452    1.432785
     29          1           0       -0.109820   -2.054527    1.066172
     30          1           0       -0.072645   -1.506074    2.750549
     31          6           0       -3.903139   -0.396636    0.207027
     32          6           0       -4.390193   -0.024970   -1.193911
     33          6           0       -5.899877    0.210156   -1.251883
     34          1           0       -4.429183   -1.301116    0.542573
     35          1           0       -4.178295    0.403153    0.908150
     36          1           0       -4.113678   -0.825649   -1.891815
     37          1           0       -3.862380    0.877748   -1.527273
     38          1           0       -6.189306    1.023063   -0.578077
     39          1           0       -6.442031   -0.690012   -0.944689
     40          1           0       -6.226481    0.474610   -2.262454
 ---------------------------------------------------------------------

 SCF Done:  E(RHF) =  -470.733167520     A.U. after   11 cycles
 E2 =    -0.1583501909D+01 EUMP2 =    -0.47231666942901D+03

 The electronic state is 1-A.
 Alpha  occ. eigenvalues --  -11.21666 -11.21613 -11.21604 -11.21555 -11.21452
 Alpha  occ. eigenvalues --  -11.21387 -11.21346 -11.21283 -11.21151 -11.21123
 Alpha  occ. eigenvalues --  -11.21078 -11.21034  -1.08479  -1.08395  -1.03584
 Alpha  occ. eigenvalues --   -1.03510  -0.96034  -0.95960  -0.87061  -0.86970
 Alpha  occ. eigenvalues --   -0.79657  -0.79564  -0.78315  -0.78176  -0.65204
 Alpha  occ. eigenvalues --   -0.64966  -0.61117  -0.60783  -0.59404  -0.59319
 Alpha  occ. eigenvalues --   -0.57660  -0.57554  -0.55354  -0.55221  -0.52719
 Alpha  occ. eigenvalues --   -0.52666  -0.52506  -0.52345  -0.50074  -0.49806
 Alpha  occ. eigenvalues --   -0.48058  -0.47851  -0.46769  -0.46549  -0.45987
 Alpha  occ. eigenvalues --   -0.45772  -0.45704  -0.45373  -0.43828  -0.43760
 Alpha virt. eigenvalues --    0.19668   0.22803   0.23701   0.24755   0.25959
 Alpha virt. eigenvalues --    0.26238   0.27023   0.27473   0.28595   0.29764
 Alpha virt. eigenvalues --    0.30200   0.31521   0.31544   0.31805   0.32048

 Mulliken charges:
               1
     1  C   -0.298003
     2  C   -0.299814
     3  C   -0.475733
     4  H    0.149324
     5  H    0.150086
     6  H    0.151671
     7  H    0.152445
     8  H    0.155319
     9  H    0.155014
    10  H    0.160017
    11  C   -0.304039
    12  C   -0.300553
    13  C   -0.478941
    14  H    0.149362
    15  H    0.155371
    16  H    0.152415
    17  H    0.152418
    18  H    0.156097
    19  H    0.155718
    20  H    0.160560
    21  C   -0.301412
    22  C   -0.299229
    23  C   -0.483411
    24  H    0.149901
    25  H    0.151483
    26  H    0.152335
    27  H    0.152227
    28  H    0.162781
    29  H    0.155007
    30  H    0.160621
    31  C   -0.298223
    32  C   -0.299809
    33  C   -0.475757
    34  H    0.149714
    35  H    0.149874
    36  H    0.151989
    37  H    0.152380
    38  H    0.155279
    39  H    0.155141
    40  H    0.160378
 Sum of Mulliken charges =  -0.00000

 Dipole moment (field-independent basis, Debye):
    X=             -0.0223    Y=             -0.0096    Z=              0.0065  Tot=              0.0251
 Quadrupole moment (field-independent basis, Debye-Ang):
   XX=            -86.3804   YY=            -84.0069   ZZ=            -84.3625
   XY=              1.2854   XZ=             -0.5770   YZ=             -0.0762

 Normal termination of Gaussian 16 at Wed May  5 19:45:09 2021.
