 Gaussian 16, Revision A.03,
 Gaussian 16:  EM64L-G16RevA.03 25-Dec-2016

 -------------
 #p 6-31g* mp2
 -------------

 ------------------------------------------------------
 Input file generated by CHIRIPA (05-May-2021 14:57:23)
 ------------------------------------------------------
 Symbolic Z-matrix:
 Charge =  0 Multiplicity = 1

                         Standard orientation:
 ---------------------------------------------------------------------
 Center     Atomic      Atomic             Coordinates (Angstroms)
 Number     Number       Type             X           Y           Z
 ---------------------------------------------------------------------
      1          6           0       -2.031518   -0.558286    1.758057
      2          6           0       -3.348161   -0.885721    2.098290
      3          6           0       -4.396050   -0.629046    1.209136
      4          6           0       -4.089949   -0.041272   -0.017287
      5          6           0       -2.788480    0.296496   -0.385232
      6          6           0       -1.756365    0.030739    0.519565
      7          1           0       -1.223619   -0.761205    2.454849
      8          1           0       -3.564804   -1.343250    3.059423
      9          1           0       -5.424471   -0.872356    1.446977
     10          1           0       -2.603666    0.751694   -1.350663
     11          1           0       -0.734798    0.286096    0.252658
     12          7           0       -5.190952    0.235266   -0.966875
     13          8           0       -4.894981    0.753846   -2.041171
     14          8           0       -6.329043   -0.071800   -0.618886
     15          6           0        3.313332    2.479237    0.397617
     16          6           0        4.647643    2.062261    0.445194
     17          6           0        4.988997    0.739119    0.149690
     18          6           0        3.966027   -0.144438   -0.191115
     19          6           0        2.627442    0.240699   -0.247235
     20          6           0        2.309260    1.568730    0.052163
     21          1           0        3.057159    3.508985    0.628684
     22          1           0        5.429508    2.767190    0.713166
     23          1           0        6.013880    0.389568    0.178831
     24          1           0        1.870055   -0.485012   -0.517656
     25          1           0        1.272167    1.889757    0.014408
     26          7           0        4.315139   -1.547778   -0.506013
     27          8           0        3.395315   -2.306773   -0.803483
     28          8           0        5.501984   -1.862147   -0.449398
 ---------------------------------------------------------------------

 SCF Done:  E(RHF) =  -868.336663835     A.U. after   16 cycles
 E2 =    -0.2599841271D+01 EUMP2 =    -0.87093650510544D+03

 The electronic state is 1-A.
 Alpha  occ. eigenvalues --  -20.61382 -20.61373 -20.61071 -20.61064 -15.86440
 Alpha  occ. eigenvalues --  -15.86131 -11.31930 -11.31582 -11.28600 -11.28465
 Alpha  occ. eigenvalues --  -11.28249 -11.28243 -11.28155 -11.27953 -11.27639
 Alpha  occ. eigenvalues --  -11.27476 -11.27350 -11.27149  -1.60454  -1.60144
 Alpha  occ. eigenvalues --   -1.40004  -1.39696  -1.20115  -1.19785  -1.09472
 Alpha  occ. eigenvalues --   -1.09158  -1.05562  -1.05220  -0.96290  -0.95971
 Alpha  occ. eigenvalues --   -0.86935  -0.86618  -0.83148  -0.82813  -0.78195
 Alpha  occ. eigenvalues --   -0.77837  -0.72653  -0.72347  -0.71781  -0.71469
 Alpha  occ. eigenvalues --   -0.71204  -0.70874  -0.65789  -0.65609  -0.65444
 Alpha  occ. eigenvalues --   -0.65243  -0.63002  -0.62466  -0.56010  -0.55688
 Alpha  occ. eigenvalues --   -0.53854  -0.53690  -0.53507  -0.53302  -0.49422
 Alpha  occ. eigenvalues --   -0.49402  -0.49114  -0.49095  -0.45384  -0.45082
 Alpha  occ. eigenvalues --   -0.38068  -0.37752  -0.37164  -0.36823
 Alpha virt. eigenvalues --    0.04381   0.04718   0.10492   0.10796   0.15797
 Alpha virt. eigenvalues --    0.16154   0.17971   0.22020   0.24488   0.27335
 Alpha virt. eigenvalues --    0.27923   0.28936   0.29783   0.31432   0.31818

 Mulliken charges:
               1
     1  C   -0.170556
     2  C   -0.218387
     3  C   -0.169418
     4  C    0.158994
     5  C   -0.171016
     6  C   -0.223479
     7  H    0.228475
     8  H    0.225854
     9  H    0.277484
    10  H    0.275487
    11  H    0.217445
    12  N    0.488160
    13  O   -0.460069
    14  O   -0.458906
    15  C   -0.169937
    16  C   -0.218263
    17  C   -0.169682
    18  C    0.159678
    19  C   -0.174808
    20  C   -0.222051
    21  H    0.228679
    22  H    0.226543
    23  H    0.278160
    24  H    0.272291
    25  H    0.219192
    26  N    0.488188
    27  O   -0.460276
    28  O   -0.457783
 Sum of Mulliken charges =  -0.00000

 Dipole moment (field-independent basis, Debye):
    X=              2.7219    Y=              3.9481    Z=              4.5366  Tot=              6.6013
 Quadrupole moment (field-independent basis, Debye-Ang):
   XX=           -137.8477   YY=           -106.2899   ZZ=           -104.1379
   XY=             26.7903   XZ=            -10.8644   YZ=             -2.5307

 Normal termination of Gaussian 16 at Fri May  7 11:02:47 2021.
