 Gaussian 16, Revision A.03,
 Gaussian 16:  EM64L-G16RevA.03 25-Dec-2016

 -------------
 #p 6-31g* mp2
 -------------

 ------------------------------------------------------
 Input file generated by CHIRIPA (05-May-2021 14:55:25)
 ------------------------------------------------------
 Symbolic Z-matrix:
 Charge =  0 Multiplicity = 1

                         Standard orientation:
 ---------------------------------------------------------------------
 Center     Atomic      Atomic             Coordinates (Angstroms)
 Number     Number       Type             X           Y           Z
 ---------------------------------------------------------------------
      1          6           0        4.423163   -0.058174   -1.525300
      2          6           0        3.320435   -0.898270   -1.711717
      3          6           0        2.313971   -0.973991   -0.744327
      4          6           0        2.442915   -0.192235    0.402635
      5          6           0        3.529421    0.654347    0.617332
      6          6           0        4.523959    0.714091   -0.363419
      7          1           0        5.200377   -0.005558   -2.281982
      8          1           0        3.239518   -1.499161   -2.613064
      9          1           0        1.449537   -1.615917   -0.863086
     10          1           0        3.582290    1.241330    1.526217
     11          1           0        5.379227    1.367406   -0.215967
     12          7           0        1.383730   -0.263941    1.433840
     13          8           0        1.520795    0.434931    2.435553
     14          8           0        0.436530   -1.017658    1.220860
     15          6           0       -3.097140   -0.487694   -0.351471
     16          6           0       -4.172583   -1.533323   -0.054712
     17          6           0       -3.650688   -2.966159   -0.166071
     18          1           0       -2.698912   -0.656952   -1.361279
     19          1           0       -2.257473   -0.628104    0.343250
     20          1           0       -5.010576   -1.390104   -0.748882
     21          1           0       -4.568432   -1.361439    0.954434
     22          1           0       -2.828873   -3.132618    0.537857
     23          1           0       -3.273529   -3.161446   -1.175138
     24          1           0       -4.435865   -3.697354    0.050050
     25          6           0       -3.603614    0.949562   -0.244190
     26          6           0       -2.528171    1.995191   -0.540949
     27          6           0       -3.050067    3.428027   -0.429590
     28          1           0       -4.443282    1.089972   -0.938911
     29          1           0       -4.001841    1.118819    0.765618
     30          1           0       -2.132322    1.823307   -1.550095
     31          1           0       -1.690179    1.851972    0.153221
     32          1           0       -3.427225    3.623314    0.579477
     33          1           0       -3.871881    3.594485   -1.133517
     34          1           0       -2.264888    4.159222   -0.645711
 ---------------------------------------------------------------------

 SCF Done:  E(RHF) =  -669.536436252     A.U. after   15 cycles
 E2 =    -0.2091284241D+01 EUMP2 =    -0.67162772049307D+03

 The electronic state is 1-A.
 Alpha  occ. eigenvalues --  -20.60991 -20.60984 -15.86018 -11.31296 -11.27858
 Alpha  occ. eigenvalues --  -11.27848 -11.27592 -11.26858 -11.26847 -11.20903
 Alpha  occ. eigenvalues --  -11.20741 -11.20557 -11.20508 -11.20274 -11.20259
 Alpha  occ. eigenvalues --   -1.60048  -1.39604  -1.19462  -1.08876  -1.07565
 Alpha  occ. eigenvalues --   -1.04853  -1.02760  -0.95725  -0.95202  -0.86256
 Alpha  occ. eigenvalues --   -0.86226  -0.82561  -0.78831  -0.77633  -0.77340
 Alpha  occ. eigenvalues --   -0.72243  -0.71356  -0.70573  -0.65122  -0.64858
 Alpha  occ. eigenvalues --   -0.64178  -0.62200  -0.60154  -0.58584  -0.56819
 Alpha  occ. eigenvalues --   -0.55363  -0.54478  -0.53187  -0.52945  -0.51947
 Alpha  occ. eigenvalues --   -0.51636  -0.49153  -0.49004  -0.48987  -0.47156
 Alpha  occ. eigenvalues --   -0.45855  -0.45268  -0.44928  -0.44479  -0.42978
 Alpha  occ. eigenvalues --   -0.37440  -0.36452
 Alpha virt. eigenvalues --    0.04880   0.11203   0.16356   0.21299   0.23717
 Alpha virt. eigenvalues --    0.25016   0.27212   0.27467   0.27807   0.28632
 Alpha virt. eigenvalues --    0.28865   0.30992   0.32082   0.32330   0.32603

 Mulliken charges:
               1
     1  C   -0.170458
     2  C   -0.218640
     3  C   -0.170341
     4  C    0.157937
     5  C   -0.170643
     6  C   -0.218626
     7  H    0.226028
     8  H    0.223944
     9  H    0.276504
    10  H    0.275752
    11  H    0.223806
    12  N    0.490254
    13  O   -0.459071
    14  O   -0.462241
    15  C   -0.311187
    16  C   -0.298026
    17  C   -0.476825
    18  H    0.140174
    19  H    0.179098
    20  H    0.146818
    21  H    0.152543
    22  H    0.163818
    23  H    0.149144
    24  H    0.156509
    25  C   -0.296858
    26  C   -0.300118
    27  C   -0.474974
    28  H    0.144763
    29  H    0.150862
    30  H    0.146357
    31  H    0.157570
    32  H    0.156489
    33  H    0.152712
    34  H    0.156926
 Sum of Mulliken charges =  -0.00000

 Dipole moment (field-independent basis, Debye):
    X=              3.9957    Y=              0.2117    Z=             -3.4523  Tot=              5.2848
 Quadrupole moment (field-independent basis, Debye-Ang):
   XX=            -76.5552   YY=            -94.8030   ZZ=            -95.7421
   XY=              2.0995   XZ=             -6.3517   YZ=              2.9787

 Normal termination of Gaussian 16 at Thu May  6 00:02:32 2021.
