 Gaussian 16, Revision A.03,
 Gaussian 16:  EM64L-G16RevA.03 25-Dec-2016

 -------------
 #p 6-31g* mp2
 -------------

 ------------------------------------------------------
 Input file generated by CHIRIPA (05-May-2021 14:55:23)
 ------------------------------------------------------
 Symbolic Z-matrix:
 Charge =  0 Multiplicity = 1

                         Standard orientation:
 ---------------------------------------------------------------------
 Center     Atomic      Atomic             Coordinates (Angstroms)
 Number     Number       Type             X           Y           Z
 ---------------------------------------------------------------------
      1          6           0       -0.693206   -0.880863    1.008705
      2          6           0       -1.846154   -0.970654    1.795578
      3          6           0       -3.075876   -0.518948    1.307425
      4          6           0       -3.116552    0.019406    0.022197
      5          6           0       -1.985404    0.122430   -0.785998
      6          6           0       -0.766382   -0.335568   -0.277305
      7          1           0        0.257916   -1.234203    1.395892
      8          1           0       -1.792306   -1.393680    2.794675
      9          1           0       -3.983947   -0.576494    1.895229
     10          1           0       -2.070494    0.548934   -1.778103
     11          1           0        0.127388   -0.264581   -0.890640
     12          7           0       -4.412741    0.500938   -0.505461
     13          8           0       -4.422057    0.971168   -1.640993
     14          8           0       -5.394833    0.399015    0.226484
     15          6           0        3.315081   -0.509139   -0.421939
     16          6           0        3.992679   -1.863798   -0.212786
     17          6           0        3.178994   -3.026055   -0.782761
     18          1           0        2.321345   -0.527219    0.046150
     19          1           0        3.151402   -0.350952   -1.496918
     20          1           0        4.156284   -2.018771    0.861381
     21          1           0        4.984995   -1.842427   -0.681260
     22          1           0        3.027137   -2.898516   -1.859456
     23          1           0        2.193717   -3.075861   -0.308050
     24          1           0        3.681758   -3.984874   -0.622280
     25          6           0        4.116407    0.662626    0.142484
     26          6           0        3.438808    2.017285   -0.066668
     27          6           0        4.252494    3.179542    0.503307
     28          1           0        4.280086    0.504438    1.217463
     29          1           0        5.110143    0.680706   -0.325604
     30          1           0        2.446493    1.995914    0.401806
     31          1           0        3.275204    2.172258   -1.140835
     32          1           0        5.237771    3.229348    0.028596
     33          1           0        4.404351    3.052002    1.580002
     34          1           0        3.749730    4.138361    0.342826
 ---------------------------------------------------------------------

 SCF Done:  E(RHF) =  -669.535233217     A.U. after   15 cycles
 E2 =    -0.2092338945D+01 EUMP2 =    -0.67162757216211D+03

 The electronic state is 1-A.
 Alpha  occ. eigenvalues --  -20.60729 -20.60724 -15.85781 -11.31144 -11.27708
 Alpha  occ. eigenvalues --  -11.27687 -11.27448 -11.26736 -11.26657 -11.22681
 Alpha  occ. eigenvalues --  -11.22620 -11.22412 -11.22311 -11.22085 -11.21692
 Alpha  occ. eigenvalues --   -1.59804  -1.39358  -1.19310  -1.09464  -1.08709
 Alpha  occ. eigenvalues --   -1.04707  -1.04442  -0.96902  -0.95550  -0.87910
 Alpha  occ. eigenvalues --   -0.86115  -0.82375  -0.80521  -0.79313  -0.77414
 Alpha  occ. eigenvalues --   -0.72000  -0.71127  -0.70452  -0.66130  -0.64958
 Alpha  occ. eigenvalues --   -0.64694  -0.62071  -0.61822  -0.60266  -0.58506
 Alpha  occ. eigenvalues --   -0.56201  -0.55228  -0.53543  -0.53342  -0.53037
 Alpha  occ. eigenvalues --   -0.52782  -0.50842  -0.48834  -0.48756  -0.48746
 Alpha  occ. eigenvalues --   -0.47564  -0.46783  -0.46729  -0.44764  -0.44730
 Alpha  occ. eigenvalues --   -0.37296  -0.36305
 Alpha virt. eigenvalues --    0.05096   0.11278   0.16579   0.19030   0.22662
 Alpha virt. eigenvalues --    0.23540   0.24962   0.25355   0.27000   0.27844
 Alpha virt. eigenvalues --    0.29429   0.30213   0.30904   0.31328   0.32107

 Mulliken charges:
               1
     1  C   -0.175485
     2  C   -0.218258
     3  C   -0.171225
     4  C    0.158672
     5  C   -0.171468
     6  C   -0.222284
     7  H    0.226771
     8  H    0.223168
     9  H    0.275394
    10  H    0.275624
    11  H    0.230349
    12  N    0.488019
    13  O   -0.460416
    14  O   -0.460535
    15  C   -0.306353
    16  C   -0.300206
    17  C   -0.477158
    18  H    0.142706
    19  H    0.151215
    20  H    0.152361
    21  H    0.157223
    22  H    0.157902
    23  H    0.149558
    24  H    0.165370
    25  C   -0.297677
    26  C   -0.301957
    27  C   -0.476158
    28  H    0.150494
    29  H    0.153886
    30  H    0.151364
    31  H    0.152594
    32  H    0.156925
    33  H    0.156058
    34  H    0.163527
 Sum of Mulliken charges =  -0.00000

 Dipole moment (field-independent basis, Debye):
    X=              4.8214    Y=             -1.6606    Z=              1.8194  Tot=              5.4142
 Quadrupole moment (field-independent basis, Debye-Ang):
   XX=           -121.7423   YY=            -95.7095   ZZ=            -90.4692
   XY=              5.6916   XZ=             -8.6579   YZ=             -1.6674

 Normal termination of Gaussian 16 at Thu May  6 06:17:30 2021.
