 Gaussian 16, Revision A.03,
 Gaussian 16:  EM64L-G16RevA.03 25-Dec-2016

 -------------
 #p 6-31g* mp2
 -------------

 ------------------------------------------------------
 Input file generated by CHIRIPA (05-May-2021 14:53:18)
 ------------------------------------------------------
 Symbolic Z-matrix:
 Charge =  0 Multiplicity = 1

                         Standard orientation:
 ---------------------------------------------------------------------
 Center     Atomic      Atomic             Coordinates (Angstroms)
 Number     Number       Type             X           Y           Z
 ---------------------------------------------------------------------
      1          6           0       -2.907579    0.908655    0.018379
      2          6           0       -3.105825    2.324930   -0.522777
      3          6           0       -1.907233    3.234617   -0.251410
      4          1           0       -2.721075    0.958978    1.099873
      5          1           0       -2.005890    0.473504   -0.434386
      6          1           0       -4.007645    2.756771   -0.070174
      7          1           0       -3.292069    2.271216   -1.603076
      8          1           0       -1.002975    2.829599   -0.717112
      9          1           0       -1.722617    3.317913    0.824499
     10          1           0       -2.070276    4.242119   -0.646652
     11          6           0       -4.097320   -0.012638   -0.245181
     12          6           0       -3.899074   -1.428912    0.295975
     13          6           0       -5.097666   -2.338600    0.024607
     14          1           0       -4.999009    0.422513    0.207583
     15          1           0       -4.283824   -0.062960   -1.326675
     16          1           0       -3.712830   -1.375198    1.376273
     17          1           0       -2.997254   -1.860753   -0.156628
     18          1           0       -5.282283   -2.421896   -1.051301
     19          1           0       -6.001924   -1.933582    0.490310
     20          1           0       -4.934623   -3.346102    0.419849
     21          6           0        0.322910   -1.017452    0.398505
     22          6           0        0.778173    0.210575    0.889632
     23          6           0        2.113265    0.590731    0.723635
     24          6           0        2.969605   -0.285481    0.058633
     25          6           0        2.546119   -1.515642   -0.442020
     26          6           0        1.206779   -1.875129   -0.264585
     27          1           0       -0.715872   -1.304738    0.531898
     28          1           0        0.093994    0.878664    1.404998
     29          1           0        2.492275    1.535564    1.093850
     30          1           0        3.251804   -2.160491   -0.951525
     31          1           0        0.856001   -2.829446   -0.647048
     32          7           0        4.385257    0.106033   -0.123155
     33          8           0        5.119716   -0.683754   -0.712599
     34          8           0        4.733580    1.195275    0.327245
 ---------------------------------------------------------------------

 SCF Done:  E(RHF) =  -669.534481198     A.U. after   15 cycles
 E2 =    -0.2093926535D+01 EUMP2 =    -0.67162840773293D+03

 The electronic state is 1-A.
 Alpha  occ. eigenvalues --  -20.60704 -20.60698 -15.85756 -11.31106 -11.27680
 Alpha  occ. eigenvalues --  -11.27659 -11.27308 -11.26676 -11.26619 -11.22876
 Alpha  occ. eigenvalues --  -11.22537 -11.22472 -11.22426 -11.22040 -11.21899
 Alpha  occ. eigenvalues --   -1.59780  -1.39334  -1.19274  -1.09540  -1.08658
 Alpha  occ. eigenvalues --   -1.04680  -1.04540  -0.96976  -0.95507  -0.87992
 Alpha  occ. eigenvalues --   -0.86070  -0.82347  -0.80643  -0.79435  -0.77381
 Alpha  occ. eigenvalues --   -0.71973  -0.71104  -0.70385  -0.66140  -0.64917
 Alpha  occ. eigenvalues --   -0.64664  -0.62030  -0.61934  -0.60347  -0.58613
 Alpha  occ. eigenvalues --   -0.56257  -0.55182  -0.53630  -0.53419  -0.53015
 Alpha  occ. eigenvalues --   -0.52755  -0.50913  -0.48957  -0.48731  -0.48709
 Alpha  occ. eigenvalues --   -0.47673  -0.46859  -0.46770  -0.44808  -0.44743
 Alpha  occ. eigenvalues --   -0.37195  -0.36270
 Alpha virt. eigenvalues --    0.05097   0.11279   0.16477   0.20010   0.22267
 Alpha virt. eigenvalues --    0.22563   0.25040   0.25655   0.26610   0.28352
 Alpha virt. eigenvalues --    0.29258   0.30056   0.30830   0.31507   0.31704

 Mulliken charges:
               1
     1  C   -0.310397
     2  C   -0.298605
     3  C   -0.480420
     4  H    0.143953
     5  H    0.153842
     6  H    0.154715
     7  H    0.155923
     8  H    0.159263
     9  H    0.150670
    10  H    0.165888
    11  C   -0.297105
    12  C   -0.305798
    13  C   -0.475465
    14  H    0.153872
    15  H    0.153733
    16  H    0.152076
    17  H    0.144676
    18  H    0.158183
    19  H    0.159211
    20  H    0.162017
    21  C   -0.179140
    22  C   -0.221914
    23  C   -0.172330
    24  C    0.158254
    25  C   -0.170882
    26  C   -0.222542
    27  H    0.239077
    28  H    0.229026
    29  H    0.275568
    30  H    0.275187
    31  H    0.222780
    32  N    0.488020
    33  O   -0.460785
    34  O   -0.460552
 Sum of Mulliken charges =  -0.00000

 Dipole moment (field-independent basis, Debye):
    X=             -5.2578    Y=             -1.3099    Z=              0.5559  Tot=              5.4470
 Quadrupole moment (field-independent basis, Debye-Ang):
   XX=           -124.3201   YY=            -90.6274   ZZ=            -93.4049
   XY=             -4.2729   XZ=              0.9421   YZ=              2.1155

 Normal termination of Gaussian 16 at Wed May  5 22:03:02 2021.
