 Gaussian 16, Revision A.03,
 Gaussian 16:  EM64L-G16RevA.03 25-Dec-2016

 -------------
 #p 6-31g* mp2
 -------------

 ------------------------------------------------------
 Input file generated by CHIRIPA (05-May-2021 14:53:17)
 ------------------------------------------------------
 Symbolic Z-matrix:
 Charge =  0 Multiplicity = 1

                         Standard orientation:
 ---------------------------------------------------------------------
 Center     Atomic      Atomic             Coordinates (Angstroms)
 Number     Number       Type             X           Y           Z
 ---------------------------------------------------------------------
      1          6           0        3.591811   -0.530048   -0.693147
      2          6           0        2.098980   -0.654501   -0.386630
      3          6           0        1.352575   -1.502285   -1.417132
      4          1           0        3.719159   -0.091478   -1.692339
      5          1           0        4.035655   -1.534413   -0.733751
      6          1           0        1.658360    0.349868   -0.345248
      7          1           0        1.975173   -1.092649    0.612026
      8          1           0        1.765066   -2.515752   -1.453720
      9          1           0        1.446453   -1.065039   -2.416433
     10          1           0        0.287085   -1.578069   -1.178704
     11          6           0        4.351607    0.314572    0.328154
     12          6           0        5.844438    0.439025    0.021636
     13          6           0        6.590843    1.286810    1.052139
     14          1           0        3.907763    1.318937    0.368757
     15          1           0        4.224259   -0.123998    1.327345
     16          1           0        5.968245    0.877173   -0.977020
     17          1           0        6.285057   -0.565344   -0.019746
     18          1           0        6.496965    0.849563    2.051440
     19          1           0        6.178352    2.300276    1.088726
     20          1           0        7.656332    1.362593    0.813710
     21          6           0       -2.537477   -2.270026    0.852492
     22          6           0       -2.397589   -1.889945   -0.486348
     23          6           0       -2.707940   -0.588226   -0.891016
     24          6           0       -3.157561    0.311765    0.073944
     25          6           0       -3.307336   -0.036685    1.415375
     26          6           0       -2.991104   -1.343816    1.797414
     27          1           0       -2.294105   -3.283335    1.158059
     28          1           0       -2.045512   -2.607142   -1.222361
     29          1           0       -2.608822   -0.267301   -1.920871
     30          1           0       -3.660583    0.700487    2.126158
     31          1           0       -3.100705   -1.636197    2.837869
     32          7           0       -3.489228    1.692702   -0.342483
     33          8           0       -3.883419    2.466823    0.526992
     34          8           0       -3.348716    1.974811   -1.530467
 ---------------------------------------------------------------------

 SCF Done:  E(RHF) =  -669.535014617     A.U. after   15 cycles
 E2 =    -0.2092070910D+01 EUMP2 =    -0.67162708552678D+03

 The electronic state is 1-A.
 Alpha  occ. eigenvalues --  -20.60807 -20.60802 -15.85861 -11.31247 -11.27820
 Alpha  occ. eigenvalues --  -11.27815 -11.27564 -11.26835 -11.26820 -11.21825
 Alpha  occ. eigenvalues --  -11.21689 -11.21553 -11.21472 -11.21371 -11.21131
 Alpha  occ. eigenvalues --   -1.59882  -1.39435  -1.19431  -1.08819  -1.08579
 Alpha  occ. eigenvalues --   -1.04845  -1.03697  -0.96163  -0.95646  -0.87195
 Alpha  occ. eigenvalues --   -0.86227  -0.82483  -0.79768  -0.78383  -0.77524
 Alpha  occ. eigenvalues --   -0.72079  -0.71205  -0.70524  -0.65208  -0.65081
 Alpha  occ. eigenvalues --   -0.64848  -0.62201  -0.61095  -0.59558  -0.57786
 Alpha  occ. eigenvalues --   -0.55447  -0.55328  -0.53433  -0.52962  -0.52699
 Alpha  occ. eigenvalues --   -0.52425  -0.50101  -0.48840  -0.48832  -0.48080
 Alpha  occ. eigenvalues --   -0.46790  -0.45931  -0.45846  -0.44836  -0.43970
 Alpha  occ. eigenvalues --   -0.37396  -0.36368
 Alpha virt. eigenvalues --    0.05000   0.11157   0.16398   0.21155   0.22768
 Alpha virt. eigenvalues --    0.24248   0.26511   0.26671   0.27367   0.28218
 Alpha virt. eigenvalues --    0.28427   0.30593   0.31228   0.31827   0.32294

 Mulliken charges:
               1
     1  C   -0.298591
     2  C   -0.297503
     3  C   -0.485003
     4  H    0.150984
     5  H    0.148240
     6  H    0.155695
     7  H    0.149889
     8  H    0.151797
     9  H    0.156371
    10  H    0.161256
    11  C   -0.298574
    12  C   -0.299772
    13  C   -0.475844
    14  H    0.151599
    15  H    0.148617
    16  H    0.152751
    17  H    0.151202
    18  H    0.154659
    19  H    0.156325
    20  H    0.160517
    21  C   -0.171483
    22  C   -0.219769
    23  C   -0.169559
    24  C    0.158674
    25  C   -0.170575
    26  C   -0.218448
    27  H    0.226286
    28  H    0.226221
    29  H    0.276705
    30  H    0.275918
    31  H    0.223786
    32  N    0.488071
    33  O   -0.460260
    34  O   -0.460183
 Sum of Mulliken charges =  -0.00000

 Dipole moment (field-independent basis, Debye):
    X=              1.1190    Y=             -4.8181    Z=              1.5079  Tot=              5.1710
 Quadrupole moment (field-independent basis, Debye-Ang):
   XX=           -102.9269   YY=            -97.8713   ZZ=            -90.3110
   XY=             15.2413   XZ=             -6.2777   YZ=              0.3182

 Normal termination of Gaussian 16 at Thu May  6 17:18:13 2021.
