 Gaussian 16, Revision A.03,
 Gaussian 16:  EM64L-G16RevA.03 25-Dec-2016

 -------------
 #p 6-31g* mp2
 -------------

 ------------------------------------------------------
 Input file generated by CHIRIPA (05-May-2021 14:51:12)
 ------------------------------------------------------
 Symbolic Z-matrix:
 Charge =  0 Multiplicity = 1

                         Standard orientation:
 ---------------------------------------------------------------------
 Center     Atomic      Atomic             Coordinates (Angstroms)
 Number     Number       Type             X           Y           Z
 ---------------------------------------------------------------------
      1          6           0        3.014785    0.770510   -0.188974
      2          6           0        2.477507    1.726006    0.877021
      3          6           0        1.042292    2.174382    0.599691
      4          1           0        2.965686    1.261406   -1.170582
      5          1           0        2.359351   -0.109544   -0.246474
      6          1           0        3.134538    2.603355    0.933460
      7          1           0        2.528069    1.232849    1.856232
      8          1           0        0.369260    1.311624    0.563942
      9          1           0        0.979175    2.689917   -0.364073
     10          1           0        0.678186    2.856843    1.373986
     11          6           0        4.448461    0.313404    0.074377
     12          6           0        4.985740   -0.642092   -0.991617
     13          6           0        6.420955   -1.090468   -0.714287
     14          1           0        5.103895    1.193458    0.131878
     15          1           0        4.497561   -0.177493    1.055986
     16          1           0        4.935178   -0.148935   -1.970829
     17          1           0        4.328708   -1.519441   -1.048057
     18          1           0        6.484071   -1.606003    0.249477
     19          1           0        7.093987   -0.227710   -0.678539
     20          1           0        6.785061   -1.772929   -1.488583
     21          6           0       -3.249427   -1.134183    0.043620
     22          6           0       -2.089889   -0.994933    1.030569
     23          6           0       -1.133847   -2.187513    0.991457
     24          1           0       -3.802738   -2.056950    0.265638
     25          1           0       -2.845675   -1.248487   -0.971915
     26          1           0       -2.495735   -0.879538    2.043776
     27          1           0       -1.539390   -0.072291    0.806297
     28          1           0       -0.701501   -2.302051   -0.007822
     29          1           0       -1.663280   -3.113884    1.236689
     30          1           0       -0.312490   -2.067168    1.704723
     31          6           0       -4.213819    0.050269    0.070976
     32          6           0       -5.373357   -0.088981   -0.915971
     33          6           0       -6.329399    1.103599   -0.876861
     34          1           0       -4.617571    0.164573    1.086513
     35          1           0       -3.660509    0.973037   -0.151042
     36          1           0       -5.923857   -1.011623   -0.691700
     37          1           0       -4.967512   -0.204376   -1.929179
     38          1           0       -5.799966    2.029970   -1.122093
     39          1           0       -6.761746    1.218137    0.122419
     40          1           0       -7.150758    0.983254   -1.590126
 ---------------------------------------------------------------------

 SCF Done:  E(RHF) =  -470.733381749     A.U. after   11 cycles
 E2 =    -0.1582626071D+01 EUMP2 =    -0.47231600782028D+03

 The electronic state is 1-A.
 Alpha  occ. eigenvalues --  -11.21610 -11.21609 -11.21598 -11.21591 -11.21405
 Alpha  occ. eigenvalues --  -11.21401 -11.21346 -11.21339 -11.21124 -11.21077
 Alpha  occ. eigenvalues --  -11.21067 -11.21058  -1.08439  -1.08424  -1.03556
 Alpha  occ. eigenvalues --   -1.03518  -0.96000  -0.95974  -0.87021  -0.86987
 Alpha  occ. eigenvalues --   -0.79651  -0.79552  -0.78266  -0.78221  -0.65127
 Alpha  occ. eigenvalues --   -0.65008  -0.61077  -0.60813  -0.59370  -0.59337
 Alpha  occ. eigenvalues --   -0.57638  -0.57558  -0.55340  -0.55214  -0.52690
 Alpha  occ. eigenvalues --   -0.52675  -0.52438  -0.52395  -0.50051  -0.49836
 Alpha  occ. eigenvalues --   -0.48020  -0.47833  -0.46785  -0.46472  -0.45853
 Alpha  occ. eigenvalues --   -0.45758  -0.45730  -0.45562  -0.43791  -0.43786
 Alpha virt. eigenvalues --    0.21028   0.23115   0.23641   0.24978   0.25903
 Alpha virt. eigenvalues --    0.26708   0.27050   0.27416   0.28403   0.28764
 Alpha virt. eigenvalues --    0.30492   0.31555   0.31700   0.31721   0.32180

 Mulliken charges:
               1
     1  C   -0.298933
     2  C   -0.298912
     3  C   -0.483991
     4  H    0.149445
     5  H    0.150166
     6  H    0.151971
     7  H    0.151963
     8  H    0.162609
     9  H    0.154985
    10  H    0.160561
    11  C   -0.298267
    12  C   -0.299727
    13  C   -0.475708
    14  H    0.149502
    15  H    0.149715
    16  H    0.151828
    17  H    0.152148
    18  H    0.155239
    19  H    0.155139
    20  H    0.160258
    21  C   -0.297558
    22  C   -0.308500
    23  C   -0.476040
    24  H    0.149601
    25  H    0.149538
    26  H    0.152308
    27  H    0.159716
    28  H    0.155042
    29  H    0.155762
    30  H    0.159773
    31  C   -0.298578
    32  C   -0.299672
    33  C   -0.475735
    34  H    0.149513
    35  H    0.150344
    36  H    0.151845
    37  H    0.151959
    38  H    0.155347
    39  H    0.155153
    40  H    0.160194
 Sum of Mulliken charges =  -0.00000

 Dipole moment (field-independent basis, Debye):
    X=             -0.0078    Y=              0.0007    Z=              0.0021  Tot=              0.0081
 Quadrupole moment (field-independent basis, Debye-Ang):
   XX=            -86.0322   YY=            -84.7372   ZZ=            -83.9897
   XY=              1.5743   XZ=             -0.7361   YZ=             -0.6884

 Normal termination of Gaussian 16 at Wed May  5 23:07:28 2021.
