 Gaussian 16, Revision A.03,
 Gaussian 16:  EM64L-G16RevA.03 25-Dec-2016

 -------------
 #p 6-31g* mp2
 -------------

 ------------------------------------------------------
 Input file generated by CHIRIPA (05-May-2021 14:51:12)
 ------------------------------------------------------
 Symbolic Z-matrix:
 Charge =  0 Multiplicity = 1

                         Standard orientation:
 ---------------------------------------------------------------------
 Center     Atomic      Atomic             Coordinates (Angstroms)
 Number     Number       Type             X           Y           Z
 ---------------------------------------------------------------------
      1          6           0       -2.876597   -0.348337   -0.892522
      2          6           0       -2.893626   -1.793137   -0.392272
      3          6           0       -2.553722   -2.802574   -1.489220
      4          1           0       -3.590354   -0.245554   -1.721335
      5          1           0       -1.883660   -0.122251   -1.305264
      6          1           0       -3.885812   -2.015999    0.020664
      7          1           0       -2.179886   -1.892447    0.435573
      8          1           0       -1.555877   -2.608399   -1.895672
      9          1           0       -3.271496   -2.732653   -2.312938
     10          1           0       -2.571661   -3.829016   -1.109806
     11          6           0       -3.214450    0.672496    0.192597
     12          6           0       -3.197421    2.117295   -0.307652
     13          6           0       -3.537325    3.126733    0.789296
     14          1           0       -4.207387    0.446409    0.605339
     15          1           0       -2.500693    0.569713    1.021411
     16          1           0       -3.911162    2.216606   -1.135498
     17          1           0       -2.205235    2.340158   -0.720588
     18          1           0       -2.819551    3.056812    1.613014
     19          1           0       -4.535170    2.932558    1.195747
     20          1           0       -3.519386    4.153175    0.409881
     21          6           0        3.654599    0.294537    0.287037
     22          6           0        4.122468    0.485911   -1.156037
     23          6           0        5.341793    1.401901   -1.265607
     24          1           0        3.418577    1.275215    0.722363
     25          1           0        4.480674   -0.120461    0.880983
     26          1           0        3.295328    0.899132   -1.747393
     27          1           0        4.357221   -0.495353   -1.588040
     28          1           0        6.184284    0.991132   -0.699850
     29          1           0        5.116356    2.393541   -0.860109
     30          1           0        5.659368    1.524870   -2.305744
     31          6           0        2.436448   -0.618696    0.412888
     32          6           0        1.968579   -0.810070    1.855960
     33          6           0        0.749254   -1.726059    1.965532
     34          1           0        1.610374   -0.203698   -0.181059
     35          1           0        2.672470   -1.599374   -0.022439
     36          1           0        1.733826    0.171194    2.287965
     37          1           0        2.795719   -1.223290    2.447318
     38          1           0        0.974691   -2.717700    1.560034
     39          1           0       -0.093236   -1.315291    1.399775
     40          1           0        0.431680   -1.849029    3.005668
 ---------------------------------------------------------------------

 SCF Done:  E(RHF) =  -470.733299373     A.U. after   11 cycles
 E2 =    -0.1582956199D+01 EUMP2 =    -0.47231625557136D+03

 The electronic state is 1-A.
 Alpha  occ. eigenvalues --  -11.21667 -11.21639 -11.21626 -11.21541 -11.21464
 Alpha  occ. eigenvalues --  -11.21419 -11.21401 -11.21358 -11.21135 -11.21099
 Alpha  occ. eigenvalues --  -11.21092 -11.21029  -1.08488  -1.08434  -1.03589
 Alpha  occ. eigenvalues --   -1.03517  -0.96035  -0.95974  -0.87060  -0.86984
 Alpha  occ. eigenvalues --   -0.79678  -0.79559  -0.78307  -0.78239  -0.65197
 Alpha  occ. eigenvalues --   -0.65009  -0.61066  -0.60852  -0.59398  -0.59344
 Alpha  occ. eigenvalues --   -0.57647  -0.57576  -0.55328  -0.55264  -0.52728
 Alpha  occ. eigenvalues --   -0.52669  -0.52479  -0.52384  -0.50053  -0.49868
 Alpha  occ. eigenvalues --   -0.48062  -0.47834  -0.46782  -0.46530  -0.45921
 Alpha  occ. eigenvalues --   -0.45796  -0.45726  -0.45544  -0.43838  -0.43782
 Alpha virt. eigenvalues --    0.20168   0.23164   0.24045   0.24781   0.25742
 Alpha virt. eigenvalues --    0.26197   0.26993   0.27772   0.28283   0.29082
 Alpha virt. eigenvalues --    0.30942   0.31587   0.31649   0.31872   0.31999

 Mulliken charges:
               1
     1  C   -0.298447
     2  C   -0.306605
     3  C   -0.475368
     4  H    0.149928
     5  H    0.148826
     6  H    0.151902
     7  H    0.159331
     8  H    0.155369
     9  H    0.154843
    10  H    0.160293
    11  C   -0.299815
    12  C   -0.299489
    13  C   -0.475705
    14  H    0.149982
    15  H    0.150053
    16  H    0.152188
    17  H    0.151403
    18  H    0.155079
    19  H    0.155369
    20  H    0.160270
    21  C   -0.298343
    22  C   -0.299702
    23  C   -0.475747
    24  H    0.149711
    25  H    0.149792
    26  H    0.151832
    27  H    0.152080
    28  H    0.155275
    29  H    0.155240
    30  H    0.160417
    31  C   -0.298425
    32  C   -0.299498
    33  C   -0.482633
    34  H    0.148718
    35  H    0.149988
    36  H    0.151817
    37  H    0.152369
    38  H    0.155873
    39  H    0.161011
    40  H    0.160818
 Sum of Mulliken charges =  -0.00000

 Dipole moment (field-independent basis, Debye):
    X=              0.0160    Y=             -0.0139    Z=              0.0150  Tot=              0.0260
 Quadrupole moment (field-independent basis, Debye-Ang):
   XX=            -84.1554   YY=            -85.2272   ZZ=            -85.2582
   XY=             -0.8272   XZ=              0.6489   YZ=             -0.5146

 Normal termination of Gaussian 16 at Wed May  5 23:07:51 2021.
