 Gaussian 16, Revision A.03,
 Gaussian 16:  EM64L-G16RevA.03 25-Dec-2016

 -------------
 #p 6-31g* mp2
 -------------

 ------------------------------------------------------
 Input file generated by CHIRIPA (05-May-2021 14:51:11)
 ------------------------------------------------------
 Symbolic Z-matrix:
 Charge =  0 Multiplicity = 1

                         Standard orientation:
 ---------------------------------------------------------------------
 Center     Atomic      Atomic             Coordinates (Angstroms)
 Number     Number       Type             X           Y           Z
 ---------------------------------------------------------------------
      1          6           0       -4.674341   -0.658687   -0.113778
      2          6           0       -6.053740   -0.012630    0.019839
      3          6           0       -7.181721   -0.920184   -0.471893
      4          1           0       -4.501144   -0.924143   -1.165672
      5          1           0       -4.661785   -1.600339    0.452375
      6          1           0       -6.063257    0.928213   -0.545263
      7          1           0       -6.223596    0.251493    1.071507
      8          1           0       -7.200922   -1.854426    0.098566
      9          1           0       -7.039672   -1.173861   -1.527389
     10          1           0       -8.158973   -0.438636   -0.367251
     11          6           0       -3.536377    0.236365    0.373711
     12          6           0       -2.156977   -0.409692    0.240094
     13          6           0       -1.028997    0.497862    0.731826
     14          1           0       -3.548933    1.178016   -0.192442
     15          1           0       -3.709574    0.501821    1.425605
     16          1           0       -1.987122   -0.673815   -0.811574
     17          1           0       -2.147461   -1.350535    0.805196
     18          1           0       -1.171046    0.751539    1.787322
     19          1           0       -1.009796    1.432104    0.161367
     20          1           0       -0.051745    0.016314    0.627184
     21          6           0        3.780891    0.849564    0.135730
     22          6           0        2.582211    1.311080   -0.693822
     23          6           0        1.943814    2.589454   -0.149762
     24          1           0        3.459782    0.687661    1.173816
     25          1           0        4.530642    1.652417    0.162071
     26          1           0        1.835541    0.507072   -0.719741
     27          1           0        2.906168    1.471718   -1.730095
     28          1           0        2.670089    3.408616   -0.139696
     29          1           0        1.593378    2.438490    0.876399
     30          1           0        1.088920    2.901461   -0.757764
     31          6           0        4.429827   -0.427241   -0.395663
     32          6           0        5.628507   -0.888758    0.433888
     33          6           0        6.266904   -2.167132   -0.110171
     34          1           0        3.680076   -1.230095   -0.422004
     35          1           0        4.750936   -0.265339   -1.433749
     36          1           0        5.304550   -1.049396    1.470162
     37          1           0        6.375178   -0.084750    0.459808
     38          1           0        6.617341   -2.016167   -1.136332
     39          1           0        5.540630   -2.986294   -0.120237
     40          1           0        7.121798   -2.479139    0.497832
 ---------------------------------------------------------------------

 SCF Done:  E(RHF) =  -470.732506331     A.U. after   11 cycles
 E2 =    -0.1583211805D+01 EUMP2 =    -0.47231571813566D+03

 The electronic state is 1-A.
 Alpha  occ. eigenvalues --  -11.21604 -11.21599 -11.21586 -11.21515 -11.21409
 Alpha  occ. eigenvalues --  -11.21378 -11.21349 -11.21315 -11.21074 -11.21060
 Alpha  occ. eigenvalues --  -11.21031 -11.20967  -1.08440  -1.08390  -1.03573
 Alpha  occ. eigenvalues --   -1.03449  -0.96053  -0.95870  -0.87051  -0.86907
 Alpha  occ. eigenvalues --   -0.79601  -0.79553  -0.78246  -0.78212  -0.65098
 Alpha  occ. eigenvalues --   -0.65018  -0.61079  -0.60838  -0.59369  -0.59246
 Alpha  occ. eigenvalues --   -0.57604  -0.57548  -0.55400  -0.55104  -0.52688
 Alpha  occ. eigenvalues --   -0.52625  -0.52399  -0.52341  -0.49969  -0.49805
 Alpha  occ. eigenvalues --   -0.47980  -0.47814  -0.46619  -0.46561  -0.45790
 Alpha  occ. eigenvalues --   -0.45750  -0.45710  -0.45662  -0.43782  -0.43706
 Alpha virt. eigenvalues --    0.21383   0.23000   0.23634   0.24987   0.26160
 Alpha virt. eigenvalues --    0.26588   0.26855   0.27448   0.27833   0.29269
 Alpha virt. eigenvalues --    0.29754   0.31253   0.31514   0.32099   0.32427

 Mulliken charges:
               1
     1  C   -0.298251
     2  C   -0.299641
     3  C   -0.475703
     4  H    0.149643
     5  H    0.149491
     6  H    0.151944
     7  H    0.151942
     8  H    0.155167
     9  H    0.155183
    10  H    0.160269
    11  C   -0.298479
    12  C   -0.300562
    13  C   -0.479692
    14  H    0.149531
    15  H    0.149677
    16  H    0.151843
    17  H    0.151459
    18  H    0.154343
    19  H    0.159075
    20  H    0.163268
    21  C   -0.298836
    22  C   -0.303860
    23  C   -0.475299
    24  H    0.149610
    25  H    0.149593
    26  H    0.155635
    27  H    0.151576
    28  H    0.154084
    29  H    0.158193
    30  H    0.159250
    31  C   -0.298060
    32  C   -0.299612
    33  C   -0.475690
    34  H    0.148907
    35  H    0.149662
    36  H    0.151901
    37  H    0.151960
    38  H    0.155154
    39  H    0.155115
    40  H    0.160207
 Sum of Mulliken charges =  -0.00000

 Dipole moment (field-independent basis, Debye):
    X=             -0.0153    Y=              0.0137    Z=              0.0087  Tot=              0.0224
 Quadrupole moment (field-independent basis, Debye-Ang):
   XX=            -85.7167   YY=            -85.4919   ZZ=            -83.7308
   XY=              0.3779   XZ=             -0.5638   YZ=             -1.1066

 Normal termination of Gaussian 16 at Thu May  6 03:50:07 2021.
