 Gaussian 16, Revision A.03,
 Gaussian 16:  EM64L-G16RevA.03 25-Dec-2016

 -------------
 #p 6-31g* mp2
 -------------

 ------------------------------------------------------
 Input file generated by CHIRIPA (05-May-2021 14:51:08)
 ------------------------------------------------------
 Symbolic Z-matrix:
 Charge =  0 Multiplicity = 1

                         Standard orientation:
 ---------------------------------------------------------------------
 Center     Atomic      Atomic             Coordinates (Angstroms)
 Number     Number       Type             X           Y           Z
 ---------------------------------------------------------------------
      1          6           0        2.922832    0.485623   -0.455994
      2          6           0        3.054737    2.008014   -0.509968
      3          6           0        1.727170    2.706271   -0.806273
      4          1           0        2.522585    0.124460   -1.413234
      5          1           0        2.185765    0.215449    0.312858
      6          1           0        3.792355    2.275181   -1.277535
      7          1           0        3.454896    2.365577    0.447443
      8          1           0        0.986584    2.468758   -0.035739
      9          1           0        1.325960    2.377848   -1.770519
     10          1           0        1.844454    3.793903   -0.840325
     11          6           0        4.241621   -0.226633   -0.160673
     12          6           0        4.109715   -1.749023   -0.106699
     13          6           0        5.437282   -2.447280    0.189605
     14          1           0        4.978687    0.043542   -0.929526
     15          1           0        4.641867    0.134531    0.796567
     16          1           0        3.709556   -2.106586   -1.064111
     17          1           0        3.372098   -2.016191    0.660868
     18          1           0        5.838492   -2.118858    1.153851
     19          1           0        6.177868   -2.209767   -0.580928
     20          1           0        5.319998   -3.534913    0.223657
     21          6           0       -3.181321    0.373255    0.720583
     22          6           0       -1.716591   -0.024852    0.905150
     23          6           0       -0.927610    0.990838    1.731997
     24          1           0       -3.228737    1.358305    0.236463
     25          1           0       -3.650249    0.487241    1.707755
     26          1           0       -1.250931   -0.139404   -0.082095
     27          1           0       -1.672658   -1.009156    1.388713
     28          1           0       -1.365801    1.099165    2.729421
     29          1           0       -0.941676    1.973859    1.250255
     30          1           0        0.116883    0.686525    1.851532
     31          6           0       -3.983132   -0.632244   -0.103916
     32          6           0       -5.447861   -0.234139   -0.288483
     33          6           0       -6.236842   -1.249829   -1.115329
     34          1           0       -3.514203   -0.746232   -1.091088
     35          1           0       -3.935715   -1.617295    0.380204
     36          1           0       -5.491794    0.750165   -0.772046
     37          1           0       -5.913522   -0.119586    0.698763
     38          1           0       -6.222775   -2.232849   -0.633588
     39          1           0       -5.798652   -1.358155   -2.112754
     40          1           0       -7.281334   -0.945515   -1.234864
 ---------------------------------------------------------------------

 SCF Done:  E(RHF) =  -470.732770279     A.U. after   11 cycles
 E2 =    -0.1583328432D+01 EUMP2 =    -0.47231609871066D+03

 The electronic state is 1-A.
 Alpha  occ. eigenvalues --  -11.21622 -11.21603 -11.21594 -11.21560 -11.21413
 Alpha  occ. eigenvalues --  -11.21389 -11.21353 -11.21329 -11.21129 -11.21072
 Alpha  occ. eigenvalues --  -11.21065 -11.20949  -1.08448  -1.08404  -1.03572
 Alpha  occ. eigenvalues --   -1.03480  -0.96032  -0.95929  -0.87060  -0.86940
 Alpha  occ. eigenvalues --   -0.79653  -0.79529  -0.78251  -0.78226  -0.65121
 Alpha  occ. eigenvalues --   -0.65009  -0.61104  -0.60789  -0.59435  -0.59250
 Alpha  occ. eigenvalues --   -0.57640  -0.57549  -0.55505  -0.55058  -0.52728
 Alpha  occ. eigenvalues --   -0.52639  -0.52504  -0.52299  -0.50156  -0.49686
 Alpha  occ. eigenvalues --   -0.47942  -0.47844  -0.46742  -0.46462  -0.45815
 Alpha  occ. eigenvalues --   -0.45740  -0.45710  -0.45656  -0.43787  -0.43752
 Alpha virt. eigenvalues --    0.20877   0.23044   0.23627   0.25071   0.26055
 Alpha virt. eigenvalues --    0.26453   0.26898   0.27382   0.27867   0.29344
 Alpha virt. eigenvalues --    0.30553   0.31300   0.31610   0.31740   0.32149

 Mulliken charges:
               1
     1  C   -0.303318
     2  C   -0.298699
     3  C   -0.484527
     4  H    0.149394
     5  H    0.153897
     6  H    0.151652
     7  H    0.151615
     8  H    0.165856
     9  H    0.153810
    10  H    0.159467
    11  C   -0.298085
    12  C   -0.299585
    13  C   -0.475695
    14  H    0.149626
    15  H    0.149549
    16  H    0.151957
    17  H    0.151730
    18  H    0.155160
    19  H    0.155191
    20  H    0.160223
    21  C   -0.298659
    22  C   -0.300603
    23  C   -0.482514
    24  H    0.150237
    25  H    0.149497
    26  H    0.153949
    27  H    0.151994
    28  H    0.156040
    29  H    0.158227
    30  H    0.162411
    31  C   -0.298332
    32  C   -0.299695
    33  C   -0.475716
    34  H    0.149709
    35  H    0.149632
    36  H    0.152050
    37  H    0.151905
    38  H    0.155164
    39  H    0.155214
    40  H    0.160272
 Sum of Mulliken charges =  -0.00000

 Dipole moment (field-independent basis, Debye):
    X=             -0.0377    Y=             -0.0076    Z=              0.0187  Tot=              0.0427
 Quadrupole moment (field-independent basis, Debye-Ang):
   XX=            -86.0431   YY=            -85.4231   ZZ=            -83.4391
   XY=              0.1718   XZ=             -0.9544   YZ=             -0.5578

 Normal termination of Gaussian 16 at Thu May  6 02:05:58 2021.
