 Gaussian 16, Revision A.03,
 Gaussian 16:  EM64L-G16RevA.03 25-Dec-2016

 -------------
 #p 6-31g* mp2
 -------------

 ------------------------------------------------------
 Input file generated by CHIRIPA (05-May-2021 14:53:15)
 ------------------------------------------------------
 Symbolic Z-matrix:
 Charge =  0 Multiplicity = 1

                         Standard orientation:
 ---------------------------------------------------------------------
 Center     Atomic      Atomic             Coordinates (Angstroms)
 Number     Number       Type             X           Y           Z
 ---------------------------------------------------------------------
      1          6           0       -5.690977   -0.055741   -0.339456
      2          6           0       -7.025664    0.565080    0.074277
      3          6           0       -8.150277    0.263765   -0.916808
      4          1           0       -5.413670    0.316540   -1.335173
      5          1           0       -5.814576   -1.143338   -0.435643
      6          1           0       -6.899239    1.651026    0.171001
      7          1           0       -7.299732    0.191426    1.069207
      8          1           0       -8.305295   -0.816262   -1.006867
      9          1           0       -7.902527    0.651630   -1.910176
     10          1           0       -9.095301    0.717026   -0.601619
     11          6           0       -4.556884    0.236671    0.641389
     12          6           0       -3.222196   -0.384151    0.227655
     13          6           0       -2.097584   -0.082835    1.218740
     14          1           0       -4.433285    1.324268    0.737576
     15          1           0       -4.834191   -0.135610    1.637106
     16          1           0       -2.948128   -0.010496   -0.767274
     17          1           0       -3.348621   -1.470096    0.130932
     18          1           0       -2.345334   -0.470701    2.212109
     19          1           0       -1.942565    0.997192    1.308799
     20          1           0       -1.152559   -0.536096    0.903552
     21          6           0        6.068827    1.377641   -0.087120
     22          6           0        6.190697   -0.015780   -0.080376
     23          6           0        5.052979   -0.828097   -0.097302
     24          6           0        3.803361   -0.210693   -0.120922
     25          6           0        3.649223    1.174758   -0.128197
     26          6           0        4.800715    1.967425   -0.110967
     27          1           0        6.957984    2.001037   -0.073853
     28          1           0        7.174251   -0.476567   -0.061869
     29          1           0        5.118460   -1.909349   -0.092571
     30          1           0        2.655286    1.605064   -0.146781
     31          1           0        4.703043    3.049310   -0.116256
     32          7           0        2.591619   -1.060255   -0.139002
     33          8           0        1.502086   -0.491813   -0.159696
     34          8           0        2.754333   -2.278498   -0.132137
 ---------------------------------------------------------------------

 SCF Done:  E(RHF) =  -669.536238538     A.U. after   15 cycles
 E2 =    -0.2090617257D+01 EUMP2 =    -0.67162685579480D+03

 The electronic state is 1-A.
 Alpha  occ. eigenvalues --  -20.60950 -20.60940 -15.85981 -11.31290 -11.27852
 Alpha  occ. eigenvalues --  -11.27848 -11.27590 -11.26858 -11.26849 -11.21077
 Alpha  occ. eigenvalues --  -11.20716 -11.20631 -11.20556 -11.20471 -11.19603
 Alpha  occ. eigenvalues --   -1.60008  -1.39564  -1.19458  -1.08865  -1.07653
 Alpha  occ. eigenvalues --   -1.04853  -1.02672  -0.95710  -0.95109  -0.86254
 Alpha  occ. eigenvalues --   -0.86130  -0.82542  -0.78771  -0.77595  -0.77439
 Alpha  occ. eigenvalues --   -0.72208  -0.71320  -0.70567  -0.65114  -0.64856
 Alpha  occ. eigenvalues --   -0.64297  -0.62199  -0.60087  -0.58502  -0.56683
 Alpha  occ. eigenvalues --   -0.55358  -0.54428  -0.53185  -0.52945  -0.51748
 Alpha  occ. eigenvalues --   -0.51542  -0.49100  -0.48958  -0.48942  -0.47056
 Alpha  occ. eigenvalues --   -0.45838  -0.44993  -0.44965  -0.44906  -0.42885
 Alpha  occ. eigenvalues --   -0.37437  -0.36453
 Alpha virt. eigenvalues --    0.04926   0.11202   0.16419   0.21330   0.23582
 Alpha virt. eigenvalues --    0.25223   0.27253   0.27373   0.28153   0.28234
 Alpha virt. eigenvalues --    0.28976   0.30903   0.32179   0.32401   0.32514

 Mulliken charges:
               1
     1  C   -0.297560
     2  C   -0.298924
     3  C   -0.475257
     4  H    0.148627
     5  H    0.149283
     6  H    0.150432
     7  H    0.151106
     8  H    0.154948
     9  H    0.154437
    10  H    0.158413
    11  C   -0.297238
    12  C   -0.298123
    13  C   -0.487116
    14  H    0.146392
    15  H    0.147653
    16  H    0.151623
    17  H    0.151750
    18  H    0.148049
    19  H    0.146508
    20  H    0.191070
    21  C   -0.170559
    22  C   -0.218625
    23  C   -0.170481
    24  C    0.157653
    25  C   -0.170740
    26  C   -0.218572
    27  H    0.225978
    28  H    0.223788
    29  H    0.275851
    30  H    0.276118
    31  H    0.223847
    32  N    0.491923
    33  O   -0.463233
    34  O   -0.459024
 Sum of Mulliken charges =  -0.00000

 Dipole moment (field-independent basis, Debye):
    X=              4.6288    Y=              2.9199    Z=              0.0145  Tot=              5.4728
 Quadrupole moment (field-independent basis, Debye-Ang):
   XX=            -62.9626   YY=            -92.1394   ZZ=            -96.0361
   XY=              8.2797   XZ=             -0.7566   YZ=             -1.0338

 Normal termination of Gaussian 16 at Thu May  6 17:11:22 2021.
