 Gaussian 16, Revision A.03,
 Gaussian 16:  EM64L-G16RevA.03 25-Dec-2016

 -------------
 #p 6-31g* mp2
 -------------

 ------------------------------------------------------
 Input file generated by CHIRIPA (05-May-2021 14:55:22)
 ------------------------------------------------------
 Symbolic Z-matrix:
 Charge =  0 Multiplicity = 1

                         Standard orientation:
 ---------------------------------------------------------------------
 Center     Atomic      Atomic             Coordinates (Angstroms)
 Number     Number       Type             X           Y           Z
 ---------------------------------------------------------------------
      1          6           0       -2.975984    2.719021    0.332423
      2          6           0       -3.169049    2.199436   -0.951819
      3          6           0       -3.106510    0.821033   -1.176861
      4          6           0       -2.847780   -0.012553   -0.089901
      5          6           0       -2.651044    0.474730    1.201277
      6          6           0       -2.718052    1.856530    1.402985
      7          1           0       -3.026302    3.791117    0.498178
      8          1           0       -3.369524    2.866877   -1.785112
      9          1           0       -3.252110    0.391970   -2.160794
     10          1           0       -2.452902   -0.215688    2.012128
     11          1           0       -2.567710    2.257236    2.401422
     12          7           0       -2.779207   -1.473604   -0.315792
     13          8           0       -2.549829   -2.186821    0.658552
     14          8           0       -2.956136   -1.877895   -1.462911
     15          6           0        4.288053    0.055182    0.327931
     16          6           0        5.182469    0.604368   -0.784004
     17          6           0        6.435698    1.296391   -0.247049
     18          1           0        3.996923    0.877706    0.995496
     19          1           0        4.866101   -0.652763    0.937907
     20          1           0        4.602508    1.310021   -1.392537
     21          1           0        5.471348   -0.219525   -1.449107
     22          1           0        7.038167    0.598441    0.343289
     23          1           0        6.164389    2.136680    0.400180
     24          1           0        7.060693    1.681435   -1.058827
     25          6           0        3.031196   -0.639491   -0.193092
     26          6           0        2.136779   -1.188678    0.918843
     27          6           0        0.883552   -1.880700    0.381889
     28          1           0        2.453149    0.068454   -0.803068
     29          1           0        3.322326   -1.462016   -0.860656
     30          1           0        1.847900   -0.364784    1.583946
     31          1           0        2.716742   -1.894331    1.527377
     32          1           0        1.154859   -2.720989   -0.265341
     33          1           0        0.281082   -1.182751   -0.208449
     34          1           0        0.258555   -2.265745    1.193665
 ---------------------------------------------------------------------

 SCF Done:  E(RHF) =  -669.535443675     A.U. after   15 cycles
 E2 =    -0.2092215679D+01 EUMP2 =    -0.67162765935368D+03

 The electronic state is 1-A.
 Alpha  occ. eigenvalues --  -20.60809 -20.60800 -15.85835 -11.31227 -11.27797
 Alpha  occ. eigenvalues --  -11.27794 -11.27543 -11.26814 -11.26804 -11.21488
 Alpha  occ. eigenvalues --  -11.21212 -11.21183 -11.21069 -11.21010 -11.20291
 Alpha  occ. eigenvalues --   -1.59866  -1.39423  -1.19401  -1.08793  -1.08176
 Alpha  occ. eigenvalues --   -1.04804  -1.03222  -0.95665  -0.95607  -0.86657
 Alpha  occ. eigenvalues --   -0.86200  -0.82459  -0.79301  -0.77992  -0.77501
 Alpha  occ. eigenvalues --   -0.72074  -0.71191  -0.70506  -0.65055  -0.64820
 Alpha  occ. eigenvalues --   -0.64803  -0.62151  -0.60632  -0.59019  -0.57254
 Alpha  occ. eigenvalues --   -0.55306  -0.54955  -0.53134  -0.52896  -0.52293
 Alpha  occ. eigenvalues --   -0.52066  -0.49613  -0.48832  -0.48820  -0.47600
 Alpha  occ. eigenvalues --   -0.46368  -0.45523  -0.45473  -0.44838  -0.43354
 Alpha  occ. eigenvalues --   -0.37374  -0.36406
 Alpha virt. eigenvalues --    0.05001   0.11231   0.16469   0.21335   0.23060
 Alpha virt. eigenvalues --    0.24515   0.26833   0.27208   0.27682   0.27851
 Alpha virt. eigenvalues --    0.28530   0.30898   0.31443   0.31916   0.32062

 Mulliken charges:
               1
     1  C   -0.170785
     2  C   -0.218644
     3  C   -0.171726
     4  C    0.156876
     5  C   -0.170211
     6  C   -0.218754
     7  H    0.225717
     8  H    0.223598
     9  H    0.275937
    10  H    0.275648
    11  H    0.223575
    12  N    0.490763
    13  O   -0.458140
    14  O   -0.459679
    15  C   -0.297595
    16  C   -0.299249
    17  C   -0.475419
    18  H    0.147046
    19  H    0.149616
    20  H    0.150538
    21  H    0.152718
    22  H    0.155441
    23  H    0.153780
    24  H    0.159665
    25  C   -0.297574
    26  C   -0.300678
    27  C   -0.475885
    28  H    0.147539
    29  H    0.150985
    30  H    0.145512
    31  H    0.151373
    32  H    0.158502
    33  H    0.144388
    34  H    0.175122
 Sum of Mulliken charges =  -0.00000

 Dipole moment (field-independent basis, Debye):
    X=             -0.3849    Y=              5.0285    Z=              0.8047  Tot=              5.1070
 Quadrupole moment (field-independent basis, Debye-Ang):
   XX=            -95.0838   YY=            -94.5337   ZZ=            -90.2757
   XY=            -16.0761   XZ=             -1.5167   YZ=             -1.4099

 Normal termination of Gaussian 16 at Thu May  6 01:28:18 2021.
