 Gaussian 16, Revision A.03,
 Gaussian 16:  EM64L-G16RevA.03 25-Dec-2016

 -------------
 #p 6-31g* mp2
 -------------

 ------------------------------------------------------
 Input file generated by CHIRIPA (05-May-2021 14:53:18)
 ------------------------------------------------------
 Symbolic Z-matrix:
 Charge =  0 Multiplicity = 1

                         Standard orientation:
 ---------------------------------------------------------------------
 Center     Atomic      Atomic             Coordinates (Angstroms)
 Number     Number       Type             X           Y           Z
 ---------------------------------------------------------------------
      1          6           0       -4.902389    0.534761    0.007600
      2          6           0       -6.378992    0.495290    0.402659
      3          6           0       -7.066691    1.852984    0.255921
      4          1           0       -4.383447    1.279085    0.626975
      5          1           0       -4.817321    0.879427   -1.032286
      6          1           0       -6.461332    0.149478    1.441047
      7          1           0       -6.894440   -0.249163   -0.217598
      8          1           0       -7.014128    2.201418   -0.780627
      9          1           0       -6.578560    2.602325    0.887442
     10          1           0       -8.121438    1.801942    0.543606
     11          6           0       -4.201169   -0.815072    0.148917
     12          6           0       -2.724567   -0.775601   -0.246142
     13          6           0       -2.036868   -2.133295   -0.099404
     14          1           0       -4.286238   -1.159738    1.188804
     15          1           0       -4.720111   -1.559396   -0.470458
     16          1           0       -2.209119   -0.031148    0.374115
     17          1           0       -2.642226   -0.429789   -1.284530
     18          1           0       -2.524999   -2.882635   -0.730925
     19          1           0       -2.089430   -2.481729    0.937144
     20          1           0       -0.982120   -2.082252   -0.387089
     21          6           0        5.793629    1.138314    0.487333
     22          6           0        4.816733    1.895425   -0.167630
     23          6           0        3.573410    1.335704   -0.476513
     24          6           0        3.339760    0.010034   -0.114164
     25          6           0        4.292692   -0.770049    0.539043
     26          6           0        5.528957   -0.189666    0.837962
     27          1           0        6.756731    1.581144    0.723411
     28          1           0        5.019502    2.926990   -0.441136
     29          1           0        2.799154    1.899110   -0.982990
     30          1           0        4.061279   -1.795858    0.799009
     31          1           0        6.285743   -0.780031    1.346675
     32          7           0        2.027245   -0.593454   -0.435890
     33          8           0        1.846121   -1.763487   -0.105955
     34          8           0        1.204473    0.114989   -1.011902
 ---------------------------------------------------------------------

 SCF Done:  E(RHF) =  -669.536990370     A.U. after   15 cycles
 E2 =    -0.2091566722D+01 EUMP2 =    -0.67162855709198D+03

 The electronic state is 1-A.
 Alpha  occ. eigenvalues --  -20.61121 -20.61110 -15.86101 -11.31381 -11.27929
 Alpha  occ. eigenvalues --  -11.27926 -11.27658 -11.26924 -11.26914 -11.20869
 Alpha  occ. eigenvalues --  -11.20484 -11.20446 -11.20169 -11.19946 -11.18997
 Alpha  occ. eigenvalues --   -1.60145  -1.39702  -1.19537  -1.08952  -1.07325
 Alpha  occ. eigenvalues --   -1.04924  -1.02301  -0.95802  -0.94747  -0.86327
 Alpha  occ. eigenvalues --   -0.85776  -0.82634  -0.78438  -0.77698  -0.77052
 Alpha  occ. eigenvalues --   -0.72302  -0.71445  -0.70645  -0.65191  -0.64927
 Alpha  occ. eigenvalues --   -0.63979  -0.62270  -0.59727  -0.58204  -0.56317
 Alpha  occ. eigenvalues --   -0.55420  -0.54084  -0.53259  -0.53014  -0.51444
 Alpha  occ. eigenvalues --   -0.51202  -0.49074  -0.48969  -0.48760  -0.46690
 Alpha  occ. eigenvalues --   -0.45525  -0.45126  -0.44594  -0.44504  -0.42501
 Alpha  occ. eigenvalues --   -0.37514  -0.36521
 Alpha virt. eigenvalues --    0.04831   0.11135   0.16342   0.21276   0.23849
 Alpha virt. eigenvalues --    0.25613   0.27201   0.27674   0.28153   0.28541
 Alpha virt. eigenvalues --    0.29316   0.30847   0.32385   0.32518   0.32718

 Mulliken charges:
               1
     1  C   -0.296868
     2  C   -0.298609
     3  C   -0.474970
     4  H    0.147633
     5  H    0.148469
     6  H    0.150357
     7  H    0.150809
     8  H    0.154291
     9  H    0.153751
    10  H    0.157793
    11  C   -0.297442
    12  C   -0.294514
    13  C   -0.489238
    14  H    0.145723
    15  H    0.146454
    16  H    0.151059
    17  H    0.152408
    18  H    0.145084
    19  H    0.145597
    20  H    0.193338
    21  C   -0.170377
    22  C   -0.218634
    23  C   -0.170722
    24  C    0.159182
    25  C   -0.170623
    26  C   -0.218606
    27  H    0.226310
    28  H    0.224150
    29  H    0.276149
    30  H    0.276167
    31  H    0.224152
    32  N    0.488474
    33  O   -0.458272
    34  O   -0.458474
 Sum of Mulliken charges =  -0.00000

 Dipole moment (field-independent basis, Debye):
    X=              5.1611    Y=              2.1622    Z=              1.0641  Tot=              5.6960
 Quadrupole moment (field-independent basis, Debye-Ang):
   XX=            -65.8360   YY=            -92.2374   ZZ=            -94.0423
   XY=              6.3645   XZ=              4.5263   YZ=             -2.0092

 Normal termination of Gaussian 16 at Thu May  6 10:43:07 2021.
