 Gaussian 16, Revision A.03,
 Gaussian 16:  EM64L-G16RevA.03 25-Dec-2016

 -------------
 #p 6-31g* mp2
 -------------

 ------------------------------------------------------
 Input file generated by CHIRIPA (05-May-2021 14:55:21)
 ------------------------------------------------------
 Symbolic Z-matrix:
 Charge =  0 Multiplicity = 1

                         Standard orientation:
 ---------------------------------------------------------------------
 Center     Atomic      Atomic             Coordinates (Angstroms)
 Number     Number       Type             X           Y           Z
 ---------------------------------------------------------------------
      1          6           0       -1.493375    0.242406   -0.617181
      2          6           0       -2.195343   -0.954357   -0.794718
      3          6           0       -3.567845   -1.017498   -0.536264
      4          6           0       -4.209618    0.140401   -0.099585
      5          6           0       -3.537935    1.347625    0.086807
      6          6           0       -2.165726    1.387559   -0.177760
      7          1           0       -0.427296    0.282442   -0.820329
      8          1           0       -1.675786   -1.845266   -1.135874
      9          1           0       -4.135731   -1.930881   -0.665317
     10          1           0       -4.083248    2.219203    0.427986
     11          1           0       -1.623131    2.318355   -0.039004
     12          7           0       -5.662470    0.085840    0.177264
     13          8           0       -6.204746    1.119901    0.561051
     14          8           0       -6.231428   -0.989951    0.005229
     15          6           0        4.376666   -0.089931    0.461430
     16          6           0        3.490879   -1.329443    0.331134
     17          6           0        2.083262   -1.111173    0.886800
     18          1           0        4.439307    0.198564    1.519632
     19          1           0        3.900238    0.749489   -0.063721
     20          1           0        3.969508   -2.166631    0.855200
     21          1           0        3.430496   -1.615135   -0.726860
     22          1           0        1.582710   -0.293771    0.357743
     23          1           0        2.124786   -0.848401    1.948792
     24          1           0        1.467062   -2.009775    0.783494
     25          6           0        5.786971   -0.292514   -0.089684
     26          6           0        6.672757    0.946997    0.040613
     27          6           0        8.080375    0.728727   -0.515053
     28          1           0        6.263400   -1.131936    0.435467
     29          1           0        5.724331   -0.581010   -1.147886
     30          1           0        6.733142    1.232689    1.098606
     31          1           0        6.194129    1.784186   -0.483455
     32          1           0        8.038852    0.465956   -1.577047
     33          1           0        8.580927   -0.088675    0.014004
     34          1           0        8.696576    1.627329   -0.411748
 ---------------------------------------------------------------------

 SCF Done:  E(RHF) =  -669.535365501     A.U. after   15 cycles
 E2 =    -0.2090825274D+01 EUMP2 =    -0.67162619077507D+03

 The electronic state is 1-A.
 Alpha  occ. eigenvalues --  -20.60723 -20.60718 -15.85777 -11.31133 -11.27706
 Alpha  occ. eigenvalues --  -11.27702 -11.27418 -11.26715 -11.26705 -11.22482
 Alpha  occ. eigenvalues --  -11.22185 -11.22155 -11.22134 -11.21989 -11.21517
 Alpha  occ. eigenvalues --   -1.59799  -1.39353  -1.19306  -1.09147  -1.08699
 Alpha  occ. eigenvalues --   -1.04709  -1.04264  -0.96728  -0.95536  -0.87745
 Alpha  occ. eigenvalues --   -0.86105  -0.82373  -0.80331  -0.78931  -0.77420
 Alpha  occ. eigenvalues --   -0.71995  -0.71122  -0.70434  -0.65779  -0.64957
 Alpha  occ. eigenvalues --   -0.64715  -0.62059  -0.61672  -0.60102  -0.58324
 Alpha  occ. eigenvalues --   -0.56135  -0.55145  -0.53422  -0.53142  -0.53011
 Alpha  occ. eigenvalues --   -0.52801  -0.50654  -0.48759  -0.48750  -0.48634
 Alpha  occ. eigenvalues --   -0.47357  -0.46478  -0.46387  -0.44760  -0.44505
 Alpha  occ. eigenvalues --   -0.37269  -0.36316
 Alpha virt. eigenvalues --    0.05102   0.11331   0.16544   0.20033   0.22442
 Alpha virt. eigenvalues --    0.23825   0.25512   0.26364   0.26763   0.27292
 Alpha virt. eigenvalues --    0.28929   0.29908   0.31026   0.31437   0.32381

 Mulliken charges:
               1
     1  C   -0.171199
     2  C   -0.220263
     3  C   -0.170976
     4  C    0.158424
     5  C   -0.170861
     6  C   -0.219964
     7  H    0.230367
     8  H    0.223467
     9  H    0.275363
    10  H    0.275393
    11  H    0.223129
    12  N    0.488062
    13  O   -0.460599
    14  O   -0.460607
    15  C   -0.298250
    16  C   -0.300248
    17  C   -0.477672
    18  H    0.151729
    19  H    0.146587
    20  H    0.156019
    21  H    0.151010
    22  H    0.145044
    23  H    0.161528
    24  H    0.160393
    25  C   -0.298740
    26  C   -0.300044
    27  C   -0.476062
    28  H    0.151268
    29  H    0.149913
    30  H    0.152900
    31  H    0.151520
    32  H    0.155556
    33  H    0.156156
    34  H    0.161656
 Sum of Mulliken charges =  -0.00000

 Dipole moment (field-independent basis, Debye):
    X=              5.3322    Y=              0.1556    Z=             -0.9162  Tot=              5.4125
 Quadrupole moment (field-independent basis, Debye-Ang):
   XX=           -138.8269   YY=            -89.9125   ZZ=            -94.2615
   XY=             -0.2104   XZ=              4.4630   YZ=              0.9317

 Normal termination of Gaussian 16 at Wed May  5 22:15:02 2021.
