 Gaussian 16, Revision A.03,
 Gaussian 16:  EM64L-G16RevA.03 25-Dec-2016

 -------------
 #p 6-31g* mp2
 -------------

 ------------------------------------------------------
 Input file generated by CHIRIPA (05-May-2021 14:57:22)
 ------------------------------------------------------
 Symbolic Z-matrix:
 Charge =  0 Multiplicity = 1

                         Standard orientation:
 ---------------------------------------------------------------------
 Center     Atomic      Atomic             Coordinates (Angstroms)
 Number     Number       Type             X           Y           Z
 ---------------------------------------------------------------------
      1          6           0        5.233998    1.009822   -1.003786
      2          6           0        4.268476    1.706986   -0.270129
      3          6           0        3.205208    1.026605    0.330779
      4          6           0        3.138055   -0.357282    0.177035
      5          6           0        4.084408   -1.080097   -0.547702
      6          6           0        5.139050   -0.379046   -1.139991
      7          1           0        6.056620    1.546387   -1.467238
      8          1           0        4.339676    2.785610   -0.162683
      9          1           0        2.443951    1.541431    0.904242
     10          1           0        3.986684   -2.155203   -0.637230
     11          1           0        5.887442   -0.923082   -1.709182
     12          7           0        2.016986   -1.088512    0.808627
     13          8           0        1.980407   -2.307820    0.658335
     14          8           0        1.196100   -0.428497    1.442000
     15          6           0       -2.504359    2.556383    0.488684
     16          6           0       -3.488826    2.379068   -0.489019
     17          6           0       -3.949829    1.098422   -0.808352
     18          6           0       -3.401946    0.012514   -0.127236
     19          6           0       -2.420030    0.156709    0.851711
     20          6           0       -1.974038    1.446594    1.154755
     21          1           0       -2.152071    3.554808    0.730423
     22          1           0       -3.902484    3.239113   -1.007916
     23          1           0       -4.711028    0.932503   -1.560989
     24          1           0       -2.026689   -0.719924    1.351925
     25          1           0       -1.209389    1.581297    1.914500
     26          7           0       -3.882043   -1.348138   -0.456677
     27          8           0       -3.383306   -2.288532    0.157778
     28          8           0       -4.747991   -1.448458   -1.323112
 ---------------------------------------------------------------------

 SCF Done:  E(RHF) =  -868.339077756     A.U. after   16 cycles
 E2 =    -0.2599426602D+01 EUMP2 =    -0.87093850435800D+03

 The electronic state is 1-A.
 Alpha  occ. eigenvalues --  -20.61388 -20.61324 -20.59898 -20.59858 -15.86392
 Alpha  occ. eigenvalues --  -15.84928 -11.31630 -11.30235 -11.28232 -11.28142
 Alpha  occ. eigenvalues --  -11.27893 -11.27194 -11.27136 -11.26904 -11.26654
 Alpha  occ. eigenvalues --  -11.26630 -11.25956 -11.25719  -1.60406  -1.58960
 Alpha  occ. eigenvalues --   -1.39970  -1.38510  -1.19786  -1.18431  -1.09202
 Alpha  occ. eigenvalues --   -1.07868  -1.05176  -1.03791  -0.96063  -0.94693
 Alpha  occ. eigenvalues --   -0.86579  -0.85220  -0.82912  -0.81496  -0.77973
 Alpha  occ. eigenvalues --   -0.76527  -0.72632  -0.71707  -0.71148  -0.70898
 Alpha  occ. eigenvalues --   -0.70284  -0.69571  -0.65449  -0.65180  -0.64077
 Alpha  occ. eigenvalues --   -0.63801  -0.62531  -0.61100  -0.55675  -0.54395
 Alpha  occ. eigenvalues --   -0.53503  -0.53270  -0.52182  -0.51877  -0.49392
 Alpha  occ. eigenvalues --   -0.49334  -0.47920  -0.47891  -0.45399  -0.43925
 Alpha  occ. eigenvalues --   -0.37752  -0.36770  -0.36491  -0.35377
 Alpha virt. eigenvalues --    0.04550   0.05977   0.10887   0.12227   0.16064
 Alpha virt. eigenvalues --    0.17444   0.20859   0.22303   0.26618   0.27360
 Alpha virt. eigenvalues --    0.28700   0.29207   0.30589   0.31549   0.32577

 Mulliken charges:
               1
     1  C   -0.170202
     2  C   -0.218249
     3  C   -0.169452
     4  C    0.159068
     5  C   -0.169929
     6  C   -0.218335
     7  H    0.226969
     8  H    0.222927
     9  H    0.269657
    10  H    0.278121
    11  H    0.225565
    12  N    0.491851
    13  O   -0.451547
    14  O   -0.474068
    15  C   -0.173756
    16  C   -0.219650
    17  C   -0.172738
    18  C    0.155932
    19  C   -0.168457
    20  C   -0.219625
    21  H    0.219032
    22  H    0.218478
    23  H    0.272199
    24  H    0.289915
    25  H    0.230065
    26  N    0.487662
    27  O   -0.455818
    28  O   -0.465616
 Sum of Mulliken charges =  -0.00000

 Dipole moment (field-independent basis, Debye):
    X=              6.0767    Y=              7.0506    Z=             -0.9864  Tot=              9.3601
 Quadrupole moment (field-independent basis, Debye-Ang):
   XX=            -90.3745   YY=           -103.0256   ZZ=           -104.1664
   XY=            -12.4468   XZ=             -9.6732   YZ=              0.8728

 Normal termination of Gaussian 16 at Wed May  5 19:21:26 2021.
