 Gaussian 16, Revision A.03,
 Gaussian 16:  EM64L-G16RevA.03 25-Dec-2016

 -------------
 #p 6-31g* mp2
 -------------

 ------------------------------------------------------
 Input file generated by CHIRIPA (05-May-2021 14:57:22)
 ------------------------------------------------------
 Symbolic Z-matrix:
 Charge =  0 Multiplicity = 1

                         Standard orientation:
 ---------------------------------------------------------------------
 Center     Atomic      Atomic             Coordinates (Angstroms)
 Number     Number       Type             X           Y           Z
 ---------------------------------------------------------------------
      1          6           0        2.693864    2.213365   -0.574020
      2          6           0        2.120493    0.937904   -0.605111
      3          6           0        2.882194   -0.190873   -0.288532
      4          6           0        4.220284   -0.006775    0.056307
      5          6           0        4.820263    1.250886    0.096347
      6          6           0        4.039546    2.365517   -0.224008
      7          1           0        2.094770    3.084731   -0.821413
      8          1           0        1.075663    0.816734   -0.876575
      9          1           0        2.463648   -1.189863   -0.304603
     10          1           0        5.864382    1.339996    0.370745
     11          1           0        4.487489    3.354844   -0.199025
     12          7           0        5.036728   -1.194272    0.393453
     13          8           0        6.213408   -1.005336    0.694058
     14          8           0        4.484517   -2.291484    0.350719
     15          6           0       -6.404224    0.421794    0.785060
     16          6           0       -5.315815    0.542031    1.655366
     17          6           0       -4.026759    0.206504    1.230750
     18          6           0       -3.861579   -0.247983   -0.076709
     19          6           0       -4.925913   -0.378595   -0.967454
     20          6           0       -6.206148   -0.037326   -0.521269
     21          1           0       -7.402169    0.684670    1.123290
     22          1           0       -5.466669    0.898317    2.670426
     23          1           0       -3.166436    0.290043    1.883654
     24          1           0       -4.744183   -0.736630   -1.973537
     25          1           0       -7.049564   -0.131705   -1.199345
     26          7           0       -2.501582   -0.606230   -0.537648
     27          8           0       -2.382529   -1.004209   -1.694401
     28          8           0       -1.580421   -0.482261    0.266548
 ---------------------------------------------------------------------

 SCF Done:  E(RHF) =  -868.340166573     A.U. after   16 cycles
 E2 =    -0.2598294217D+01 EUMP2 =    -0.87093846078976D+03

 The electronic state is 1-A.
 Alpha  occ. eigenvalues --  -20.61693 -20.61682 -20.59913 -20.59896 -15.86700
 Alpha  occ. eigenvalues --  -15.84950 -11.31811 -11.30156 -11.28348 -11.28342
 Alpha  occ. eigenvalues --  -11.28041 -11.27302 -11.27293 -11.26764 -11.26557
 Alpha  occ. eigenvalues --  -11.26428 -11.25799 -11.25468  -1.60753  -1.58985
 Alpha  occ. eigenvalues --   -1.40308  -1.38542  -1.19960  -1.18303  -1.09404
 Alpha  occ. eigenvalues --   -1.07744  -1.05321  -1.03646  -0.96279  -0.94605
 Alpha  occ. eigenvalues --   -0.86731  -0.85068  -0.83116  -0.81413  -0.78194
 Alpha  occ. eigenvalues --   -0.76472  -0.72924  -0.72053  -0.71174  -0.71060
 Alpha  occ. eigenvalues --   -0.70306  -0.69440  -0.65613  -0.65319  -0.63945
 Alpha  occ. eigenvalues --   -0.63621  -0.62668  -0.60968  -0.55830  -0.54215
 Alpha  occ. eigenvalues --   -0.53667  -0.53406  -0.52035  -0.51714  -0.49695
 Alpha  occ. eigenvalues --   -0.49668  -0.47936  -0.47915  -0.45761  -0.43981
 Alpha  occ. eigenvalues --   -0.37926  -0.36913  -0.36322  -0.35244
 Alpha virt. eigenvalues --    0.04298   0.06007   0.10746   0.12389   0.15842
 Alpha virt. eigenvalues --    0.17538   0.20922   0.22580   0.26855   0.27772
 Alpha virt. eigenvalues --    0.28662   0.29322   0.30516   0.31959   0.32203

 Mulliken charges:
               1
     1  C   -0.172956
     2  C   -0.222107
     3  C   -0.172435
     4  C    0.157578
     5  C   -0.173487
     6  C   -0.218858
     7  H    0.221467
     8  H    0.242376
     9  H    0.281384
    10  H    0.271722
    11  H    0.218627
    12  N    0.487980
    13  O   -0.464476
    14  O   -0.460068
    15  C   -0.169820
    16  C   -0.218618
    17  C   -0.170930
    18  C    0.157295
    19  C   -0.170540
    20  C   -0.218619
    21  H    0.227776
    22  H    0.225423
    23  H    0.276169
    24  H    0.276474
    25  H    0.225416
    26  N    0.488251
    27  O   -0.458632
    28  O   -0.466394
 Sum of Mulliken charges =  -0.00000

 Dipole moment (field-independent basis, Debye):
    X=             -8.2663    Y=              5.3351    Z=              0.4072  Tot=              9.8469
 Quadrupole moment (field-independent basis, Debye-Ang):
   XX=            -89.4586   YY=           -105.0822   ZZ=           -101.8764
   XY=             16.7060   XZ=             -8.7663   YZ=              1.6425

 Normal termination of Gaussian 16 at Thu May  6 09:44:13 2021.
