 Gaussian 16, Revision A.03,
 Gaussian 16:  EM64L-G16RevA.03 25-Dec-2016

 -------------
 #p 6-31g* mp2
 -------------

 ------------------------------------------------------
 Input file generated by CHIRIPA (05-May-2021 14:51:14)
 ------------------------------------------------------
 Symbolic Z-matrix:
 Charge =  0 Multiplicity = 1

                         Standard orientation:
 ---------------------------------------------------------------------
 Center     Atomic      Atomic             Coordinates (Angstroms)
 Number     Number       Type             X           Y           Z
 ---------------------------------------------------------------------
      1          6           0       -3.959333    0.471228   -0.524356
      2          6           0       -2.522900    0.606047   -0.017928
      3          6           0       -1.713261    1.637611   -0.804156
      4          1           0       -3.942132    0.193320   -1.587096
      5          1           0       -4.454966    1.450129   -0.465243
      6          1           0       -2.030554   -0.373116   -0.076681
      7          1           0       -2.543523    0.883479    1.043779
      8          1           0       -2.178831    2.626130   -0.735783
      9          1           0       -1.662948    1.362395   -1.862610
     10          1           0       -0.689542    1.717827   -0.425440
     11          6           0       -4.781359   -0.556291    0.251664
     12          6           0       -6.217792   -0.691110   -0.254764
     13          6           0       -7.027431   -1.722674    0.531464
     14          1           0       -4.285726   -1.535192    0.192552
     15          1           0       -4.798560   -0.278383    1.314404
     16          1           0       -6.197169   -0.968542   -1.316471
     17          1           0       -6.710138    0.288053   -0.196010
     18          1           0       -7.077744   -1.447458    1.589919
     19          1           0       -6.561860   -2.711193    0.463092
     20          1           0       -8.051150   -1.802890    0.152749
     21          6           0        4.760186   -0.570641    0.371879
     22          6           0        5.799429   -1.054025   -0.640197
     23          6           0        6.571160   -2.281406   -0.154647
     24          1           0        5.262424   -0.337977    1.320862
     25          1           0        4.056349   -1.387652    0.582835
     26          1           0        6.500280   -0.235909   -0.850227
     27          1           0        5.294685   -1.285383   -1.586940
     28          1           0        5.887922   -3.115138    0.036864
     29          1           0        7.100367   -2.059702    0.777763
     30          1           0        7.308723   -2.610048   -0.893468
     31          6           0        3.980506    0.655704   -0.099188
     32          6           0        2.941263    1.139087    0.912888
     33          6           0        2.169532    2.366470    0.427339
     34          1           0        4.684344    1.472715   -0.310143
     35          1           0        3.478267    0.423039   -1.048171
     36          1           0        3.446006    1.370446    1.859631
     37          1           0        2.240413    0.320973    1.122919
     38          1           0        1.640326    2.144764   -0.505072
     39          1           0        2.852770    3.200201    0.235827
     40          1           0        1.431970    2.695111    1.166160
 ---------------------------------------------------------------------

 SCF Done:  E(RHF) =  -470.733069176     A.U. after   11 cycles
 E2 =    -0.1582359982D+01 EUMP2 =    -0.47231542915734D+03

 The electronic state is 1-A.
 Alpha  occ. eigenvalues --  -11.21623 -11.21609 -11.21591 -11.21571 -11.21416
 Alpha  occ. eigenvalues --  -11.21385 -11.21357 -11.21325 -11.21084 -11.21077
 Alpha  occ. eigenvalues --  -11.21064 -11.20963  -1.08445  -1.08407  -1.03558
 Alpha  occ. eigenvalues --   -1.03492  -0.96033  -0.95918  -0.87074  -0.86913
 Alpha  occ. eigenvalues --   -0.79643  -0.79534  -0.78255  -0.78221  -0.65080
 Alpha  occ. eigenvalues --   -0.65039  -0.60996  -0.60898  -0.59439  -0.59252
 Alpha  occ. eigenvalues --   -0.57606  -0.57576  -0.55304  -0.55233  -0.52843
 Alpha  occ. eigenvalues --   -0.52553  -0.52408  -0.52318  -0.49912  -0.49885
 Alpha  occ. eigenvalues --   -0.47941  -0.47859  -0.46635  -0.46600  -0.45797
 Alpha  occ. eigenvalues --   -0.45763  -0.45720  -0.45690  -0.43846  -0.43669
 Alpha virt. eigenvalues --    0.21944   0.23039   0.23565   0.25074   0.26529
 Alpha virt. eigenvalues --    0.26675   0.27234   0.27415   0.27609   0.28862
 Alpha virt. eigenvalues --    0.30863   0.31430   0.31631   0.31825   0.32013

 Mulliken charges:
               1
     1  C   -0.298354
     2  C   -0.298823
     3  C   -0.484673
     4  H    0.149492
     5  H    0.149531
     6  H    0.151118
     7  H    0.151632
     8  H    0.154968
     9  H    0.153976
    10  H    0.170673
    11  C   -0.298184
    12  C   -0.299608
    13  C   -0.475682
    14  H    0.149332
    15  H    0.149580
    16  H    0.151889
    17  H    0.151935
    18  H    0.155160
    19  H    0.155116
    20  H    0.160216
    21  C   -0.298329
    22  C   -0.299676
    23  C   -0.475714
    24  H    0.149690
    25  H    0.149546
    26  H    0.151970
    27  H    0.151960
    28  H    0.155177
    29  H    0.155199
    30  H    0.160281
    31  C   -0.298552
    32  C   -0.300502
    33  C   -0.480265
    34  H    0.149650
    35  H    0.149993
    36  H    0.152253
    37  H    0.152305
    38  H    0.158930
    39  H    0.156000
    40  H    0.160793
 Sum of Mulliken charges =  -0.00000

 Dipole moment (field-independent basis, Debye):
    X=              0.0405    Y=              0.0159    Z=              0.0066  Tot=              0.0440
 Quadrupole moment (field-independent basis, Debye-Ang):
   XX=            -85.2005   YY=            -85.1386   ZZ=            -84.4638
   XY=              0.3015   XZ=              0.2815   YZ=              1.2962

 Normal termination of Gaussian 16 at Thu May  6 00:51:44 2021.
