 Gaussian 16, Revision A.03,
 Gaussian 16:  EM64L-G16RevA.03 25-Dec-2016

 -------------
 #p 6-31g* mp2
 -------------

 ------------------------------------------------------
 Input file generated by CHIRIPA (05-May-2021 14:57:23)
 ------------------------------------------------------
 Symbolic Z-matrix:
 Charge =  0 Multiplicity = 1

                         Standard orientation:
 ---------------------------------------------------------------------
 Center     Atomic      Atomic             Coordinates (Angstroms)
 Number     Number       Type             X           Y           Z
 ---------------------------------------------------------------------
      1          6           0        3.150359   -2.240289    1.033468
      2          6           0        3.859413   -1.196495    1.637006
      3          6           0        3.797391    0.098950    1.114970
      4          6           0        3.013013    0.315941   -0.016823
      5          6           0        2.295050   -0.703149   -0.640742
      6          6           0        2.371813   -1.990724   -0.101479
      7          1           0        3.204265   -3.243565    1.445690
      8          1           0        4.464847   -1.387383    2.518515
      9          1           0        4.336157    0.925433    1.562269
     10          1           0        1.699996   -0.482011   -1.518481
     11          1           0        1.820087   -2.799418   -0.572284
     12          7           0        2.939551    1.683206   -0.578598
     13          8           0        2.241360    1.848328   -1.576547
     14          8           0        3.581552    2.563856   -0.010331
     15          6           0       -4.113111    1.809291    1.178274
     16          6           0       -3.104255    2.072822    0.245923
     17          6           0       -2.494409    1.027955   -0.454713
     18          6           0       -2.919938   -0.274274   -0.197000
     19          6           0       -3.922433   -0.568981    0.725735
     20          6           0       -4.518267    0.491554    1.414789
     21          1           0       -4.581412    2.627056    1.718046
     22          1           0       -2.787583    3.095207    0.060202
     23          1           0       -1.711044    1.203606   -1.181970
     24          1           0       -4.216800   -1.598540    0.889364
     25          1           0       -5.301513    0.283920    2.138293
     26          7           0       -2.281739   -1.388722   -0.932601
     27          8           0       -2.674619   -2.527211   -0.687397
     28          8           0       -1.400723   -1.102634   -1.740439
 ---------------------------------------------------------------------

 SCF Done:  E(RHF) =  -868.340748587     A.U. after   16 cycles
 E2 =    -0.2598504341D+01 EUMP2 =    -0.87093925292803D+03

 The electronic state is 1-A.
 Alpha  occ. eigenvalues --  -20.61191 -20.61165 -20.60492 -20.60482 -15.86209
 Alpha  occ. eigenvalues --  -15.85529 -11.31262 -11.30635 -11.27839 -11.27727
 Alpha  occ. eigenvalues --  -11.27506 -11.27258 -11.27025 -11.26910 -11.26793
 Alpha  occ. eigenvalues --  -11.26694 -11.26236 -11.26012  -1.60248  -1.59571
 Alpha  occ. eigenvalues --   -1.39808  -1.39129  -1.19414  -1.18797  -1.08873
 Alpha  occ. eigenvalues --   -1.08252  -1.04762  -1.04132  -0.95755  -0.95118
 Alpha  occ. eigenvalues --   -0.86179  -0.85554  -0.82594  -0.81939  -0.77669
 Alpha  occ. eigenvalues --   -0.77005  -0.72447  -0.71755  -0.71551  -0.70894
 Alpha  occ. eigenvalues --   -0.70519  -0.69895  -0.65069  -0.64759  -0.64438
 Alpha  occ. eigenvalues --   -0.64115  -0.62100  -0.61448  -0.55291  -0.54680
 Alpha  occ. eigenvalues --   -0.53123  -0.52842  -0.52524  -0.52196  -0.49200
 Alpha  occ. eigenvalues --   -0.49175  -0.48516  -0.48490  -0.45280  -0.44592
 Alpha  occ. eigenvalues --   -0.37394  -0.36808  -0.36355  -0.35733
 Alpha virt. eigenvalues --    0.04798   0.05476   0.11294   0.11906   0.16344
 Alpha virt. eigenvalues --    0.17009   0.21401   0.22165   0.27308   0.27780
 Alpha virt. eigenvalues --    0.28371   0.29148   0.31008   0.31619   0.32234

 Mulliken charges:
               1
     1  C   -0.171362
     2  C   -0.219597
     3  C   -0.172495
     4  C    0.155684
     5  C   -0.174330
     6  C   -0.222015
     7  H    0.224840
     8  H    0.220615
     9  H    0.272349
    10  H    0.288711
    11  H    0.234633
    12  N    0.487745
    13  O   -0.462982
    14  O   -0.463436
    15  C   -0.170136
    16  C   -0.219298
    17  C   -0.172244
    18  C    0.156898
    19  C   -0.171400
    20  C   -0.219015
    21  H    0.226671
    22  H    0.228868
    23  H    0.283204
    24  H    0.273954
    25  H    0.223115
    26  N    0.489686
    27  O   -0.461389
    28  O   -0.467273
 Sum of Mulliken charges =  -0.00000

 Dipole moment (field-independent basis, Debye):
    X=             -2.2086    Y=             -0.9111    Z=              4.4784  Tot=              5.0758
 Quadrupole moment (field-independent basis, Debye-Ang):
   XX=            -88.1422   YY=           -108.0196   ZZ=           -103.2532
   XY=            -22.9113   XZ=             -0.6910   YZ=             -1.1203

 Normal termination of Gaussian 16 at Wed May  5 19:23:58 2021.
