 Gaussian 16, Revision A.03,
 Gaussian 16:  EM64L-G16RevA.03 25-Dec-2016

 -------------
 #p 6-31g* mp2
 -------------

 ------------------------------------------------------
 Input file generated by CHIRIPA (05-May-2021 14:57:26)
 ------------------------------------------------------
 Symbolic Z-matrix:
 Charge =  0 Multiplicity = 1

                         Standard orientation:
 ---------------------------------------------------------------------
 Center     Atomic      Atomic             Coordinates (Angstroms)
 Number     Number       Type             X           Y           Z
 ---------------------------------------------------------------------
      1          6           0        2.574779   -2.254263    1.063411
      2          6           0        1.568391   -1.303604    1.263289
      3          6           0        1.664252   -0.035392    0.682773
      4          6           0        2.785295    0.249630   -0.095247
      5          6           0        3.804541   -0.676120   -0.312991
      6          6           0        3.687680   -1.938045    0.277295
      7          1           0        2.492156   -3.236999    1.518164
      8          1           0        0.702967   -1.546406    1.873315
      9          1           0        0.899750    0.719472    0.821099
     10          1           0        4.655319   -0.404814   -0.926170
     11          1           0        4.470786   -2.674359    0.120347
     12          7           0        2.897894    1.588901   -0.714985
     13          8           0        3.895598    1.815296   -1.396137
     14          8           0        1.986313    2.386869   -0.507847
     15          6           0       -2.613206    1.984246    1.506245
     16          6           0       -2.120821    0.747185    1.934913
     17          6           0       -2.200589   -0.374994    1.104915
     18          6           0       -2.781580   -0.223527   -0.153178
     19          6           0       -3.281153    0.995524   -0.608846
     20          6           0       -3.190783    2.104255    0.237969
     21          1           0       -2.547123    2.850759    2.157539
     22          1           0       -1.671755    0.651033    2.919364
     23          1           0       -1.827339   -1.344566    1.411564
     24          1           0       -3.723407    1.060284   -1.595576
     25          1           0       -3.574008    3.063728   -0.097585
     26          7           0       -2.871638   -1.404409   -1.040762
     27          8           0       -3.388048   -1.244719   -2.144599
     28          8           0       -2.424111   -2.467314   -0.615806
 ---------------------------------------------------------------------

 SCF Done:  E(RHF) =  -868.337631506     A.U. after   16 cycles
 E2 =    -0.2601280644D+01 EUMP2 =    -0.87093891214957D+03

 The electronic state is 1-A.
 Alpha  occ. eigenvalues --  -20.61136 -20.61111 -20.60832 -20.60814 -15.86185
 Alpha  occ. eigenvalues --  -15.85879 -11.31616 -11.31171 -11.28329 -11.28117
 Alpha  occ. eigenvalues --  -11.27896 -11.27749 -11.27739 -11.27493 -11.27305
 Alpha  occ. eigenvalues --  -11.27092 -11.26828 -11.26726  -1.60197  -1.59901
 Alpha  occ. eigenvalues --   -1.39751  -1.39457  -1.19800  -1.19355  -1.09152
 Alpha  occ. eigenvalues --   -1.08761  -1.05246  -1.04755  -0.95987  -0.95602
 Alpha  occ. eigenvalues --   -0.86604  -0.86164  -0.82842  -0.82448  -0.77907
 Alpha  occ. eigenvalues --   -0.77491  -0.72404  -0.72104  -0.71518  -0.71220
 Alpha  occ. eigenvalues --   -0.70881  -0.70456  -0.65452  -0.65246  -0.65018
 Alpha  occ. eigenvalues --   -0.64782  -0.62656  -0.62053  -0.55659  -0.55264
 Alpha  occ. eigenvalues --   -0.53530  -0.53353  -0.53047  -0.52809  -0.49169
 Alpha  occ. eigenvalues --   -0.49149  -0.48858  -0.48852  -0.45144  -0.44879
 Alpha  occ. eigenvalues --   -0.37731  -0.37316  -0.36887  -0.36285
 Alpha virt. eigenvalues --    0.04624   0.05059   0.10788   0.11277   0.16064
 Alpha virt. eigenvalues --    0.16537   0.19453   0.22172   0.25129   0.27520
 Alpha virt. eigenvalues --    0.28348   0.29015   0.30392   0.31248   0.32095

 Mulliken charges:
               1
     1  C   -0.168334
     2  C   -0.216411
     3  C   -0.174564
     4  C    0.158524
     5  C   -0.169507
     6  C   -0.218626
     7  H    0.227476
     8  H    0.213860
     9  H    0.276592
    10  H    0.275832
    11  H    0.224409
    12  N    0.488300
    13  O   -0.459804
    14  O   -0.463209
    15  C   -0.167000
    16  C   -0.226540
    17  C   -0.177226
    18  C    0.161296
    19  C   -0.167625
    20  C   -0.215071
    21  H    0.230233
    22  H    0.221950
    23  H    0.269765
    24  H    0.278826
    25  H    0.228442
    26  N    0.488603
    27  O   -0.456803
    28  O   -0.463389
 Sum of Mulliken charges =  -0.00000

 Dipole moment (field-independent basis, Debye):
    X=             -0.2512    Y=             -0.4123    Z=              5.1227  Tot=              5.1454
 Quadrupole moment (field-independent basis, Debye-Ang):
   XX=           -103.8252   YY=           -107.6832   ZZ=           -104.0366
   XY=            -28.7914   XZ=             -2.7448   YZ=             -1.8309

 Normal termination of Gaussian 16 at Fri May  7 06:38:20 2021.
