 Gaussian 16, Revision A.03,
 Gaussian 16:  EM64L-G16RevA.03 25-Dec-2016

 -------------
 #p 6-31g* mp2
 -------------

 ------------------------------------------------------
 Input file generated by CHIRIPA (05-May-2021 14:53:18)
 ------------------------------------------------------
 Symbolic Z-matrix:
 Charge =  0 Multiplicity = 1

                         Standard orientation:
 ---------------------------------------------------------------------
 Center     Atomic      Atomic             Coordinates (Angstroms)
 Number     Number       Type             X           Y           Z
 ---------------------------------------------------------------------
      1          6           0       -2.639276    1.292971    0.166620
      2          6           0       -1.286059    1.538518   -0.501584
      3          6           0       -0.502089    2.677092    0.151742
      4          1           0       -3.232405    2.216966    0.129522
      5          1           0       -2.479600    1.066523    1.229926
      6          1           0       -1.448145    1.763075   -1.563619
      7          1           0       -0.696156    0.613777   -0.463062
      8          1           0       -0.311200    2.457380    1.207152
      9          1           0       -1.067462    3.613208    0.100341
     10          1           0        0.461970    2.835481   -0.341575
     11          6           0       -3.434799    0.157731   -0.475332
     12          6           0       -4.788016   -0.087816    0.192872
     13          6           0       -5.571986   -1.226389   -0.460454
     14          1           0       -3.594475    0.384179   -1.538638
     15          1           0       -2.841669   -0.766263   -0.438234
     16          1           0       -5.377919    0.836925    0.154350
     17          1           0       -4.625930   -0.312373    1.254907
     18          1           0       -5.006613   -2.162505   -0.409053
     19          1           0       -5.762875   -1.006677   -1.515864
     20          1           0       -6.536045   -1.384779    0.032864
     21          6           0        0.226904   -1.628504    0.916880
     22          6           0        0.668873   -1.840746   -0.393134
     23          6           0        1.856298   -1.257429   -0.845139
     24          6           0        2.580131   -0.464028    0.043608
     25          6           0        2.166047   -0.233716    1.354631
     26          6           0        0.975582   -0.827079    1.785051
     27          1           0       -0.696698   -2.085541    1.259624
     28          1           0        0.089483   -2.462673   -1.069566
     29          1           0        2.221627   -1.405109   -1.854170
     30          1           0        2.765142    0.391201    2.005769
     31          1           0        0.634772   -0.660505    2.802965
     32          7           0        3.838815    0.158822   -0.423483
     33          8           0        4.458335    0.853630    0.379059
     34          8           0        4.182018   -0.059591   -1.583287
 ---------------------------------------------------------------------

 SCF Done:  E(RHF) =  -669.534257650     A.U. after   15 cycles
 E2 =    -0.2095184595D+01 EUMP2 =    -0.67162944224523D+03

 The electronic state is 1-A.
 Alpha  occ. eigenvalues --  -20.60867 -20.60862 -15.85923 -11.31348 -11.27925
 Alpha  occ. eigenvalues --  -11.27905 -11.27636 -11.26926 -11.26891 -11.22193
 Alpha  occ. eigenvalues --  -11.21994 -11.21779 -11.21667 -11.21564 -11.21145
 Alpha  occ. eigenvalues --   -1.59942  -1.39493  -1.19532  -1.08967  -1.08818
 Alpha  occ. eigenvalues --   -1.04926  -1.03883  -0.96365  -0.95731  -0.87375
 Alpha  occ. eigenvalues --   -0.86317  -0.82554  -0.79975  -0.78682  -0.77593
 Alpha  occ. eigenvalues --   -0.72138  -0.71267  -0.70621  -0.65558  -0.65166
 Alpha  occ. eigenvalues --   -0.64909  -0.62261  -0.61355  -0.59746  -0.57973
 Alpha  occ. eigenvalues --   -0.55743  -0.55388  -0.53322  -0.53006  -0.52955
 Alpha  occ. eigenvalues --   -0.52763  -0.50324  -0.48902  -0.48890  -0.48264
 Alpha  occ. eigenvalues --   -0.47016  -0.46195  -0.46118  -0.44886  -0.44163
 Alpha  occ. eigenvalues --   -0.37406  -0.36486
 Alpha virt. eigenvalues --    0.04903   0.11024   0.16313   0.20088   0.22964
 Alpha virt. eigenvalues --    0.23783   0.25889   0.26247   0.27296   0.27802
 Alpha virt. eigenvalues --    0.29517   0.30609   0.31275   0.31591   0.31851

 Mulliken charges:
               1
     1  C   -0.296759
     2  C   -0.310184
     3  C   -0.474067
     4  H    0.151567
     5  H    0.143121
     6  H    0.150495
     7  H    0.166316
     8  H    0.149812
     9  H    0.154496
    10  H    0.163415
    11  C   -0.297292
    12  C   -0.299607
    13  C   -0.475165
    14  H    0.152286
    15  H    0.138684
    16  H    0.155148
    17  H    0.148951
    18  H    0.150856
    19  H    0.157169
    20  H    0.162130
    21  C   -0.173061
    22  C   -0.221220
    23  C   -0.169244
    24  C    0.159654
    25  C   -0.169293
    26  C   -0.216140
    27  H    0.227050
    28  H    0.225061
    29  H    0.276606
    30  H    0.276699
    31  H    0.224318
    32  N    0.487847
    33  O   -0.459749
    34  O   -0.459901
 Sum of Mulliken charges =  -0.00000

 Dipole moment (field-independent basis, Debye):
    X=             -4.3145    Y=             -2.2176    Z=              1.6161  Tot=              5.1132
 Quadrupole moment (field-independent basis, Debye-Ang):
   XX=           -118.4322   YY=            -92.7641   ZZ=            -90.4102
   XY=             -4.2411   XZ=              4.8965   YZ=              0.5354

 Normal termination of Gaussian 16 at Thu May  6 09:10:55 2021.
