 Gaussian 16, Revision A.03,
 Gaussian 16:  EM64L-G16RevA.03 25-Dec-2016

 -------------
 #p 6-31g* mp2
 -------------

 ------------------------------------------------------
 Input file generated by CHIRIPA (05-May-2021 14:53:17)
 ------------------------------------------------------
 Symbolic Z-matrix:
 Charge =  0 Multiplicity = 1

                         Standard orientation:
 ---------------------------------------------------------------------
 Center     Atomic      Atomic             Coordinates (Angstroms)
 Number     Number       Type             X           Y           Z
 ---------------------------------------------------------------------
      1          6           0       -4.233102    0.167901    0.089679
      2          6           0       -5.721267   -0.102124   -0.134898
      3          6           0       -6.614676    0.999855    0.435415
      4          1           0       -4.044663    0.273946    1.166801
      5          1           0       -3.968723    1.130233   -0.370121
      6          1           0       -5.982460   -1.064316    0.323992
      7          1           0       -5.906153   -0.207729   -1.211597
      8          1           0       -6.382696    1.963290   -0.029964
      9          1           0       -6.459437    1.101836    1.514351
     10          1           0       -7.674357    0.786588    0.263792
     11          6           0       -3.327158   -0.924914   -0.474899
     12          6           0       -1.838992   -0.654888   -0.250322
     13          6           0       -0.945583   -1.756867   -0.820635
     14          1           0       -3.591537   -1.887245   -0.015099
     15          1           0       -3.515596   -1.030959   -1.552020
     16          1           0       -1.654107   -0.549284    0.826377
     17          1           0       -1.577799    0.307304   -0.709212
     18          1           0       -1.100823   -1.858848   -1.899571
     19          1           0       -1.177564   -2.720303   -0.355256
     20          1           0        0.114097   -1.543601   -0.649012
     21          6           0        3.615548   -2.126993    0.390847
     22          6           0        2.460881   -1.651153    1.020801
     23          6           0        2.084278   -0.310716    0.894519
     24          6           0        2.889195    0.529926    0.127239
     25          6           0        4.045346    0.085798   -0.512572
     26          6           0        4.402708   -1.258528   -0.372483
     27          1           0        3.900629   -3.169786    0.494309
     28          1           0        1.847653   -2.323334    1.614238
     29          1           0        1.195427    0.084102    1.371468
     30          1           0        4.636516    0.779866   -1.097556
     31          1           0        5.299967   -1.625301   -0.862840
     32          7           0        2.500687    1.951046   -0.013760
     33          8           0        3.226813    2.671387   -0.695293
     34          8           0        1.477405    2.317669    0.559929
 ---------------------------------------------------------------------

 SCF Done:  E(RHF) =  -669.534600375     A.U. after   15 cycles
 E2 =    -0.2092892558D+01 EUMP2 =    -0.67162749293381D+03

 The electronic state is 1-A.
 Alpha  occ. eigenvalues --  -20.60805 -20.60799 -15.85857 -11.31235 -11.27801
 Alpha  occ. eigenvalues --  -11.27785 -11.27543 -11.26818 -11.26801 -11.21638
 Alpha  occ. eigenvalues --  -11.21500 -11.21375 -11.21242 -11.21113 -11.20934
 Alpha  occ. eigenvalues --   -1.59878  -1.39431  -1.19423  -1.08804  -1.08384
 Alpha  occ. eigenvalues --   -1.04838  -1.03505  -0.95968  -0.95631  -0.86978
 Alpha  occ. eigenvalues --   -0.86212  -0.82469  -0.79569  -0.78183  -0.77512
 Alpha  occ. eigenvalues --   -0.72074  -0.71203  -0.70516  -0.65076  -0.65009
 Alpha  occ. eigenvalues --   -0.64812  -0.62189  -0.60904  -0.59372  -0.57605
 Alpha  occ. eigenvalues --   -0.55316  -0.55237  -0.53452  -0.52902  -0.52511
 Alpha  occ. eigenvalues --   -0.52197  -0.49896  -0.48835  -0.48828  -0.47878
 Alpha  occ. eigenvalues --   -0.46604  -0.45731  -0.45640  -0.44828  -0.43765
 Alpha  occ. eigenvalues --   -0.37401  -0.36317
 Alpha virt. eigenvalues --    0.05000   0.11175   0.16447   0.20784   0.22992
 Alpha virt. eigenvalues --    0.24214   0.26128   0.27002   0.27413   0.28223
 Alpha virt. eigenvalues --    0.28987   0.30509   0.31440   0.31634   0.32399

 Mulliken charges:
               1
     1  C   -0.298755
     2  C   -0.299698
     3  C   -0.475768
     4  H    0.149386
     5  H    0.153792
     6  H    0.150413
     7  H    0.151887
     8  H    0.156873
     9  H    0.155167
    10  H    0.159645
    11  C   -0.297952
    12  C   -0.301093
    13  C   -0.486275
    14  H    0.147062
    15  H    0.150476
    16  H    0.144717
    17  H    0.162257
    18  H    0.156922
    19  H    0.148968
    20  H    0.166844
    21  C   -0.170756
    22  C   -0.217518
    23  C   -0.175777
    24  C    0.160028
    25  C   -0.171052
    26  C   -0.218433
    27  H    0.226126
    28  H    0.225492
    29  H    0.279904
    30  H    0.275799
    31  H    0.223758
    32  N    0.488024
    33  O   -0.460285
    34  O   -0.460180
 Sum of Mulliken charges =  -0.00000

 Dipole moment (field-independent basis, Debye):
    X=              1.4335    Y=             -4.9110    Z=              0.4738  Tot=              5.1379
 Quadrupole moment (field-independent basis, Debye-Ang):
   XX=            -84.3483   YY=           -101.0202   ZZ=            -92.8529
   XY=            -13.0054   XZ=             -0.7175   YZ=             -1.7140

 Normal termination of Gaussian 16 at Thu May  6 07:34:47 2021.
