 Gaussian 16, Revision A.03,
 Gaussian 16:  EM64L-G16RevA.03 25-Dec-2016

 -------------
 #p 6-31g* mp2
 -------------

 ------------------------------------------------------
 Input file generated by CHIRIPA (05-May-2021 14:53:14)
 ------------------------------------------------------
 Symbolic Z-matrix:
 Charge =  0 Multiplicity = 1

                         Standard orientation:
 ---------------------------------------------------------------------
 Center     Atomic      Atomic             Coordinates (Angstroms)
 Number     Number       Type             X           Y           Z
 ---------------------------------------------------------------------
      1          6           0        3.189971   -0.231931   -0.367899
      2          6           0        4.197905   -1.172582    0.293335
      3          6           0        4.044252   -2.622269   -0.167741
      4          1           0        2.172185   -0.582218   -0.148000
      5          1           0        3.310058   -0.285386   -1.458823
      6          1           0        4.076886   -1.116329    1.382741
      7          1           0        5.213407   -0.819905    0.071996
      8          1           0        4.185942   -2.699186   -1.250612
      9          1           0        3.042963   -2.997295    0.067580
     10          1           0        4.774572   -3.277386    0.317352
     11          6           0        3.330998    1.220857    0.082931
     12          6           0        2.323064    2.161508   -0.578302
     13          6           0        2.476717    3.611195   -0.117227
     14          1           0        3.210911    1.274312    1.173855
     15          1           0        4.348784    1.571144   -0.136967
     16          1           0        1.307562    1.808831   -0.356964
     17          1           0        2.444083    2.105255   -1.667709
     18          1           0        3.478006    3.986221   -0.352548
     19          1           0        2.335027    3.688112    0.965644
     20          1           0        1.746397    4.266312   -0.602319
     21          6           0       -0.564985   -1.927465    0.358985
     22          6           0       -1.712240   -2.364787   -0.311146
     23          6           0       -2.816505   -1.519420   -0.454336
     24          6           0       -2.738892   -0.237305    0.087372
     25          6           0       -1.610073    0.227523    0.760420
     26          6           0       -0.517646   -0.634985    0.891690
     27          1           0        0.288236   -2.590825    0.465589
     28          1           0       -1.751820   -3.368025   -0.725865
     29          1           0       -3.717219   -1.832292   -0.968382
     30          1           0       -1.600291    1.233072    1.163151
     31          1           0        0.372012   -0.292663    1.412620
     32          7           0       -3.901661    0.666721   -0.057908
     33          8           0       -3.808232    1.791645    0.428356
     34          8           0       -4.884452    0.233252   -0.655290
 ---------------------------------------------------------------------

 SCF Done:  E(RHF) =  -669.534658069     A.U. after   15 cycles
 E2 =    -0.2093711513D+01 EUMP2 =    -0.67162836958222D+03

 The electronic state is 1-A.
 Alpha  occ. eigenvalues --  -20.60804 -20.60799 -15.85859 -11.31253 -11.27826
 Alpha  occ. eigenvalues --  -11.27820 -11.27563 -11.26838 -11.26828 -11.22493
 Alpha  occ. eigenvalues --  -11.22208 -11.22164 -11.22099 -11.22092 -11.21488
 Alpha  occ. eigenvalues --   -1.59879  -1.39432  -1.19432  -1.09230  -1.08814
 Alpha  occ. eigenvalues --   -1.04840  -1.04271  -0.96727  -0.95650  -0.87739
 Alpha  occ. eigenvalues --   -0.86242  -0.82482  -0.80332  -0.79022  -0.77519
 Alpha  occ. eigenvalues --   -0.72078  -0.71202  -0.70544  -0.66037  -0.65084
 Alpha  occ. eigenvalues --   -0.64731  -0.62173  -0.61684  -0.60089  -0.58316
 Alpha  occ. eigenvalues --   -0.56084  -0.55303  -0.53403  -0.53196  -0.53104
 Alpha  occ. eigenvalues --   -0.52912  -0.50694  -0.48838  -0.48830  -0.48640
 Alpha  occ. eigenvalues --   -0.47392  -0.46529  -0.46477  -0.44831  -0.44518
 Alpha  occ. eigenvalues --   -0.37367  -0.36397
 Alpha virt. eigenvalues --    0.04965   0.11068   0.16323   0.18538   0.21972
 Alpha virt. eigenvalues --    0.23494   0.25610   0.25658   0.26914   0.27880
 Alpha virt. eigenvalues --    0.29676   0.30826   0.31056   0.31564   0.32038

 Mulliken charges:
               1
     1  C   -0.305385
     2  C   -0.300617
     3  C   -0.475593
     4  H    0.146864
     5  H    0.153907
     6  H    0.149802
     7  H    0.156674
     8  H    0.159344
     9  H    0.144743
    10  H    0.164349
    11  C   -0.299723
    12  C   -0.302615
    13  C   -0.476384
    14  H    0.145066
    15  H    0.153619
    16  H    0.150178
    17  H    0.155430
    18  H    0.156690
    19  H    0.153654
    20  H    0.165090
    21  C   -0.173127
    22  C   -0.219632
    23  C   -0.170368
    24  C    0.158240
    25  C   -0.172797
    26  C   -0.218617
    27  H    0.230364
    28  H    0.224302
    29  H    0.275983
    30  H    0.276211
    31  H    0.226567
    32  N    0.488094
    33  O   -0.460121
    34  O   -0.460189
 Sum of Mulliken charges =  -0.00000

 Dipole moment (field-independent basis, Debye):
    X=              4.1612    Y=             -3.1316    Z=              0.4114  Tot=              5.2241
 Quadrupole moment (field-independent basis, Debye-Ang):
   XX=           -115.4202   YY=            -91.8868   ZZ=            -93.5315
   XY=             10.0847   XZ=             -0.4289   YZ=              1.2276

 Normal termination of Gaussian 16 at Thu May  6 20:22:56 2021.
