 Gaussian 16, Revision A.03,
 Gaussian 16:  EM64L-G16RevA.03 25-Dec-2016

 -------------
 #p 6-31g* mp2
 -------------

 ------------------------------------------------------
 Input file generated by CHIRIPA (05-May-2021 14:53:17)
 ------------------------------------------------------
 Symbolic Z-matrix:
 Charge =  0 Multiplicity = 1

                         Standard orientation:
 ---------------------------------------------------------------------
 Center     Atomic      Atomic             Coordinates (Angstroms)
 Number     Number       Type             X           Y           Z
 ---------------------------------------------------------------------
      1          6           0        4.125475   -0.354184   -0.073591
      2          6           0        3.841023   -1.856506   -0.083706
      3          6           0        5.116419   -2.699735   -0.072474
      4          1           0        4.743422   -0.098579   -0.945228
      5          1           0        4.721779   -0.106955    0.815619
      6          1           0        3.244259   -2.100610   -0.971907
      7          1           0        3.223521   -2.108533    0.787953
      8          1           0        5.712247   -2.485169    0.820584
      9          1           0        5.733102   -2.477201   -0.949275
     10          1           0        4.889856   -3.770470   -0.079964
     11          6           0        2.860358    0.502019   -0.084644
     12          6           0        3.144809    2.004340   -0.074528
     13          6           0        1.869414    2.847569   -0.085761
     14          1           0        2.264054    0.254789   -0.973853
     15          1           0        2.242410    0.246414    0.786994
     16          1           0        3.762311    2.256367   -0.946187
     17          1           0        3.741574    2.248444    0.813673
     18          1           0        1.252730    2.625036    0.791041
     19          1           0        1.273586    2.633004   -0.978818
     20          1           0        2.095976    3.918304   -0.078270
     21          6           0       -1.692714    2.235031    0.250310
     22          6           0       -2.294301    1.835055   -0.947451
     23          6           0       -2.871516    0.567000   -1.063247
     24          6           0       -2.829010   -0.279405    0.043587
     25          6           0       -2.237040    0.090060    1.250383
     26          6           0       -1.666050    1.362794    1.343478
     27          1           0       -1.246737    3.221904    0.331446
     28          1           0       -2.316483    2.510352   -1.798055
     29          1           0       -3.343781    0.231729   -1.978657
     30          1           0       -2.230463   -0.605159    2.081072
     31          1           0       -1.199534    1.670735    2.274918
     32          7           0       -3.436786   -1.624315   -0.066985
     33          8           0       -3.386221   -2.351384    0.922688
     34          8           0       -3.952219   -1.925920   -1.141229
 ---------------------------------------------------------------------

 SCF Done:  E(RHF) =  -669.534907925     A.U. after   15 cycles
 E2 =    -0.2092134242D+01 EUMP2 =    -0.67162704216667D+03

 The electronic state is 1-A.
 Alpha  occ. eigenvalues --  -20.60735 -20.60729 -15.85791 -11.31137 -11.27745
 Alpha  occ. eigenvalues --  -11.27741 -11.27437 -11.26724 -11.26711 -11.22189
 Alpha  occ. eigenvalues --  -11.21918 -11.21785 -11.21757 -11.21644 -11.21175
 Alpha  occ. eigenvalues --   -1.59812  -1.39366  -1.19329  -1.08815  -1.08709
 Alpha  occ. eigenvalues --   -1.04737  -1.03939  -0.96424  -0.95547  -0.87447
 Alpha  occ. eigenvalues --   -0.86134  -0.82392  -0.80022  -0.78576  -0.77440
 Alpha  occ. eigenvalues --   -0.72010  -0.71136  -0.70432  -0.65440  -0.64982
 Alpha  occ. eigenvalues --   -0.64745  -0.62094  -0.61335  -0.59793  -0.58017
 Alpha  occ. eigenvalues --   -0.55717  -0.55243  -0.53242  -0.53101  -0.52830
 Alpha  occ. eigenvalues --   -0.52642  -0.50368  -0.48767  -0.48764  -0.48311
 Alpha  occ. eigenvalues --   -0.47038  -0.46129  -0.46031  -0.44776  -0.44179
 Alpha  occ. eigenvalues --   -0.37226  -0.36344
 Alpha virt. eigenvalues --    0.05102   0.11170   0.16567   0.20762   0.22558
 Alpha virt. eigenvalues --    0.24013   0.25817   0.26654   0.27167   0.27454
 Alpha virt. eigenvalues --    0.28882   0.30254   0.30766   0.31577   0.31940

 Mulliken charges:
               1
     1  C   -0.298818
     2  C   -0.300015
     3  C   -0.476051
     4  H    0.150060
     5  H    0.149217
     6  H    0.153778
     7  H    0.152730
     8  H    0.154807
     9  H    0.155158
    10  H    0.162372
    11  C   -0.297813
    12  C   -0.300054
    13  C   -0.477797
    14  H    0.151697
    15  H    0.148649
    16  H    0.153945
    17  H    0.152662
    18  H    0.148781
    19  H    0.155499
    20  H    0.158866
    21  C   -0.164633
    22  C   -0.221937
    23  C   -0.170449
    24  C    0.157874
    25  C   -0.170715
    26  C   -0.220434
    27  H    0.229498
    28  H    0.223149
    29  H    0.275433
    30  H    0.275364
    31  H    0.222461
    32  N    0.488205
    33  O   -0.460727
    34  O   -0.460763
 Sum of Mulliken charges =  -0.00000

 Dipole moment (field-independent basis, Debye):
    X=              2.2198    Y=              4.6908    Z=              0.3507  Tot=              5.2014
 Quadrupole moment (field-independent basis, Debye-Ang):
   XX=           -107.9254   YY=            -98.5272   ZZ=            -89.3080
   XY=            -14.0003   XZ=              0.3205   YZ=             -1.0192

 Normal termination of Gaussian 16 at Thu May  6 20:29:59 2021.
