 Gaussian 16, Revision A.03,
 Gaussian 16:  EM64L-G16RevA.03 25-Dec-2016

 -------------
 #p 6-31g* mp2
 -------------

 ------------------------------------------------------
 Input file generated by CHIRIPA (05-May-2021 14:57:27)
 ------------------------------------------------------
 Symbolic Z-matrix:
 Charge =  0 Multiplicity = 1

                         Standard orientation:
 ---------------------------------------------------------------------
 Center     Atomic      Atomic             Coordinates (Angstroms)
 Number     Number       Type             X           Y           Z
 ---------------------------------------------------------------------
      1          6           0        1.690175    0.253186   -0.830279
      2          6           0        2.351907   -0.928788   -1.178949
      3          6           0        3.685755   -1.130526   -0.811935
      4          6           0        4.330323   -0.124800   -0.093369
      5          6           0        3.698231    1.063704    0.268859
      6          6           0        2.364261    1.243912   -0.108760
      7          1           0        0.653963    0.401538   -1.119504
      8          1           0        1.830904   -1.699923   -1.739263
      9          1           0        4.222053   -2.035976   -1.068769
     10          1           0        4.243945    1.814243    0.827702
     11          1           0        1.852868    2.162854    0.163394
     12          7           0        5.742473   -0.326975    0.300786
     13          8           0        6.288089    0.574408    0.933595
     14          8           0        6.276960   -1.382995   -0.030547
     15          6           0       -1.842579    1.192680    0.419544
     16          6           0       -2.674769    1.546134   -0.647718
     17          6           0       -3.926281    0.942505   -0.802311
     18          6           0       -4.315589   -0.014981    0.133077
     19          6           0       -3.509058   -0.388494    1.206988
     20          6           0       -2.261641    0.228195    1.341866
     21          1           0       -0.871965    1.666667    0.531979
     22          1           0       -2.351930    2.294847   -1.365527
     23          1           0       -4.590477    1.197290   -1.619223
     24          1           0       -3.858376   -1.138216    1.906497
     25          1           0       -1.617441   -0.048278    2.171694
     26          7           0       -5.638341   -0.660929   -0.020148
     27          8           0       -5.958109   -1.501632    0.817471
     28          8           0       -6.330300   -0.314290   -0.974962
 ---------------------------------------------------------------------

 SCF Done:  E(RHF) =  -868.336538227     A.U. after   16 cycles
 E2 =    -0.2600744519D+01 EUMP2 =    -0.87093728274561D+03

 The electronic state is 1-A.
 Alpha  occ. eigenvalues --  -20.61456 -20.61449 -20.61316 -20.61308 -15.86513
 Alpha  occ. eigenvalues --  -15.86375 -11.32075 -11.31876 -11.28646 -11.28608
 Alpha  occ. eigenvalues --  -11.28521 -11.28516 -11.28436 -11.28251 -11.27784
 Alpha  occ. eigenvalues --  -11.27700 -11.27634 -11.27455  -1.60526  -1.60388
 Alpha  occ. eigenvalues --   -1.40073  -1.39937  -1.20271  -1.20080  -1.09672
 Alpha  occ. eigenvalues --   -1.09451  -1.05678  -1.05507  -0.96482  -0.96241
 Alpha  occ. eigenvalues --   -0.87080  -0.86914  -0.83278  -0.83080  -0.78253
 Alpha  occ. eigenvalues --   -0.78109  -0.72727  -0.72592  -0.71852  -0.71715
 Alpha  occ. eigenvalues --   -0.71694  -0.70971  -0.65923  -0.65757  -0.65681
 Alpha  occ. eigenvalues --   -0.65511  -0.62998  -0.62851  -0.56420  -0.55909
 Alpha  occ. eigenvalues --   -0.53997  -0.53806  -0.53764  -0.53605  -0.49502
 Alpha  occ. eigenvalues --   -0.49470  -0.49362  -0.49335  -0.45434  -0.45312
 Alpha  occ. eigenvalues --   -0.38384  -0.38007  -0.37271  -0.37111
 Alpha virt. eigenvalues --    0.04148   0.04498   0.10313   0.10457   0.15456
 Alpha virt. eigenvalues --    0.15978   0.18518   0.21862   0.24769   0.26323
 Alpha virt. eigenvalues --    0.27491   0.29298   0.29335   0.30950   0.31937

 Mulliken charges:
               1
     1  C   -0.174733
     2  C   -0.219470
     3  C   -0.169712
     4  C    0.158632
     5  C   -0.169522
     6  C   -0.224444
     7  H    0.226650
     8  H    0.227361
     9  H    0.278297
    10  H    0.277166
    11  H    0.216481
    12  N    0.487982
    13  O   -0.459315
    14  O   -0.458146
    15  C   -0.178620
    16  C   -0.222275
    17  C   -0.169838
    18  C    0.159759
    19  C   -0.170485
    20  C   -0.219444
    21  H    0.222313
    22  H    0.224033
    23  H    0.278315
    24  H    0.278931
    25  H    0.228260
    26  N    0.487774
    27  O   -0.457665
    28  O   -0.458285
 Sum of Mulliken charges =  -0.00000

 Dipole moment (field-independent basis, Debye):
    X=             -0.4168    Y=              2.7843    Z=             -0.8194  Tot=              2.9321
 Quadrupole moment (field-independent basis, Debye-Ang):
   XX=           -187.4290   YY=           -100.2905   ZZ=           -100.7900
   XY=             -6.8410   XZ=             -6.6434   YZ=              0.1437

 Normal termination of Gaussian 16 at Thu May  6 14:50:24 2021.
