 Gaussian 16, Revision A.03,
 Gaussian 16:  EM64L-G16RevA.03 25-Dec-2016

 -------------
 #p 6-31g* mp2
 -------------

 ------------------------------------------------------
 Input file generated by CHIRIPA (05-May-2021 14:55:19)
 ------------------------------------------------------
 Symbolic Z-matrix:
 Charge =  0 Multiplicity = 1

                         Standard orientation:
 ---------------------------------------------------------------------
 Center     Atomic      Atomic             Coordinates (Angstroms)
 Number     Number       Type             X           Y           Z
 ---------------------------------------------------------------------
      1          6           0        4.713805    0.476785   -1.629030
      2          6           0        3.424723    1.019032   -1.656518
      3          6           0        2.469784    0.628192   -0.713181
      4          6           0        2.839721   -0.311333    0.247927
      5          6           0        4.115883   -0.869759    0.301421
      6          6           0        5.054670   -0.464221   -0.651871
      7          1           0        5.449351    0.786107   -2.365704
      8          1           0        3.157198    1.750012   -2.414241
      9          1           0        1.464599    1.031947   -0.711426
     10          1           0        4.353012   -1.596509    1.068899
     11          1           0        6.055032   -0.887018   -0.628109
     12          7           0        1.837320   -0.732878    1.251865
     13          8           0        2.188186   -1.562228    2.088351
     14          8           0        0.719753   -0.225953    1.183256
     15          6           0       -3.668871    1.047355   -0.192923
     16          6           0       -2.777522    1.592932    0.923243
     17          6           0       -2.431185    3.070157    0.734427
     18          1           0       -3.163238    1.186402   -1.158296
     19          1           0       -4.593718    1.639101   -0.236390
     20          1           0       -1.855234    0.999456    0.965499
     21          1           0       -3.285254    1.452395    1.886090
     22          1           0       -3.340528    3.679483    0.714040
     23          1           0       -1.902383    3.223970   -0.211782
     24          1           0       -1.793345    3.439557    1.543480
     25          6           0       -4.023747   -0.428199   -0.018190
     26          6           0       -4.915095   -0.973777   -1.134357
     27          6           0       -5.261434   -2.451001   -0.945540
     28          1           0       -3.098900   -1.019946    0.025276
     29          1           0       -4.529380   -0.567248    0.947183
     30          1           0       -4.407365   -0.833240   -2.097204
     31          1           0       -5.837384   -0.380300   -1.176612
     32          1           0       -5.790235   -2.604814    0.000669
     33          1           0       -4.352089   -3.060328   -0.925153
     34          1           0       -5.899272   -2.820402   -1.754592
 ---------------------------------------------------------------------

 SCF Done:  E(RHF) =  -669.536091182     A.U. after   15 cycles
 E2 =    -0.2090940963D+01 EUMP2 =    -0.67162703214504D+03

 The electronic state is 1-A.
 Alpha  occ. eigenvalues --  -20.60949 -20.60935 -15.85995 -11.31304 -11.27868
 Alpha  occ. eigenvalues --  -11.27863 -11.27603 -11.26873 -11.26864 -11.21032
 Alpha  occ. eigenvalues --  -11.20665 -11.20586 -11.20551 -11.20522 -11.20424
 Alpha  occ. eigenvalues --   -1.60012  -1.39569  -1.19472  -1.08877  -1.07679
 Alpha  occ. eigenvalues --   -1.04868  -1.02818  -0.95721  -0.95312  -0.86332
 Alpha  occ. eigenvalues --   -0.86268  -0.82559  -0.78868  -0.77629  -0.77442
 Alpha  occ. eigenvalues --   -0.72221  -0.71328  -0.70582  -0.65132  -0.64871
 Alpha  occ. eigenvalues --   -0.64308  -0.62216  -0.60215  -0.58669  -0.56900
 Alpha  occ. eigenvalues --   -0.55372  -0.54621  -0.53200  -0.52960  -0.52018
 Alpha  occ. eigenvalues --   -0.51732  -0.49274  -0.48973  -0.48961  -0.47187
 Alpha  occ. eigenvalues --   -0.45875  -0.45042  -0.44989  -0.44869  -0.43070
 Alpha  occ. eigenvalues --   -0.37451  -0.36469
 Alpha virt. eigenvalues --    0.04924   0.11186   0.16425   0.21093   0.23404
 Alpha virt. eigenvalues --    0.24656   0.26959   0.27414   0.28008   0.28608
 Alpha virt. eigenvalues --    0.28746   0.30753   0.31736   0.32348   0.32506

 Mulliken charges:
               1
     1  C   -0.170606
     2  C   -0.218527
     3  C   -0.170504
     4  C    0.157427
     5  C   -0.170754
     6  C   -0.218553
     7  H    0.226065
     8  H    0.223981
     9  H    0.275526
    10  H    0.275886
    11  H    0.223861
    12  N    0.497622
    13  O   -0.458819
    14  O   -0.470089
    15  C   -0.296436
    16  C   -0.312522
    17  C   -0.473875
    18  H    0.143477
    19  H    0.145501
    20  H    0.180730
    21  H    0.150826
    22  H    0.151745
    23  H    0.146390
    24  H    0.160783
    25  C   -0.299521
    26  C   -0.298870
    27  C   -0.475319
    28  H    0.157233
    29  H    0.149747
    30  H    0.148871
    31  H    0.149792
    32  H    0.155331
    33  H    0.156149
    34  H    0.157452
 Sum of Mulliken charges =  -0.00000

 Dipole moment (field-independent basis, Debye):
    X=              3.7828    Y=              1.3603    Z=             -3.4210  Tot=              5.2786
 Quadrupole moment (field-independent basis, Debye-Ang):
   XX=            -72.9006   YY=            -95.9504   ZZ=            -96.0148
   XY=              0.4958   XZ=             -8.6511   YZ=              0.0176

 Normal termination of Gaussian 16 at Thu May  6 19:03:32 2021.
