 Gaussian 16, Revision A.03,
 Gaussian 16:  EM64L-G16RevA.03 25-Dec-2016

 -------------
 #p 6-31g* mp2
 -------------

 ------------------------------------------------------
 Input file generated by CHIRIPA (05-May-2021 14:57:22)
 ------------------------------------------------------
 Symbolic Z-matrix:
 Charge =  0 Multiplicity = 1

                         Standard orientation:
 ---------------------------------------------------------------------
 Center     Atomic      Atomic             Coordinates (Angstroms)
 Number     Number       Type             X           Y           Z
 ---------------------------------------------------------------------
      1          6           0        6.783697   -0.464728   -0.503294
      2          6           0        5.754943   -1.015551   -1.274513
      3          6           0        4.416801   -0.791590   -0.937223
      4          6           0        4.142242   -0.008384    0.182820
      5          6           0        5.144976    0.554154    0.971088
      6          6           0        6.475973    0.316988    0.615073
      7          1           0        7.820423   -0.643836   -0.772582
      8          1           0        5.990963   -1.623046   -2.143587
      9          1           0        3.600749   -1.205896   -1.516730
     10          1           0        4.878480    1.155483    1.831786
     11          1           0        7.272861    0.746035    1.215851
     12          7           0        2.729393    0.235703    0.549806
     13          8           0        2.513865    0.929298    1.541326
     14          8           0        1.864283   -0.271198   -0.161019
     15          6           0       -2.183408    1.126193   -0.755775
     16          6           0       -3.381389    1.830666   -0.914147
     17          6           0       -4.601617    1.243538   -0.566479
     18          6           0       -4.586982   -0.055564   -0.061098
     19          6           0       -3.410084   -0.783220    0.108367
     20          6           0       -2.201547   -0.176205   -0.245922
     21          1           0       -1.240046    1.590012   -1.028424
     22          1           0       -3.370326    2.842264   -1.309865
     23          1           0       -5.543770    1.766177   -0.678783
     24          1           0       -3.452986   -1.790179    0.505371
     25          1           0       -1.272723   -0.725693   -0.121849
     26          7           0       -5.872593   -0.687656    0.310467
     27          8           0       -5.832789   -1.833393    0.753571
     28          8           0       -6.895717   -0.025386    0.151562
 ---------------------------------------------------------------------

 SCF Done:  E(RHF) =  -868.340707139     A.U. after   16 cycles
 E2 =    -0.2598110577D+01 EUMP2 =    -0.87093881771646D+03

 The electronic state is 1-A.
 Alpha  occ. eigenvalues --  -20.61912 -20.61877 -20.59927 -20.59920 -15.86914
 Alpha  occ. eigenvalues --  -15.84968 -11.31969 -11.30109 -11.28507 -11.28485
 Alpha  occ. eigenvalues --  -11.28176 -11.27441 -11.27427 -11.26684 -11.26576
 Alpha  occ. eigenvalues --  -11.26205 -11.25648 -11.25363  -1.60953  -1.59006
 Alpha  occ. eigenvalues --   -1.40515  -1.38566  -1.20110  -1.18230  -1.09562
 Alpha  occ. eigenvalues --   -1.07639  -1.05464  -1.03590  -0.96449  -0.94525
 Alpha  occ. eigenvalues --   -0.86876  -0.84972  -0.83293  -0.81368  -0.78373
 Alpha  occ. eigenvalues --   -0.76465  -0.73153  -0.72250  -0.71210  -0.71192
 Alpha  occ. eigenvalues --   -0.70326  -0.69285  -0.65766  -0.65461  -0.63860
 Alpha  occ. eigenvalues --   -0.63533  -0.62814  -0.60930  -0.55971  -0.54014
 Alpha  occ. eigenvalues --   -0.53810  -0.53550  -0.51946  -0.51648  -0.49914
 Alpha  occ. eigenvalues --   -0.49865  -0.47962  -0.47922  -0.45986  -0.44023
 Alpha  occ. eigenvalues --   -0.38069  -0.37053  -0.36167  -0.35203
 Alpha virt. eigenvalues --    0.04133   0.06040   0.10607   0.12465   0.15694
 Alpha virt. eigenvalues --    0.17619   0.20779   0.22726   0.26719   0.27613
 Alpha virt. eigenvalues --    0.28628   0.29528   0.30404   0.31842   0.32389

 Mulliken charges:
               1
     1  C   -0.169625
     2  C   -0.218481
     3  C   -0.170714
     4  C    0.157275
     5  C   -0.170241
     6  C   -0.218548
     7  H    0.228306
     8  H    0.225664
     9  H    0.274723
    10  H    0.276796
    11  H    0.225947
    12  N    0.490736
    13  O   -0.456102
    14  O   -0.472721
    15  C   -0.171509
    16  C   -0.219369
    17  C   -0.173237
    18  C    0.157949
    19  C   -0.173626
    20  C   -0.223408
    21  H    0.231988
    22  H    0.219144
    23  H    0.271484
    24  H    0.272550
    25  H    0.243440
    26  N    0.488215
    27  O   -0.462845
    28  O   -0.463792
 Sum of Mulliken charges =  -0.00000

 Dipole moment (field-independent basis, Debye):
    X=             10.2319    Y=              1.3638    Z=             -2.5601  Tot=             10.6351
 Quadrupole moment (field-independent basis, Debye-Ang):
   XX=           -104.8852   YY=           -101.0625   ZZ=           -102.7460
   XY=            -15.4594   XZ=              3.2992   YZ=              1.1475

 Normal termination of Gaussian 16 at Fri May  7 04:48:56 2021.
