 Gaussian 16, Revision A.03,
 Gaussian 16:  EM64L-G16RevA.03 25-Dec-2016

 -------------
 #p 6-31g* mp2
 -------------

 ------------------------------------------------------
 Input file generated by CHIRIPA (05-May-2021 14:57:25)
 ------------------------------------------------------
 Symbolic Z-matrix:
 Charge =  0 Multiplicity = 1

                         Standard orientation:
 ---------------------------------------------------------------------
 Center     Atomic      Atomic             Coordinates (Angstroms)
 Number     Number       Type             X           Y           Z
 ---------------------------------------------------------------------
      1          6           0        2.499121    2.781634   -0.439301
      2          6           0        1.736610    1.826020   -1.118932
      3          6           0        1.951771    0.461587   -0.903114
      4          6           0        2.942133    0.086443    0.003385
      5          6           0        3.718273    1.014574    0.695820
      6          6           0        3.485780    2.373581    0.464313
      7          1           0        2.325247    3.839451   -0.613047
      8          1           0        0.969680    2.140014   -1.821265
      9          1           0        1.375960   -0.299368   -1.415760
     10          1           0        4.475644    0.670959    1.389893
     11          1           0        4.079475    3.113507    0.993539
     12          7           0        3.179088   -1.355149    0.240167
     13          8           0        4.057629   -1.659809    1.043899
     14          8           0        2.481787   -2.153112   -0.382460
     15          6           0       -4.672407    1.341615    0.714620
     16          6           0       -4.403940    1.118604   -0.639895
     17          6           0       -3.425785    0.198063   -1.027663
     18          6           0       -2.732027   -0.485063   -0.030002
     19          6           0       -2.976552   -0.284887    1.327727
     20          6           0       -3.959115    0.640393    1.692385
     21          1           0       -5.433973    2.058554    1.006872
     22          1           0       -4.956328    1.661747   -1.401412
     23          1           0       -3.197690    0.005990   -2.069056
     24          1           0       -2.409420   -0.841443    2.063951
     25          1           0       -4.165487    0.811550    2.745077
     26          7           0       -1.694166   -1.462107   -0.428282
     27          8           0       -1.096881   -2.051174    0.469987
     28          8           0       -1.497627   -1.620349   -1.631182
 ---------------------------------------------------------------------

 SCF Done:  E(RHF) =  -868.336856169     A.U. after   16 cycles
 E2 =    -0.2600630202D+01 EUMP2 =    -0.87093748637069D+03

 The electronic state is 1-A.
 Alpha  occ. eigenvalues --  -20.60919 -20.60842 -20.59773 -20.59649 -15.85921
 Alpha  occ. eigenvalues --  -15.84767 -11.31400 -11.30429 -11.28004 -11.27944
 Alpha  occ. eigenvalues --  -11.27731 -11.27098 -11.27026 -11.26984 -11.26933
 Alpha  occ. eigenvalues --  -11.26919 -11.26188 -11.26140  -1.59946  -1.58787
 Alpha  occ. eigenvalues --   -1.39497  -1.38324  -1.19580  -1.18654  -1.08951
 Alpha  occ. eigenvalues --   -1.08008  -1.04995  -1.04099  -0.95762  -0.94781
 Alpha  occ. eigenvalues --   -0.86386  -0.85483  -0.82590  -0.81605  -0.77628
 Alpha  occ. eigenvalues --   -0.76582  -0.72108  -0.71323  -0.70970  -0.70678
 Alpha  occ. eigenvalues --   -0.70113  -0.69754  -0.65224  -0.64989  -0.64300
 Alpha  occ. eigenvalues --   -0.64113  -0.62336  -0.61413  -0.55483  -0.54626
 Alpha  occ. eigenvalues --   -0.53326  -0.53081  -0.52430  -0.52188  -0.48887
 Alpha  occ. eigenvalues --   -0.48850  -0.47790  -0.47708  -0.44882  -0.43644
 Alpha  occ. eigenvalues --   -0.37569  -0.36682  -0.36607  -0.35728
 Alpha virt. eigenvalues --    0.04866   0.05945   0.11043   0.11915   0.16333
 Alpha virt. eigenvalues --    0.17360   0.21189   0.22022   0.27101   0.27787
 Alpha virt. eigenvalues --    0.28162   0.28983   0.30775   0.31542   0.32350

 Mulliken charges:
               1
     1  C   -0.172009
     2  C   -0.221038
     3  C   -0.178874
     4  C    0.159136
     5  C   -0.171761
     6  C   -0.219487
     7  H    0.221225
     8  H    0.220092
     9  H    0.291596
    10  H    0.273923
    11  H    0.220030
    12  N    0.486760
    13  O   -0.467648
    14  O   -0.445097
    15  C   -0.171266
    16  C   -0.218894
    17  C   -0.173852
    18  C    0.158107
    19  C   -0.170717
    20  C   -0.218609
    21  H    0.225790
    22  H    0.222963
    23  H    0.274055
    24  H    0.278262
    25  H    0.224468
    26  N    0.485398
    27  O   -0.447542
    28  O   -0.465011
 Sum of Mulliken charges =  -0.00000

 Dipole moment (field-independent basis, Debye):
    X=             -4.6697    Y=              8.1633    Z=              0.6188  Tot=              9.4249
 Quadrupole moment (field-independent basis, Debye-Ang):
   XX=            -88.8667   YY=           -108.2438   ZZ=            -98.7170
   XY=              7.4513   XZ=             -2.9940   YZ=             -1.0224

 Normal termination of Gaussian 16 at Thu May  6 00:23:09 2021.
