 Gaussian 16, Revision A.03,
 Gaussian 16:  EM64L-G16RevA.03 25-Dec-2016

 -------------
 #p 6-31g* mp2
 -------------

 ------------------------------------------------------
 Input file generated by CHIRIPA (05-May-2021 14:51:13)
 ------------------------------------------------------
 Symbolic Z-matrix:
 Charge =  0 Multiplicity = 1

                         Standard orientation:
 ---------------------------------------------------------------------
 Center     Atomic      Atomic             Coordinates (Angstroms)
 Number     Number       Type             X           Y           Z
 ---------------------------------------------------------------------
      1          6           0        3.550111   -0.295264    0.313271
      2          6           0        4.744824   -0.166118   -0.632228
      3          6           0        5.870073    0.689488   -0.049521
      4          1           0        3.166504    0.707039    0.548177
      5          1           0        3.888805   -0.730933    1.263468
      6          1           0        4.403720    0.267898   -1.580856
      7          1           0        5.125512   -1.168854   -0.865062
      8          1           0        6.238192    0.256499    0.886219
      9          1           0        5.512299    1.701415    0.166358
     10          1           0        6.714019    0.768530   -0.741884
     11          6           0        2.417022   -1.147717   -0.255202
     12          6           0        1.222309   -1.276863    0.690297
     13          6           0        0.097060   -2.132468    0.107590
     14          1           0        2.078328   -0.712047   -1.205399
     15          1           0        2.800629   -2.150019   -0.490108
     16          1           0        0.841621   -0.274126    0.923131
     17          1           0        1.563413   -1.710878    1.638925
     18          1           0        0.454834   -3.144395   -0.108289
     19          1           0       -0.271059   -1.699479   -0.828150
     20          1           0       -0.746886   -2.211510    0.799954
     21          6           0       -2.413865    1.101905    0.308836
     22          6           0       -2.075789    2.424639   -0.379687
     23          6           0       -0.934117    3.174083    0.307854
     24          1           0       -2.680866    1.298783    1.356164
     25          1           0       -1.517057    0.467296    0.328884
     26          1           0       -2.973330    3.056014   -0.399664
     27          1           0       -1.809747    2.224609   -1.425549
     28          1           0       -0.023502    2.566357    0.314914
     29          1           0       -1.193697    3.402485    1.346628
     30          1           0       -0.708969    4.116705   -0.200704
     31          6           0       -3.553268    0.341075   -0.366905
     32          6           0       -3.891345   -0.981658    0.321618
     33          6           0       -5.033016   -1.731103   -0.365923
     34          1           0       -4.450076    0.975684   -0.386954
     35          1           0       -3.286268    0.144198   -1.414233
     36          1           0       -4.157386   -0.781630    1.367480
     37          1           0       -2.993802   -1.613033    0.341594
     38          1           0       -4.773436   -1.959504   -1.404697
     39          1           0       -5.943631   -1.123376   -0.372983
     40          1           0       -5.258164   -2.673726    0.142634
 ---------------------------------------------------------------------

 SCF Done:  E(RHF) =  -470.732522603     A.U. after   11 cycles
 E2 =    -0.1584405508D+01 EUMP2 =    -0.47231692811058D+03

 The electronic state is 1-A.
 Alpha  occ. eigenvalues --  -11.21680 -11.21631 -11.21604 -11.21500 -11.21461
 Alpha  occ. eigenvalues --  -11.21398 -11.21352 -11.21289 -11.21160 -11.21115
 Alpha  occ. eigenvalues --  -11.21088 -11.21015  -1.08502  -1.08385  -1.03595
 Alpha  occ. eigenvalues --   -1.03505  -0.96058  -0.95948  -0.87071  -0.86971
 Alpha  occ. eigenvalues --   -0.79705  -0.79527  -0.78309  -0.78208  -0.65300
 Alpha  occ. eigenvalues --   -0.64900  -0.61026  -0.60889  -0.59453  -0.59288
 Alpha  occ. eigenvalues --   -0.57663  -0.57562  -0.55453  -0.55134  -0.52824
 Alpha  occ. eigenvalues --   -0.52618  -0.52466  -0.52369  -0.49991  -0.49901
 Alpha  occ. eigenvalues --   -0.48072  -0.47817  -0.46796  -0.46506  -0.45933
 Alpha  occ. eigenvalues --   -0.45786  -0.45723  -0.45465  -0.43799  -0.43734
 Alpha virt. eigenvalues --    0.20006   0.22676   0.23855   0.24247   0.25829
 Alpha virt. eigenvalues --    0.26593   0.26884   0.27298   0.28544   0.29650
 Alpha virt. eigenvalues --    0.30257   0.31431   0.31715   0.32012   0.32287

 Mulliken charges:
               1
     1  C   -0.298646
     2  C   -0.299675
     3  C   -0.475788
     4  H    0.149804
     5  H    0.149841
     6  H    0.151989
     7  H    0.152010
     8  H    0.155244
     9  H    0.155457
    10  H    0.160350
    11  C   -0.298221
    12  C   -0.305764
    13  C   -0.482130
    14  H    0.149226
    15  H    0.150013
    16  H    0.156459
    17  H    0.152877
    18  H    0.156624
    19  H    0.154885
    20  H    0.165809
    21  C   -0.309157
    22  C   -0.299108
    23  C   -0.477235
    24  H    0.149043
    25  H    0.162061
    26  H    0.152138
    27  H    0.151260
    28  H    0.154995
    29  H    0.155589
    30  H    0.160429
    31  C   -0.296880
    32  C   -0.307683
    33  C   -0.475093
    34  H    0.149294
    35  H    0.148758
    36  H    0.150947
    37  H    0.160558
    38  H    0.155019
    39  H    0.154802
    40  H    0.159897
 Sum of Mulliken charges =  -0.00000

 Dipole moment (field-independent basis, Debye):
    X=              0.0484    Y=             -0.0352    Z=              0.0167  Tot=              0.0621
 Quadrupole moment (field-independent basis, Debye-Ang):
   XX=            -85.7811   YY=            -84.6117   ZZ=            -84.4913
   XY=             -1.7486   XZ=             -0.7893   YZ=             -0.5057

 Normal termination of Gaussian 16 at Thu May  6 00:47:48 2021.
