 Gaussian 16, Revision A.03,
 Gaussian 16:  EM64L-G16RevA.03 25-Dec-2016

 -------------
 #p 6-31g* mp2
 -------------

 ------------------------------------------------------
 Input file generated by CHIRIPA (05-May-2021 14:55:20)
 ------------------------------------------------------
 Symbolic Z-matrix:
 Charge =  0 Multiplicity = 1

                         Standard orientation:
 ---------------------------------------------------------------------
 Center     Atomic      Atomic             Coordinates (Angstroms)
 Number     Number       Type             X           Y           Z
 ---------------------------------------------------------------------
      1          6           0        2.641461    2.456804    0.129494
      2          6           0        1.854415    1.339490    0.427302
      3          6           0        2.387485    0.050394    0.334486
      4          6           0        3.717318   -0.085347   -0.060999
      5          6           0        4.526914    1.008184   -0.364370
      6          6           0        3.972851    2.287882   -0.264697
      7          1           0        2.219206    3.454555    0.204259
      8          1           0        0.820131    1.467666    0.733689
      9          1           0        1.800629   -0.831954    0.559164
     10          1           0        5.554688    0.848682   -0.667118
     11          1           0        4.586435    3.153783   -0.496594
     12          7           0        4.292768   -1.445081   -0.162889
     13          8           0        5.467097   -1.537881   -0.513569
     14          8           0        3.558579   -2.392295    0.109858
     15          6           0       -4.059510   -0.218290    0.555129
     16          6           0       -2.693819   -0.388701   -0.111078
     17          6           0       -1.549031   -0.468515    0.899309
     18          1           0       -4.048705    0.690907    1.171724
     19          1           0       -4.232571   -1.059096    1.241053
     20          1           0       -2.523983    0.451455   -0.796579
     21          1           0       -2.707938   -1.297495   -0.726311
     22          1           0       -1.691317   -1.316935    1.576465
     23          1           0       -1.506316    0.441951    1.505797
     24          1           0       -0.581956   -0.590232    0.401504
     25          6           0       -5.214031   -0.136918   -0.441960
     26          6           0       -6.579722    0.033493    0.224247
     27          6           0       -7.724510    0.113307   -0.786141
     28          1           0       -5.040971    0.703887   -1.127884
     29          1           0       -5.224836   -1.046114   -1.058555
     30          1           0       -6.565603    0.942287    0.839479
     31          1           0       -6.749558   -0.806663    0.909747
     32          1           0       -7.767225   -0.797159   -1.392629
     33          1           0       -7.582225    0.961727   -1.463297
     34          1           0       -8.691585    0.235024   -0.288336
 ---------------------------------------------------------------------

 SCF Done:  E(RHF) =  -669.534877980     A.U. after   15 cycles
 E2 =    -0.2091820309D+01 EUMP2 =    -0.67162669828918D+03

 The electronic state is 1-A.
 Alpha  occ. eigenvalues --  -20.60715 -20.60710 -15.85766 -11.31117 -11.27686
 Alpha  occ. eigenvalues --  -11.27650 -11.27414 -11.26707 -11.26621 -11.22300
 Alpha  occ. eigenvalues --  -11.22087 -11.21943 -11.21925 -11.21783 -11.21345
 Alpha  occ. eigenvalues --   -1.59790  -1.39343  -1.19284  -1.08947  -1.08682
 Alpha  occ. eigenvalues --   -1.04695  -1.04089  -0.96575  -0.95522  -0.87607
 Alpha  occ. eigenvalues --   -0.86082  -0.82359  -0.80164  -0.78720  -0.77403
 Alpha  occ. eigenvalues --   -0.71986  -0.71112  -0.70411  -0.65584  -0.64944
 Alpha  occ. eigenvalues --   -0.64691  -0.62195  -0.61459  -0.59877  -0.58142
 Alpha  occ. eigenvalues --   -0.55865  -0.55193  -0.53276  -0.53065  -0.52934
 Alpha  occ. eigenvalues --   -0.52753  -0.50478  -0.48743  -0.48740  -0.48466
 Alpha  occ. eigenvalues --   -0.47165  -0.46273  -0.46173  -0.44752  -0.44336
 Alpha  occ. eigenvalues --   -0.37268  -0.36280
 Alpha virt. eigenvalues --    0.05106   0.11360   0.16566   0.20373   0.22614
 Alpha virt. eigenvalues --    0.23882   0.25918   0.26165   0.26715   0.27424
 Alpha virt. eigenvalues --    0.28958   0.30151   0.31316   0.31490   0.31980

 Mulliken charges:
               1
     1  C   -0.171931
     2  C   -0.221922
     3  C   -0.179038
     4  C    0.160072
     5  C   -0.171329
     6  C   -0.218406
     7  H    0.225291
     8  H    0.231015
     9  H    0.279012
    10  H    0.275282
    11  H    0.223074
    12  N    0.488587
    13  O   -0.460674
    14  O   -0.460779
    15  C   -0.299462
    16  C   -0.299143
    17  C   -0.486036
    18  H    0.148652
    19  H    0.152077
    20  H    0.151230
    21  H    0.157798
    22  H    0.163958
    23  H    0.150756
    24  H    0.158214
    25  C   -0.298747
    26  C   -0.300019
    27  C   -0.475997
    28  H    0.149357
    29  H    0.151721
    30  H    0.151607
    31  H    0.153092
    32  H    0.156267
    33  H    0.155159
    34  H    0.161262
 Sum of Mulliken charges =  -0.00000

 Dipole moment (field-independent basis, Debye):
    X=             -2.2505    Y=              4.7289    Z=              0.3504  Tot=              5.2488
 Quadrupole moment (field-independent basis, Debye-Ang):
   XX=           -106.3896   YY=            -94.2437   ZZ=            -95.5952
   XY=             20.4990   XZ=             -0.5168   YZ=             -1.0120

 Normal termination of Gaussian 16 at Wed May  5 18:54:28 2021.
