 Gaussian 16, Revision A.03,
 Gaussian 16:  EM64L-G16RevA.03 25-Dec-2016

 -------------
 #p 6-31g* mp2
 -------------

 ------------------------------------------------------
 Input file generated by CHIRIPA (05-May-2021 14:55:23)
 ------------------------------------------------------
 Symbolic Z-matrix:
 Charge =  0 Multiplicity = 1

                         Standard orientation:
 ---------------------------------------------------------------------
 Center     Atomic      Atomic             Coordinates (Angstroms)
 Number     Number       Type             X           Y           Z
 ---------------------------------------------------------------------
      1          6           0       -3.126024    1.861072    0.874787
      2          6           0       -3.508026    0.704293    1.562144
      3          6           0       -3.165523   -0.559097    1.071141
      4          6           0       -2.437213   -0.629170   -0.115427
      5          6           0       -2.041981    0.504929   -0.823171
      6          6           0       -2.395508    1.757879   -0.313581
      7          1           0       -3.396370    2.838449    1.263429
      8          1           0       -4.075399    0.781406    2.485284
      9          1           0       -3.448345   -1.470897    1.583052
     10          1           0       -1.476864    0.396152   -1.740900
     11          1           0       -2.097486    2.654544   -0.849511
     12          7           0       -2.068785   -1.961139   -0.645068
     13          8           0       -1.426748   -1.995935   -1.692548
     14          8           0       -2.429024   -2.945120   -0.002692
     15          6           0        3.390753   -0.099841    0.431512
     16          6           0        4.798188   -0.606529    0.114684
     17          6           0        5.170553   -1.855787    0.913741
     18          1           0        3.318855    0.115722    1.506365
     19          1           0        2.665553   -0.898787    0.223753
     20          1           0        5.520388    0.193597    0.321666
     21          1           0        4.866804   -0.820729   -0.959573
     22          1           0        4.472777   -2.671917    0.700102
     23          1           0        5.130076   -1.651828    1.988620
     24          1           0        6.180595   -2.200893    0.671711
     25          6           0        3.003958    1.148535   -0.359485
     26          6           0        1.596524    1.655222   -0.042657
     27          6           0        1.224159    2.904480   -0.841714
     28          1           0        3.729159    1.947480   -0.151726
     29          1           0        3.075858    0.932972   -1.434338
     30          1           0        1.527908    1.869422    1.031599
     31          1           0        0.874323    0.855096   -0.249639
     32          1           0        1.264635    2.700521   -1.916593
     33          1           0        1.921935    3.720610   -0.628075
     34          1           0        0.214117    3.249586   -0.599685
 ---------------------------------------------------------------------

 SCF Done:  E(RHF) =  -669.534793775     A.U. after   15 cycles
 E2 =    -0.2093043171D+01 EUMP2 =    -0.67162783694674D+03

 The electronic state is 1-A.
 Alpha  occ. eigenvalues --  -20.60826 -20.60818 -15.85878 -11.31235 -11.27798
 Alpha  occ. eigenvalues --  -11.27793 -11.27533 -11.26807 -11.26782 -11.21800
 Alpha  occ. eigenvalues --  -11.21612 -11.21446 -11.21429 -11.21255 -11.20852
 Alpha  occ. eigenvalues --   -1.59900  -1.39454  -1.19409  -1.08802  -1.08448
 Alpha  occ. eigenvalues --   -1.04817  -1.03601  -0.96078  -0.95638  -0.87106
 Alpha  occ. eigenvalues --   -0.86204  -0.82470  -0.79673  -0.78224  -0.77523
 Alpha  occ. eigenvalues --   -0.72095  -0.71224  -0.70515  -0.65107  -0.65036
 Alpha  occ. eigenvalues --   -0.64836  -0.62225  -0.60987  -0.59476  -0.57679
 Alpha  occ. eigenvalues --   -0.55378  -0.55283  -0.53188  -0.53062  -0.52662
 Alpha  occ. eigenvalues --   -0.52382  -0.50000  -0.48853  -0.48850  -0.47979
 Alpha  occ. eigenvalues --   -0.46690  -0.45777  -0.45668  -0.44855  -0.43845
 Alpha  occ. eigenvalues --   -0.37375  -0.36344
 Alpha virt. eigenvalues --    0.04997   0.11109   0.16427   0.20488   0.23015
 Alpha virt. eigenvalues --    0.24222   0.26478   0.26541   0.27474   0.28016
 Alpha virt. eigenvalues --    0.29272   0.29590   0.31363   0.31864   0.32113

 Mulliken charges:
               1
     1  C   -0.171918
     2  C   -0.218210
     3  C   -0.170737
     4  C    0.158367
     5  C   -0.171332
     6  C   -0.216057
     7  H    0.225825
     8  H    0.223616
     9  H    0.275731
    10  H    0.276171
    11  H    0.225886
    12  N    0.488288
    13  O   -0.461291
    14  O   -0.460001
    15  C   -0.299798
    16  C   -0.299763
    17  C   -0.476347
    18  H    0.148199
    19  H    0.155495
    20  H    0.150270
    21  H    0.153506
    22  H    0.158871
    23  H    0.153998
    24  H    0.159980
    25  C   -0.298254
    26  C   -0.301865
    27  C   -0.479335
    28  H    0.148369
    29  H    0.151366
    30  H    0.151734
    31  H    0.156028
    32  H    0.154860
    33  H    0.158180
    34  H    0.150169
 Sum of Mulliken charges =  -0.00000

 Dipole moment (field-independent basis, Debye):
    X=             -1.3006    Y=              4.5947    Z=              1.8881  Tot=              5.1350
 Quadrupole moment (field-independent basis, Debye-Ang):
   XX=            -87.8811   YY=           -100.9618   ZZ=            -92.2398
   XY=             -9.2062   XZ=             -6.5887   YZ=             -2.6671

 Normal termination of Gaussian 16 at Wed May  5 16:02:57 2021.
