 Gaussian 16, Revision A.03,
 Gaussian 16:  EM64L-G16RevA.03 25-Dec-2016

 -------------
 #p 6-31g* mp2
 -------------

 ------------------------------------------------------
 Input file generated by CHIRIPA (05-May-2021 14:51:12)
 ------------------------------------------------------
 Symbolic Z-matrix:
 Charge =  0 Multiplicity = 1

                         Standard orientation:
 ---------------------------------------------------------------------
 Center     Atomic      Atomic             Coordinates (Angstroms)
 Number     Number       Type             X           Y           Z
 ---------------------------------------------------------------------
      1          6           0       -3.014973    0.870900   -0.084297
      2          6           0       -4.271060    1.688726    0.218014
      3          6           0       -3.965241    3.160670    0.496670
      4          1           0       -2.321557    0.948539    0.764286
      5          1           0       -2.499813    1.309602   -0.950060
      6          1           0       -4.784437    1.247790    1.082094
      7          1           0       -4.961648    1.608976   -0.631306
      8          1           0       -3.473727    3.622025   -0.365980
      9          1           0       -3.295510    3.258787    1.357155
     10          1           0       -4.877264    3.726732    0.710324
     11          6           0       -3.304435   -0.602586   -0.364970
     12          6           0       -2.048348   -1.420412   -0.667281
     13          6           0       -2.354167   -2.892356   -0.945938
     14          1           0       -3.819595   -1.041288    0.500793
     15          1           0       -3.997851   -0.680225   -1.213553
     16          1           0       -1.357760   -1.340661    0.182039
     17          1           0       -1.534971   -0.979476   -1.531361
     18          1           0       -3.023898   -2.990473   -1.806422
     19          1           0       -2.845681   -3.353711   -0.083287
     20          1           0       -1.442144   -3.458418   -1.159591
     21          6           0        3.470249    0.560724    0.288940
     22          6           0        4.556273    0.838146   -0.751048
     23          6           0        5.167995    2.232260   -0.609502
     24          1           0        2.681393    1.319854    0.197442
     25          1           0        3.897975    0.674076    1.294721
     26          1           0        4.126974    0.722950   -1.754566
     27          1           0        5.342542    0.078155   -0.657191
     28          1           0        5.622093    2.355140    0.379082
     29          1           0        4.399618    3.003600   -0.724528
     30          1           0        5.941992    2.409423   -1.362764
     31          6           0        2.849159   -0.829038    0.160328
     32          6           0        1.763135   -1.106461    1.200315
     33          6           0        1.151412   -2.500575    1.058769
     34          1           0        2.421433   -0.942390   -0.845454
     35          1           0        3.638015   -1.588168    0.251825
     36          1           0        0.976866   -0.346468    1.106458
     37          1           0        2.192434   -0.991265    2.203833
     38          1           0        1.919790   -3.271914    1.173795
     39          1           0        0.697315   -2.623455    0.070185
     40          1           0        0.377416   -2.677737    1.812031
 ---------------------------------------------------------------------

 SCF Done:  E(RHF) =  -470.732444461     A.U. after   11 cycles
 E2 =    -0.1583775428D+01 EUMP2 =    -0.47231621988874D+03

 The electronic state is 1-A.
 Alpha  occ. eigenvalues --  -11.21614 -11.21603 -11.21597 -11.21533 -11.21413
 Alpha  occ. eigenvalues --  -11.21398 -11.21346 -11.21339 -11.21084 -11.21066
 Alpha  occ. eigenvalues --  -11.21053 -11.21031  -1.08459  -1.08399  -1.03606
 Alpha  occ. eigenvalues --   -1.03456  -0.96053  -0.95910  -0.87010  -0.86982
 Alpha  occ. eigenvalues --   -0.79627  -0.79564  -0.78255  -0.78238  -0.65189
 Alpha  occ. eigenvalues --   -0.64958  -0.61213  -0.60733  -0.59376  -0.59297
 Alpha  occ. eigenvalues --   -0.57681  -0.57542  -0.55379  -0.55097  -0.52723
 Alpha  occ. eigenvalues --   -0.52638  -0.52487  -0.52296  -0.49963  -0.49850
 Alpha  occ. eigenvalues --   -0.47915  -0.47892  -0.46651  -0.46559  -0.45879
 Alpha  occ. eigenvalues --   -0.45740  -0.45714  -0.45600  -0.43789  -0.43776
 Alpha virt. eigenvalues --    0.21137   0.23183   0.23465   0.24536   0.25884
 Alpha virt. eigenvalues --    0.26312   0.26773   0.27588   0.28465   0.29121
 Alpha virt. eigenvalues --    0.29946   0.31388   0.31652   0.31871   0.32352

 Mulliken charges:
               1
     1  C   -0.298627
     2  C   -0.299598
     3  C   -0.475746
     4  H    0.149290
     5  H    0.149159
     6  H    0.152029
     7  H    0.152091
     8  H    0.155064
     9  H    0.155197
    10  H    0.160347
    11  C   -0.297590
    12  C   -0.308721
    13  C   -0.476978
    14  H    0.149378
    15  H    0.149411
    16  H    0.163985
    17  H    0.150134
    18  H    0.155135
    19  H    0.155327
    20  H    0.161262
    21  C   -0.298455
    22  C   -0.299654
    23  C   -0.475717
    24  H    0.149980
    25  H    0.149430
    26  H    0.151898
    27  H    0.151897
    28  H    0.155163
    29  H    0.155240
    30  H    0.160215
    31  C   -0.298117
    32  C   -0.302408
    33  C   -0.482181
    34  H    0.149807
    35  H    0.149640
    36  H    0.153512
    37  H    0.151910
    38  H    0.155914
    39  H    0.162161
    40  H    0.159215
 Sum of Mulliken charges =  -0.00000

 Dipole moment (field-independent basis, Debye):
    X=              0.0043    Y=             -0.0125    Z=              0.0052  Tot=              0.0142
 Quadrupole moment (field-independent basis, Debye-Ang):
   XX=            -84.6504   YY=            -86.7429   ZZ=            -83.4745
   XY=             -0.8632   XZ=              0.4998   YZ=             -0.6686

 Normal termination of Gaussian 16 at Wed May  5 19:56:33 2021.
