 Gaussian 16, Revision A.03,
 Gaussian 16:  EM64L-G16RevA.03 25-Dec-2016

 -------------
 #p 6-31g* mp2
 -------------

 ------------------------------------------------------
 Input file generated by CHIRIPA (05-May-2021 14:55:20)
 ------------------------------------------------------
 Symbolic Z-matrix:
 Charge =  0 Multiplicity = 1

                         Standard orientation:
 ---------------------------------------------------------------------
 Center     Atomic      Atomic             Coordinates (Angstroms)
 Number     Number       Type             X           Y           Z
 ---------------------------------------------------------------------
      1          6           0        4.661610   -1.798077    0.029157
      2          6           0        4.788466   -0.748912   -0.887184
      3          6           0        3.954096    0.369884   -0.805527
      4          6           0        2.999442    0.406670    0.209644
      5          6           0        2.848539   -0.622664    1.137540
      6          6           0        3.693758   -1.731722    1.036818
      7          1           0        5.313983   -2.663403   -0.041681
      8          1           0        5.539221   -0.797732   -1.670784
      9          1           0        4.030675    1.196209   -1.501761
     10          1           0        2.090754   -0.545417    1.907742
     11          1           0        3.592973   -2.545040    1.749840
     12          7           0        2.110389    1.585934    0.306182
     13          8           0        1.277270    1.594213    1.209776
     14          8           0        2.263502    2.479634   -0.523573
     15          6           0       -3.295340   -0.130908   -0.079157
     16          6           0       -2.321018   -0.614844   -1.153627
     17          6           0       -0.861458   -0.325905   -0.801498
     18          1           0       -3.159588    0.948985    0.070337
     19          1           0       -3.045427   -0.612579    0.876317
     20          1           0       -2.573559   -0.133458   -2.107097
     21          1           0       -2.459238   -1.693675   -1.300716
     22          1           0       -0.586454   -0.819392    0.136289
     23          1           0       -0.701424    0.749690   -0.674674
     24          1           0       -0.182194   -0.680124   -1.583155
     25          6           0       -4.758339   -0.412613   -0.416801
     26          6           0       -5.732661    0.071324    0.657670
     27          6           0       -7.192220   -0.217615    0.305540
     28          1           0       -5.008252    0.069059   -1.372274
     29          1           0       -4.894091   -1.492506   -0.566295
     30          1           0       -5.594441    1.150155    0.804758
     31          1           0       -5.480120   -0.410063    1.611139
     32          1           0       -7.352255   -1.293211    0.178716
     33          1           0       -7.467225    0.275872   -0.632247
     34          1           0       -7.871484    0.136604    1.087198
 ---------------------------------------------------------------------

 SCF Done:  E(RHF) =  -669.535779522     A.U. after   15 cycles
 E2 =    -0.2092037941D+01 EUMP2 =    -0.67162781746333D+03

 The electronic state is 1-A.
 Alpha  occ. eigenvalues --  -20.60805 -20.60794 -15.85825 -11.31184 -11.27753
 Alpha  occ. eigenvalues --  -11.27749 -11.27499 -11.26771 -11.26761 -11.21189
 Alpha  occ. eigenvalues --  -11.21057 -11.20930 -11.20780 -11.20738 -11.20354
 Alpha  occ. eigenvalues --   -1.59863  -1.39418  -1.19354  -1.08754  -1.07925
 Alpha  occ. eigenvalues --   -1.04759  -1.03032  -0.95598  -0.95475  -0.86506
 Alpha  occ. eigenvalues --   -0.86156  -0.82430  -0.79117  -0.77732  -0.77472
 Alpha  occ. eigenvalues --   -0.72061  -0.71173  -0.70469  -0.65013  -0.64768
 Alpha  occ. eigenvalues --   -0.64556  -0.62110  -0.60428  -0.58862  -0.57083
 Alpha  occ. eigenvalues --   -0.55266  -0.54759  -0.53090  -0.52855  -0.52194
 Alpha  occ. eigenvalues --   -0.51893  -0.49427  -0.48822  -0.48798  -0.47440
 Alpha  occ. eigenvalues --   -0.46130  -0.45343  -0.45194  -0.44662  -0.43302
 Alpha  occ. eigenvalues --   -0.37323  -0.36355
 Alpha virt. eigenvalues --    0.05029   0.11255   0.16522   0.21345   0.23359
 Alpha virt. eigenvalues --    0.24752   0.26864   0.27338   0.27773   0.28119
 Alpha virt. eigenvalues --    0.28799   0.30828   0.31546   0.32214   0.32324

 Mulliken charges:
               1
     1  C   -0.170682
     2  C   -0.218653
     3  C   -0.171324
     4  C    0.160670
     5  C   -0.170117
     6  C   -0.218831
     7  H    0.225528
     8  H    0.223369
     9  H    0.275535
    10  H    0.275542
    11  H    0.223315
    12  N    0.488916
    13  O   -0.458758
    14  O   -0.460624
    15  C   -0.298025
    16  C   -0.299782
    17  C   -0.482982
    18  H    0.156080
    19  H    0.148039
    20  H    0.151456
    21  H    0.147098
    22  H    0.150711
    23  H    0.174385
    24  H    0.152958
    25  C   -0.298099
    26  C   -0.299414
    27  C   -0.475437
    28  H    0.149101
    29  H    0.147083
    30  H    0.153720
    31  H    0.151073
    32  H    0.153755
    33  H    0.154930
    34  H    0.159463
 Sum of Mulliken charges =  -0.00000

 Dipole moment (field-independent basis, Debye):
    X=              3.2358    Y=             -4.0147    Z=             -0.2876  Tot=              5.1644
 Quadrupole moment (field-independent basis, Debye-Ang):
   XX=            -77.1681   YY=            -97.1665   ZZ=            -91.9856
   XY=            -10.9095   XZ=             -2.6660   YZ=             -3.4684

 Normal termination of Gaussian 16 at Wed May  5 15:53:18 2021.
