 Gaussian 16, Revision A.03,
 Gaussian 16:  EM64L-G16RevA.03 25-Dec-2016

 -------------
 #p 6-31g* mp2
 -------------

 ------------------------------------------------------
 Input file generated by CHIRIPA (05-May-2021 14:55:21)
 ------------------------------------------------------
 Symbolic Z-matrix:
 Charge =  0 Multiplicity = 1

                         Standard orientation:
 ---------------------------------------------------------------------
 Center     Atomic      Atomic             Coordinates (Angstroms)
 Number     Number       Type             X           Y           Z
 ---------------------------------------------------------------------
      1          6           0       -2.057120    2.477021    0.237661
      2          6           0       -2.540999    1.933498   -0.956896
      3          6           0       -3.040143    0.628063   -0.992116
      4          6           0       -3.040444   -0.108941    0.191148
      5          6           0       -2.565253    0.404513    1.396904
      6          6           0       -2.070768    1.712142    1.408684
      7          1           0       -1.671182    3.491967    0.255916
      8          1           0       -2.531629    2.525195   -1.867858
      9          1           0       -3.420842    0.182517   -1.903146
     10          1           0       -2.587551   -0.209746    2.288872
     11          1           0       -1.695620    2.131653    2.337834
     12          7           0       -3.566400   -1.492108    0.166270
     13          8           0       -3.555725   -2.120787    1.222341
     14          8           0       -3.979360   -1.921365   -0.908830
     15          6           0        3.190007   -0.407625   -0.661274
     16          6           0        1.915701    0.414905   -0.467433
     17          6           0        0.742598   -0.108120   -1.296932
     18          1           0        3.461905   -0.405373   -1.725705
     19          1           0        2.987325   -1.453645   -0.392653
     20          1           0        2.121101    1.459329   -0.735020
     21          1           0        1.646912    0.410854    0.596687
     22          1           0        0.509312   -1.142596   -1.024835
     23          1           0        0.986195   -0.088164   -2.364108
     24          1           0       -0.158024    0.494463   -1.143199
     25          6           0        4.371620    0.102929    0.161438
     26          6           0        5.645926   -0.719600   -0.032403
     27          6           0        6.819029   -0.196576    0.797096
     28          1           0        4.574302    1.148950   -0.107184
     29          1           0        4.099722    0.100678    1.225868
     30          1           0        5.914715   -0.715550   -1.096524
     31          1           0        5.440526   -1.764025    0.235184
     32          1           0        6.575433   -0.216532    1.864271
     33          1           0        7.052315    0.837900    0.524998
     34          1           0        7.719651   -0.799159    0.643362
 ---------------------------------------------------------------------

 SCF Done:  E(RHF) =  -669.534609156     A.U. after   15 cycles
 E2 =    -0.2093306986D+01 EUMP2 =    -0.67162791614215D+03

 The electronic state is 1-A.
 Alpha  occ. eigenvalues --  -20.60811 -20.60806 -15.85866 -11.31263 -11.27857
 Alpha  occ. eigenvalues --  -11.27818 -11.27593 -11.26879 -11.26833 -11.21725
 Alpha  occ. eigenvalues --  -11.21692 -11.21514 -11.21434 -11.21176 -11.20916
 Alpha  occ. eigenvalues --   -1.59885  -1.39438  -1.19465  -1.08842  -1.08523
 Alpha  occ. eigenvalues --   -1.04870  -1.03601  -0.96040  -0.95665  -0.87061
 Alpha  occ. eigenvalues --   -0.86251  -0.82495  -0.79679  -0.78346  -0.77535
 Alpha  occ. eigenvalues --   -0.72084  -0.71208  -0.70551  -0.65158  -0.65102
 Alpha  occ. eigenvalues --   -0.64854  -0.62201  -0.61006  -0.59512  -0.57734
 Alpha  occ. eigenvalues --   -0.55354  -0.55332  -0.53763  -0.52943  -0.52540
 Alpha  occ. eigenvalues --   -0.51962  -0.49982  -0.48846  -0.48836  -0.47970
 Alpha  occ. eigenvalues --   -0.46721  -0.45884  -0.45817  -0.44837  -0.43849
 Alpha  occ. eigenvalues --   -0.37433  -0.36402
 Alpha virt. eigenvalues --    0.04994   0.11150   0.16467   0.21336   0.22769
 Alpha virt. eigenvalues --    0.24280   0.26519   0.27185   0.27410   0.28001
 Alpha virt. eigenvalues --    0.28269   0.30914   0.31302   0.31793   0.32452

 Mulliken charges:
               1
     1  C   -0.169639
     2  C   -0.222630
     3  C   -0.171499
     4  C    0.163044
     5  C   -0.171145
     6  C   -0.217138
     7  H    0.226536
     8  H    0.224550
     9  H    0.276466
    10  H    0.276034
    11  H    0.224209
    12  N    0.487980
    13  O   -0.460495
    14  O   -0.459911
    15  C   -0.298450
    16  C   -0.297230
    17  C   -0.486549
    18  H    0.149675
    19  H    0.151890
    20  H    0.146534
    21  H    0.149277
    22  H    0.157240
    23  H    0.151918
    24  H    0.170851
    25  C   -0.297930
    26  C   -0.299754
    27  C   -0.475679
    28  H    0.147712
    29  H    0.148584
    30  H    0.152156
    31  H    0.153215
    32  H    0.154915
    33  H    0.154382
    34  H    0.160882
 Sum of Mulliken charges =  -0.00000

 Dipole moment (field-independent basis, Debye):
    X=              1.7209    Y=              4.8729    Z=              0.1109  Tot=              5.1691
 Quadrupole moment (field-independent basis, Debye-Ang):
   XX=           -107.5034   YY=            -96.0550   ZZ=            -89.6926
   XY=            -15.4980   XZ=              0.5371   YZ=             -0.1950

 Normal termination of Gaussian 16 at Thu May  6 07:46:13 2021.
