 Gaussian 16, Revision A.03,
 Gaussian 16:  EM64L-G16RevA.03 25-Dec-2016

 -------------
 #p 6-31g* mp2
 -------------

 ------------------------------------------------------
 Input file generated by CHIRIPA (05-May-2021 14:55:20)
 ------------------------------------------------------
 Symbolic Z-matrix:
 Charge =  0 Multiplicity = 1

                         Standard orientation:
 ---------------------------------------------------------------------
 Center     Atomic      Atomic             Coordinates (Angstroms)
 Number     Number       Type             X           Y           Z
 ---------------------------------------------------------------------
      1          6           0       -4.825413    1.274903    0.330450
      2          6           0       -4.808028    0.312019   -0.683982
      3          6           0       -3.684992   -0.498608   -0.874303
      4          6           0       -2.591896   -0.318556   -0.028127
      5          6           0       -2.578832    0.632022    0.991441
      6          6           0       -3.712722    1.431555    1.163456
      7          1           0       -5.702030    1.900309    0.471186
      8          1           0       -5.670725    0.188144   -1.332407
      9          1           0       -3.644721   -1.251775   -1.651822
     10          1           0       -1.703740    0.732142    1.622004
     11          1           0       -3.723413    2.178533    1.952097
     12          7           0       -1.397243   -1.170858   -0.219921
     13          8           0       -0.446984   -0.992507    0.538916
     14          8           0       -1.433754   -2.001106   -1.125456
     15          6           0        3.916304   -0.444751    0.099157
     16          6           0        2.941174   -1.602273    0.316522
     17          6           0        3.649747   -2.941438    0.522330
     18          1           0        4.548095   -0.664652   -0.772296
     19          1           0        4.590271   -0.374898    0.964191
     20          1           0        2.268352   -1.669050   -0.548041
     21          1           0        2.311503   -1.379504    1.187443
     22          1           0        4.307656   -2.898845    1.396368
     23          1           0        4.264260   -3.190037   -0.348976
     24          1           0        2.933899   -3.754981    0.675859
     25          6           0        3.222997    0.900653   -0.108073
     26          6           0        4.198127    2.058175   -0.325438
     27          6           0        3.489555    3.397340   -0.531245
     28          1           0        2.549031    0.830800   -0.973106
     29          1           0        2.591207    1.120555    0.763380
     30          1           0        4.827799    1.835405   -1.196359
     31          1           0        4.870949    2.124952    0.539125
     32          1           0        2.875041    3.645939    0.340060
     33          1           0        2.831645    3.354746   -1.405284
     34          1           0        4.205402    4.210882   -0.684775
 ---------------------------------------------------------------------

 SCF Done:  E(RHF) =  -669.535579389     A.U. after   15 cycles
 E2 =    -0.2091624459D+01 EUMP2 =    -0.67162720384776D+03

 The electronic state is 1-A.
 Alpha  occ. eigenvalues --  -20.60936 -20.60929 -15.85966 -11.31294 -11.27859
 Alpha  occ. eigenvalues --  -11.27855 -11.27595 -11.26866 -11.26856 -11.20876
 Alpha  occ. eigenvalues --  -11.20579 -11.20352 -11.20123 -11.19711 -11.19625
 Alpha  occ. eigenvalues --   -1.59998  -1.39554  -1.19463  -1.08867  -1.07286
 Alpha  occ. eigenvalues --   -1.04860  -1.02376  -0.95709  -0.94913  -0.86261
 Alpha  occ. eigenvalues --   -0.85942  -0.82548  -0.78476  -0.77603  -0.76959
 Alpha  occ. eigenvalues --   -0.72175  -0.71311  -0.70572  -0.65119  -0.64863
 Alpha  occ. eigenvalues --   -0.63937  -0.62208  -0.59784  -0.58315  -0.56460
 Alpha  occ. eigenvalues --   -0.55363  -0.54238  -0.53191  -0.52953  -0.51636
 Alpha  occ. eigenvalues --   -0.51321  -0.49020  -0.48947  -0.48905  -0.46713
 Alpha  occ. eigenvalues --   -0.45526  -0.45031  -0.44418  -0.44361  -0.42637
 Alpha  occ. eigenvalues --   -0.37441  -0.36461
 Alpha virt. eigenvalues --    0.04928   0.11194   0.16423   0.21307   0.23845
 Alpha virt. eigenvalues --    0.25405   0.27191   0.27620   0.28092   0.28780
 Alpha virt. eigenvalues --    0.29061   0.30953   0.32360   0.32456   0.32814

 Mulliken charges:
               1
     1  C   -0.170601
     2  C   -0.218578
     3  C   -0.170607
     4  C    0.157706
     5  C   -0.170565
     6  C   -0.218483
     7  H    0.226008
     8  H    0.223794
     9  H    0.275783
    10  H    0.275407
    11  H    0.223833
    12  N    0.491406
    13  O   -0.461010
    14  O   -0.460073
    15  C   -0.299570
    16  C   -0.296147
    17  C   -0.476410
    18  H    0.144664
    19  H    0.143301
    20  H    0.164448
    21  H    0.162145
    22  H    0.147572
    23  H    0.149257
    24  H    0.162238
    25  C   -0.294886
    26  C   -0.298765
    27  C   -0.474424
    28  H    0.150430
    29  H    0.148807
    30  H    0.150560
    31  H    0.149636
    32  H    0.151779
    33  H    0.153850
    34  H    0.157493
 Sum of Mulliken charges =  -0.00000

 Dipole moment (field-independent basis, Debye):
    X=             -4.5791    Y=              2.9080    Z=              0.6750  Tot=              5.4662
 Quadrupole moment (field-independent basis, Debye-Ang):
   XX=            -74.1022   YY=            -97.8981   ZZ=            -91.3031
   XY=             -5.1194   XZ=              0.2424   YZ=              2.2723

 Normal termination of Gaussian 16 at Thu May  6 14:06:35 2021.
