 Gaussian 16, Revision A.03,
 Gaussian 16:  EM64L-G16RevA.03 25-Dec-2016

 -------------
 #p 6-31g* mp2
 -------------

 ------------------------------------------------------
 Input file generated by CHIRIPA (05-May-2021 14:51:11)
 ------------------------------------------------------
 Symbolic Z-matrix:
 Charge =  0 Multiplicity = 1

                         Standard orientation:
 ---------------------------------------------------------------------
 Center     Atomic      Atomic             Coordinates (Angstroms)
 Number     Number       Type             X           Y           Z
 ---------------------------------------------------------------------
      1          6           0        3.028807    0.609657    0.413375
      2          6           0        1.973553    0.470846    1.511170
      3          6           0        1.134464    1.736722    1.688038
      4          1           0        3.686484    1.457018    0.650832
      5          1           0        2.531229    0.856303   -0.534769
      6          1           0        2.472853    0.223173    2.456672
      7          1           0        1.318429   -0.376402    1.271170
      8          1           0        0.610341    1.984376    0.759295
      9          1           0        1.771324    2.587357    1.951533
     10          1           0        0.386460    1.615476    2.477753
     11          6           0        3.875665   -0.647696    0.224633
     12          6           0        4.930919   -0.508885   -0.873163
     13          6           0        5.770008   -1.774761   -1.050030
     14          1           0        4.373243   -0.894342    1.172776
     15          1           0        3.217988   -1.495057   -0.012825
     16          1           0        5.586043    0.338363   -0.633162
     17          1           0        4.431619   -0.261212   -1.818664
     18          1           0        5.133148   -2.625396   -1.313525
     19          1           0        6.294131   -2.022414   -0.121287
     20          1           0        6.518012   -1.653514   -1.839745
     21          6           0       -3.536095   -0.580507    0.146794
     22          6           0       -4.611461   -1.563361   -0.317501
     23          6           0       -4.767452   -2.757427    0.624661
     24          1           0       -2.577100   -1.109613    0.232353
     25          1           0       -3.786809   -0.222875    1.155078
     26          1           0       -4.359518   -1.917975   -1.325166
     27          1           0       -5.567967   -1.031810   -0.402148
     28          1           0       -5.042486   -2.421714    1.629775
     29          1           0       -3.827172   -3.312915    0.701512
     30          1           0       -5.541319   -3.447261    0.273777
     31          6           0       -3.368377    0.618545   -0.784802
     32          6           0       -2.293011    1.601400   -0.320507
     33          6           0       -2.137020    2.795465   -1.262669
     34          1           0       -3.117664    0.260914   -1.793087
     35          1           0       -4.327372    1.147652   -0.870361
     36          1           0       -1.336505    1.069849   -0.235860
     37          1           0       -2.544954    1.956014    0.687159
     38          1           0       -3.077301    3.350953   -1.339520
     39          1           0       -1.861986    2.459753   -2.267782
     40          1           0       -1.363153    3.485299   -0.911784
 ---------------------------------------------------------------------

 SCF Done:  E(RHF) =  -470.732987143     A.U. after   11 cycles
 E2 =    -0.1582862338D+01 EUMP2 =    -0.47231584948111D+03

 The electronic state is 1-A.
 Alpha  occ. eigenvalues --  -11.21611 -11.21610 -11.21599 -11.21572 -11.21414
 Alpha  occ. eigenvalues --  -11.21408 -11.21354 -11.21348 -11.21087 -11.21080
 Alpha  occ. eigenvalues --  -11.21079 -11.20991  -1.08450  -1.08420  -1.03571
 Alpha  occ. eigenvalues --   -1.03493  -0.96017  -0.95944  -0.87014  -0.86978
 Alpha  occ. eigenvalues --   -0.79675  -0.79518  -0.78277  -0.78217  -0.65141
 Alpha  occ. eigenvalues --   -0.65004  -0.61092  -0.60805  -0.59366  -0.59330
 Alpha  occ. eigenvalues --   -0.57678  -0.57521  -0.55338  -0.55183  -0.52698
 Alpha  occ. eigenvalues --   -0.52647  -0.52441  -0.52357  -0.50011  -0.49857
 Alpha  occ. eigenvalues --   -0.47960  -0.47854  -0.46742  -0.46504  -0.45849
 Alpha  occ. eigenvalues --   -0.45756  -0.45723  -0.45598  -0.43798  -0.43769
 Alpha virt. eigenvalues --    0.21156   0.23190   0.23471   0.24712   0.26225
 Alpha virt. eigenvalues --    0.26567   0.26900   0.27438   0.28084   0.29022
 Alpha virt. eigenvalues --    0.30622   0.30894   0.31608   0.32054   0.32183

 Mulliken charges:
               1
     1  C   -0.298239
     2  C   -0.300622
     3  C   -0.480271
     4  H    0.149848
     5  H    0.149058
     6  H    0.152124
     7  H    0.151408
     8  H    0.161760
     9  H    0.154439
    10  H    0.160496
    11  C   -0.298229
    12  C   -0.299653
    13  C   -0.475700
    14  H    0.149645
    15  H    0.149357
    16  H    0.152026
    17  H    0.151858
    18  H    0.155099
    19  H    0.155233
    20  H    0.160288
    21  C   -0.298134
    22  C   -0.299637
    23  C   -0.475693
    24  H    0.149180
    25  H    0.149628
    26  H    0.151835
    27  H    0.152032
    28  H    0.155237
    29  H    0.155090
    30  H    0.160282
    31  C   -0.297945
    32  C   -0.302249
    33  C   -0.478038
    34  H    0.149117
    35  H    0.149578
    36  H    0.154937
    37  H    0.152836
    38  H    0.155687
    39  H    0.154837
    40  H    0.161496
 Sum of Mulliken charges =  -0.00000

 Dipole moment (field-independent basis, Debye):
    X=             -0.0111    Y=              0.0143    Z=              0.0066  Tot=              0.0192
 Quadrupole moment (field-independent basis, Debye-Ang):
   XX=            -84.3743   YY=            -85.9542   ZZ=            -84.4567
   XY=              0.1966   XZ=              0.3517   YZ=              0.8598

 Normal termination of Gaussian 16 at Wed May  5 19:51:32 2021.
