 Gaussian 16, Revision A.03,
 Gaussian 16:  EM64L-G16RevA.03 25-Dec-2016

 -------------
 #p 6-31g* mp2
 -------------

 ------------------------------------------------------
 Input file generated by CHIRIPA (05-May-2021 14:57:23)
 ------------------------------------------------------
 Symbolic Z-matrix:
 Charge =  0 Multiplicity = 1

                         Standard orientation:
 ---------------------------------------------------------------------
 Center     Atomic      Atomic             Coordinates (Angstroms)
 Number     Number       Type             X           Y           Z
 ---------------------------------------------------------------------
      1          6           0        1.047846   -0.092049   -0.371640
      2          6           0        1.847989   -0.772918   -1.295063
      3          6           0        3.236395   -0.814856   -1.136581
      4          6           0        3.793789   -0.162048   -0.038198
      5          6           0        3.023365    0.524608    0.898947
      6          6           0        1.637049    0.553403    0.720492
      7          1           0       -0.029890   -0.064576   -0.502511
      8          1           0        1.393148   -1.275084   -2.144177
      9          1           0        3.879468   -1.334647   -1.836361
     10          1           0        3.505663    1.015711    1.735382
     11          1           0        1.018124    1.082941    1.439217
     12          7           0        5.262526   -0.199489    0.140152
     13          8           0        5.729200    0.383639    1.116274
     14          8           0        5.919238   -0.811254   -0.699556
     15          6           0       -4.641713   -2.074582    0.518030
     16          6           0       -4.831364   -1.438741   -0.713334
     17          6           0       -4.232293   -0.202707   -0.973879
     18          6           0       -3.446347    0.371510    0.024046
     19          6           0       -3.238428   -0.237096    1.260839
     20          6           0       -3.847250   -1.472792    1.499457
     21          1           0       -5.110874   -3.034632    0.711910
     22          1           0       -5.447836   -1.903754   -1.477383
     23          1           0       -4.362381    0.311510   -1.918376
     24          1           0       -2.618443    0.251169    2.002887
     25          1           0       -3.698211   -1.964292    2.456671
     26          7           0       -2.806976    1.679864   -0.240175
     27          8           0       -2.119161    2.164884    0.655540
     28          8           0       -3.005758    2.195561   -1.337982
 ---------------------------------------------------------------------

 SCF Done:  E(RHF) =  -868.338850369     A.U. after   16 cycles
 E2 =    -0.2599742165D+01 EUMP2 =    -0.87093859253416D+03

 The electronic state is 1-A.
 Alpha  occ. eigenvalues --  -20.62015 -20.61969 -20.60406 -20.60399 -15.87024
 Alpha  occ. eigenvalues --  -15.85454 -11.32271 -11.30732 -11.28821 -11.28770
 Alpha  occ. eigenvalues --  -11.28452 -11.27742 -11.27725 -11.27308 -11.27246
 Alpha  occ. eigenvalues --  -11.26988 -11.26317 -11.26172  -1.61069  -1.59483
 Alpha  occ. eigenvalues --   -1.40622  -1.39039  -1.20411  -1.18884  -1.09819
 Alpha  occ. eigenvalues --   -1.08289  -1.05770  -1.04269  -0.96673  -0.95146
 Alpha  occ. eigenvalues --   -0.87172  -0.85661  -0.83495  -0.81981  -0.78578
 Alpha  occ. eigenvalues --   -0.77041  -0.73225  -0.72445  -0.71674  -0.71473
 Alpha  occ. eigenvalues --   -0.70804  -0.69972  -0.66042  -0.65741  -0.64530
 Alpha  occ. eigenvalues --   -0.64245  -0.63110  -0.61612  -0.56238  -0.54796
 Alpha  occ. eigenvalues --   -0.54103  -0.53838  -0.52608  -0.52347  -0.50003
 Alpha  occ. eigenvalues --   -0.49969  -0.48436  -0.48424  -0.46033  -0.44464
 Alpha  occ. eigenvalues --   -0.38372  -0.37372  -0.36846  -0.35872
 Alpha virt. eigenvalues --    0.03901   0.05479   0.10247   0.11788   0.15418
 Alpha virt. eigenvalues --    0.17005   0.20391   0.21678   0.26230   0.26963
 Alpha virt. eigenvalues --    0.27843   0.28180   0.30355   0.30847   0.31855

 Mulliken charges:
               1
     1  C   -0.168166
     2  C   -0.219103
     3  C   -0.171880
     4  C    0.158322
     5  C   -0.171991
     6  C   -0.219532
     7  H    0.221734
     8  H    0.220923
     9  H    0.273638
    10  H    0.274738
    11  H    0.232436
    12  N    0.488109
    13  O   -0.461131
    14  O   -0.462047
    15  C   -0.170002
    16  C   -0.218386
    17  C   -0.172236
    18  C    0.151710
    19  C   -0.174736
    20  C   -0.217482
    21  H    0.229677
    22  H    0.227051
    23  H    0.277807
    24  H    0.274207
    25  H    0.227295
    26  N    0.487568
    27  O   -0.464601
    28  O   -0.453923
 Sum of Mulliken charges =  -0.00000

 Dipole moment (field-independent basis, Debye):
    X=             -7.8372    Y=             -4.4920    Z=              0.3252  Tot=              9.0391
 Quadrupole moment (field-independent basis, Debye-Ang):
   XX=           -128.3350   YY=           -107.7376   ZZ=            -97.2917
   XY=             16.9313   XZ=             -3.5892   YZ=              2.7189

 Normal termination of Gaussian 16 at Wed May  5 21:02:56 2021.
