 Gaussian 16, Revision A.03,
 Gaussian 16:  EM64L-G16RevA.03 25-Dec-2016

 -------------
 #p 6-31g* mp2
 -------------

 ------------------------------------------------------
 Input file generated by CHIRIPA (05-May-2021 14:51:11)
 ------------------------------------------------------
 Symbolic Z-matrix:
 Charge =  0 Multiplicity = 1

                         Standard orientation:
 ---------------------------------------------------------------------
 Center     Atomic      Atomic             Coordinates (Angstroms)
 Number     Number       Type             X           Y           Z
 ---------------------------------------------------------------------
      1          6           0       -4.757156   -0.567577   -0.103828
      2          6           0       -6.278596   -0.534647    0.044908
      3          6           0       -6.889812   -1.929742    0.178772
      4          1           0       -4.494087   -1.170666   -0.983614
      5          1           0       -4.321598   -1.077765    0.766454
      6          1           0       -6.711062   -0.023449   -0.824727
      7          1           0       -6.538081    0.068592    0.924331
      8          1           0       -6.485949   -2.444672    1.056463
      9          1           0       -6.659913   -2.537237   -0.702533
     10          1           0       -7.978203   -1.882801    0.283943
     11          6           0       -4.131477    0.819529   -0.238702
     12          6           0       -2.610038    0.786600   -0.387438
     13          6           0       -1.998822    2.181694   -0.521302
     14          1           0       -4.567036    1.329718   -1.108984
     15          1           0       -4.394547    1.422618    0.641084
     16          1           0       -2.350553    0.183360   -1.266862
     17          1           0       -2.177572    0.275402    0.482197
     18          1           0       -2.228721    2.789189    0.360003
     19          1           0       -2.402684    2.696625   -1.398993
     20          1           0       -0.910430    2.134754   -0.626473
     21          6           0        5.189523   -0.150549    0.337079
     22          6           0        6.031972   -0.812355   -0.753920
     23          6           0        7.520648   -0.853988   -0.407645
     24          1           0        5.556840    0.870953    0.506068
     25          1           0        5.332246   -0.694226    1.281240
     26          1           0        5.886631   -0.268427   -1.696063
     27          1           0        5.662486   -1.832335   -0.920466
     28          1           0        7.685239   -1.414280    0.518414
     29          1           0        7.910657    0.158514   -0.261590
     30          1           0        8.104210   -1.331148   -1.201139
     31          6           0        3.699109   -0.101404    0.005451
     32          6           0        2.856662    0.560403    1.096450
     33          6           0        1.367986    0.602036    0.750175
     34          1           0        3.556387    0.442275   -0.938710
     35          1           0        3.331794   -1.122905   -0.163538
     36          1           0        3.226148    1.580383    1.262997
     37          1           0        3.002003    0.016474    2.038593
     38          1           0        0.977977   -0.410466    0.604120
     39          1           0        1.203395    1.162327   -0.175884
     40          1           0        0.784423    1.079195    1.543669
 ---------------------------------------------------------------------

 SCF Done:  E(RHF) =  -470.732972612     A.U. after   11 cycles
 E2 =    -0.1582634294D+01 EUMP2 =    -0.47231560690588D+03

 The electronic state is 1-A.
 Alpha  occ. eigenvalues --  -11.21613 -11.21609 -11.21565 -11.21490 -11.21417
 Alpha  occ. eigenvalues --  -11.21358 -11.21346 -11.21282 -11.21088 -11.21077
 Alpha  occ. eigenvalues --  -11.21044 -11.20909  -1.08444  -1.08362  -1.03557
 Alpha  occ. eigenvalues --   -1.03442  -0.96035  -0.95870  -0.87060  -0.86881
 Alpha  occ. eigenvalues --   -0.79613  -0.79517  -0.78258  -0.78173  -0.65076
 Alpha  occ. eigenvalues --   -0.64995  -0.60965  -0.60856  -0.59422  -0.59237
 Alpha  occ. eigenvalues --   -0.57667  -0.57475  -0.55298  -0.55195  -0.52853
 Alpha  occ. eigenvalues --   -0.52559  -0.52429  -0.52181  -0.49938  -0.49835
 Alpha  occ. eigenvalues --   -0.47942  -0.47808  -0.46640  -0.46538  -0.45799
 Alpha  occ. eigenvalues --   -0.45737  -0.45696  -0.45637  -0.43813  -0.43665
 Alpha virt. eigenvalues --    0.22055   0.22979   0.23482   0.24848   0.26378
 Alpha virt. eigenvalues --    0.26527   0.26879   0.27538   0.27693   0.29084
 Alpha virt. eigenvalues --    0.29697   0.31197   0.31510   0.31771   0.32243

 Mulliken charges:
               1
     1  C   -0.298166
     2  C   -0.299572
     3  C   -0.475659
     4  H    0.149478
     5  H    0.149318
     6  H    0.151860
     7  H    0.151844
     8  H    0.155076
     9  H    0.155097
    10  H    0.160120
    11  C   -0.298283
    12  C   -0.299955
    13  C   -0.480713
    14  H    0.149265
    15  H    0.149325
    16  H    0.151272
    17  H    0.153833
    18  H    0.153961
    19  H    0.153737
    20  H    0.167056
    21  C   -0.298272
    22  C   -0.299658
    23  C   -0.475715
    24  H    0.149698
    25  H    0.149557
    26  H    0.151943
    27  H    0.151957
    28  H    0.155191
    29  H    0.155203
    30  H    0.160282
    31  C   -0.298551
    32  C   -0.300406
    33  C   -0.477590
    34  H    0.149574
    35  H    0.149729
    36  H    0.152068
    37  H    0.151869
    38  H    0.156134
    39  H    0.156759
    40  H    0.161334
 Sum of Mulliken charges =  -0.00000

 Dipole moment (field-independent basis, Debye):
    X=              0.0476    Y=             -0.0098    Z=              0.0101  Tot=              0.0496
 Quadrupole moment (field-independent basis, Debye-Ang):
   XX=            -86.5500   YY=            -84.9037   ZZ=            -83.5677
   XY=             -0.2545   XZ=             -0.0414   YZ=             -0.2325

 Normal termination of Gaussian 16 at Thu May  6 05:25:37 2021.
