 Gaussian 16, Revision A.03,
 Gaussian 16:  EM64L-G16RevA.03 25-Dec-2016

 -------------
 #p 6-31g* mp2
 -------------

 ------------------------------------------------------
 Input file generated by CHIRIPA (05-May-2021 14:51:13)
 ------------------------------------------------------
 Symbolic Z-matrix:
 Charge =  0 Multiplicity = 1

                         Standard orientation:
 ---------------------------------------------------------------------
 Center     Atomic      Atomic             Coordinates (Angstroms)
 Number     Number       Type             X           Y           Z
 ---------------------------------------------------------------------
      1          6           0        3.054843   -0.482984   -0.434676
      2          6           0        4.286118    0.083412    0.273239
      3          6           0        5.204727    0.861002   -0.669791
      4          1           0        3.380048   -1.137826   -1.254657
      5          1           0        2.494433    0.341581   -0.896658
      6          1           0        4.843294   -0.741827    0.734923
      7          1           0        3.957944    0.736831    1.091751
      8          1           0        4.669973    1.703079   -1.120952
      9          1           0        5.560354    0.216020   -1.479808
     10          1           0        6.078504    1.257051   -0.142990
     11          6           0        2.126841   -1.262961    0.494935
     12          6           0        0.895566   -1.829356   -0.212980
     13          6           0       -0.023043   -2.606947    0.730050
     14          1           0        2.687251   -2.087526    0.956918
     15          1           0        1.801636   -0.608118    1.314916
     16          1           0        1.223740   -2.482775   -1.031492
     17          1           0        0.338390   -1.004117   -0.674663
     18          1           0       -0.378670   -1.961964    1.540067
     19          1           0        0.511711   -3.449023    1.181211
     20          1           0       -0.896819   -3.002996    0.203249
     21          6           0       -2.789279    0.162496    0.168058
     22          6           0       -3.896384   -0.424589   -0.708089
     23          6           0       -4.282413   -1.846424   -0.299237
     24          1           0       -1.905585   -0.488154    0.116246
     25          1           0       -3.119561    0.158228    1.216052
     26          1           0       -3.564655   -0.417938   -1.754286
     27          1           0       -4.777480    0.227636   -0.654335
     28          1           0       -4.638567   -1.866361    0.735827
     29          1           0       -3.418851   -2.515604   -0.370373
     30          1           0       -5.075378   -2.246715   -0.938639
     31          6           0       -2.392406    1.583448   -0.228318
     32          6           0       -1.285300    2.170534    0.647829
     33          6           0       -0.899271    3.592369    0.238978
     34          1           0       -2.062123    1.587716   -1.276311
     35          1           0       -3.276099    2.234099   -0.176505
     36          1           0       -0.404205    1.518308    0.594076
     37          1           0       -1.617030    2.163882    1.694026
     38          1           0       -1.762833    4.261548    0.310113
     39          1           0       -0.543117    3.612306   -0.796086
     40          1           0       -0.106307    3.992659    0.878380
 ---------------------------------------------------------------------

 SCF Done:  E(RHF) =  -470.732460763     A.U. after   11 cycles
 E2 =    -0.1584807539D+01 EUMP2 =    -0.47231726830171D+03

 The electronic state is 1-A.
 Alpha  occ. eigenvalues --  -11.21682 -11.21658 -11.21632 -11.21574 -11.21460
 Alpha  occ. eigenvalues --  -11.21400 -11.21390 -11.21269 -11.21120 -11.21113
 Alpha  occ. eigenvalues --  -11.21092 -11.21049  -1.08517  -1.08404  -1.03601
 Alpha  occ. eigenvalues --   -1.03529  -0.96051  -0.95970  -0.87056  -0.86995
 Alpha  occ. eigenvalues --   -0.79663  -0.79590  -0.78314  -0.78239  -0.65408
 Alpha  occ. eigenvalues --   -0.64835  -0.61041  -0.60921  -0.59470  -0.59277
 Alpha  occ. eigenvalues --   -0.57654  -0.57587  -0.55484  -0.55129  -0.52753
 Alpha  occ. eigenvalues --   -0.52675  -0.52482  -0.52364  -0.50035  -0.49876
 Alpha  occ. eigenvalues --   -0.47995  -0.47877  -0.46698  -0.46630  -0.45995
 Alpha  occ. eigenvalues --   -0.45806  -0.45714  -0.45446  -0.43828  -0.43781
 Alpha virt. eigenvalues --    0.19415   0.22279   0.23708   0.24452   0.26288
 Alpha virt. eigenvalues --    0.26453   0.26665   0.27510   0.27859   0.30010
 Alpha virt. eigenvalues --    0.30360   0.31391   0.31740   0.31969   0.32333

 Mulliken charges:
               1
     1  C   -0.298841
     2  C   -0.299671
     3  C   -0.475792
     4  H    0.149830
     5  H    0.149537
     6  H    0.152045
     7  H    0.152169
     8  H    0.155360
     9  H    0.155174
    10  H    0.160413
    11  C   -0.299157
    12  C   -0.305254
    13  C   -0.483302
    14  H    0.150115
    15  H    0.150915
    16  H    0.152670
    17  H    0.154511
    18  H    0.157837
    19  H    0.157240
    20  H    0.163185
    21  C   -0.311167
    22  C   -0.298953
    23  C   -0.478895
    24  H    0.166309
    25  H    0.148606
    26  H    0.151356
    27  H    0.151710
    28  H    0.155396
    29  H    0.157784
    30  H    0.160098
    31  C   -0.297393
    32  C   -0.303239
    33  C   -0.475551
    34  H    0.148850
    35  H    0.149769
    36  H    0.153343
    37  H    0.152151
    38  H    0.155686
    39  H    0.155060
    40  H    0.160096
 Sum of Mulliken charges =  -0.00000

 Dipole moment (field-independent basis, Debye):
    X=              0.0284    Y=             -0.0258    Z=              0.0182  Tot=              0.0424
 Quadrupole moment (field-independent basis, Debye-Ang):
   XX=            -84.8104   YY=            -85.2917   ZZ=            -84.6703
   XY=             -1.5678   XZ=             -0.0949   YZ=              0.9106

 Normal termination of Gaussian 16 at Thu May  6 05:34:21 2021.
