 Gaussian 16, Revision A.03,
 Gaussian 16:  EM64L-G16RevA.03 25-Dec-2016

 -------------
 #p 6-31g* mp2
 -------------

 ------------------------------------------------------
 Input file generated by CHIRIPA (05-May-2021 14:51:14)
 ------------------------------------------------------
 Symbolic Z-matrix:
 Charge =  0 Multiplicity = 1

                         Standard orientation:
 ---------------------------------------------------------------------
 Center     Atomic      Atomic             Coordinates (Angstroms)
 Number     Number       Type             X           Y           Z
 ---------------------------------------------------------------------
      1          6           0       -4.156026    0.452060    0.332908
      2          6           0       -5.267230    1.005542   -0.559768
      3          6           0       -6.020348    2.168773    0.086375
      4          1           0       -4.590173    0.124566    1.287480
      5          1           0       -3.450223    1.259779    0.571291
      6          1           0       -5.969977    0.196696   -0.797530
      7          1           0       -4.830416    1.331580   -1.512400
      8          1           0       -5.336621    2.994516    0.308335
      9          1           0       -6.482656    1.853184    1.027266
     10          1           0       -6.810177    2.549095   -0.568900
     11          6           0       -3.394017   -0.711304   -0.299274
     12          6           0       -2.282813   -1.264786    0.593401
     13          6           0       -1.529695   -2.428017   -0.052742
     14          1           0       -4.099820   -1.519023   -0.537658
     15          1           0       -2.959870   -0.383810   -1.253847
     16          1           0       -2.719627   -1.590824    1.546034
     17          1           0       -1.580066   -0.455940    0.831164
     18          1           0       -1.067387   -2.112428   -0.993633
     19          1           0       -2.213422   -3.253760   -0.274701
     20          1           0       -0.739866   -2.808338    0.602534
     21          6           0        4.154753    0.707939   -0.340523
     22          6           0        4.138050    1.987895    0.495790
     23          6           0        4.901870    3.135816   -0.165004
     24          1           0        5.196274    0.404909   -0.514740
     25          1           0        3.720922    0.917774   -1.328023
     26          1           0        4.570517    1.775372    1.481905
     27          1           0        3.096443    2.287805    0.668199
     28          1           0        4.467426    3.376351   -1.140711
     29          1           0        5.949874    2.861006   -0.322380
     30          1           0        4.877128    4.040935    0.449819
     31          6           0        3.395290   -0.448695    0.306889
     32          6           0        3.411993   -1.728651   -0.529423
     33          6           0        2.648174   -2.876572    0.131371
     34          1           0        3.829122   -0.658531    1.294390
     35          1           0        2.353769   -0.145666    0.481106
     36          1           0        4.453600   -2.028562   -0.701832
     37          1           0        2.979526   -1.516128   -1.515538
     38          1           0        1.600169   -2.601762    0.288747
     39          1           0        3.082618   -3.117108    1.107078
     40          1           0        2.672916   -3.781691   -0.483452
 ---------------------------------------------------------------------

 SCF Done:  E(RHF) =  -470.733168394     A.U. after   11 cycles
 E2 =    -0.1582401257D+01 EUMP2 =    -0.47231556965099D+03

 The electronic state is 1-A.
 Alpha  occ. eigenvalues --  -11.21647 -11.21624 -11.21604 -11.21566 -11.21437
 Alpha  occ. eigenvalues --  -11.21396 -11.21377 -11.21336 -11.21103 -11.21089
 Alpha  occ. eigenvalues --  -11.21075 -11.20969  -1.08463  -1.08415  -1.03571
 Alpha  occ. eigenvalues --   -1.03500  -0.96037  -0.95934  -0.87074  -0.86933
 Alpha  occ. eigenvalues --   -0.79654  -0.79544  -0.78274  -0.78230  -0.65107
 Alpha  occ. eigenvalues --   -0.65037  -0.61024  -0.60869  -0.59412  -0.59312
 Alpha  occ. eigenvalues --   -0.57691  -0.57509  -0.55385  -0.55171  -0.52817
 Alpha  occ. eigenvalues --   -0.52633  -0.52467  -0.52266  -0.50023  -0.49800
 Alpha  occ. eigenvalues --   -0.47984  -0.47839  -0.46681  -0.46570  -0.45817
 Alpha  occ. eigenvalues --   -0.45768  -0.45741  -0.45696  -0.43789  -0.43759
 Alpha virt. eigenvalues --    0.21608   0.23126   0.23563   0.24960   0.26361
 Alpha virt. eigenvalues --    0.26757   0.27066   0.27268   0.27837   0.28938
 Alpha virt. eigenvalues --    0.30493   0.31287   0.31754   0.31772   0.32090

 Mulliken charges:
               1
     1  C   -0.298293
     2  C   -0.299674
     3  C   -0.475721
     4  H    0.149800
     5  H    0.149444
     6  H    0.152013
     7  H    0.151908
     8  H    0.155183
     9  H    0.155249
    10  H    0.160328
    11  C   -0.298484
    12  C   -0.299770
    13  C   -0.480612
    14  H    0.149790
    15  H    0.149551
    16  H    0.152350
    17  H    0.151476
    18  H    0.155215
    19  H    0.155867
    20  H    0.165309
    21  C   -0.298265
    22  C   -0.299587
    23  C   -0.475690
    24  H    0.149734
    25  H    0.149331
    26  H    0.151993
    27  H    0.151655
    28  H    0.155090
    29  H    0.155243
    30  H    0.160226
    31  C   -0.298309
    32  C   -0.299022
    33  C   -0.483090
    34  H    0.149518
    35  H    0.149224
    36  H    0.151705
    37  H    0.151518
    38  H    0.163351
    39  H    0.154325
    40  H    0.160121
 Sum of Mulliken charges =  -0.00000

 Dipole moment (field-independent basis, Debye):
    X=             -0.0366    Y=             -0.0136    Z=              0.0047  Tot=              0.0393
 Quadrupole moment (field-independent basis, Debye-Ang):
   XX=            -84.3106   YY=            -85.8280   ZZ=            -84.6349
   XY=              0.3304   XZ=              0.5127   YZ=             -0.3961

 Normal termination of Gaussian 16 at Wed May  5 15:24:28 2021.
