 Gaussian 16, Revision A.03,
 Gaussian 16:  EM64L-G16RevA.03 25-Dec-2016

 -------------
 #p 6-31g* mp2
 -------------

 ------------------------------------------------------
 Input file generated by CHIRIPA (05-May-2021 14:51:09)
 ------------------------------------------------------
 Symbolic Z-matrix:
 Charge =  0 Multiplicity = 1

                         Standard orientation:
 ---------------------------------------------------------------------
 Center     Atomic      Atomic             Coordinates (Angstroms)
 Number     Number       Type             X           Y           Z
 ---------------------------------------------------------------------
      1          6           0       -2.937253   -0.097535   -0.277256
      2          6           0       -2.871593    1.284698   -0.927722
      3          6           0       -3.818661    1.422484   -2.120145
      4          1           0       -2.696029   -0.861404   -1.029094
      5          1           0       -3.968438   -0.293532    0.047761
      6          1           0       -1.840553    1.478600   -1.250172
      7          1           0       -3.112814    2.045377   -0.174201
      8          1           0       -4.855256    1.255254   -1.810134
      9          1           0       -3.575765    0.685256   -2.892219
     10          1           0       -3.755527    2.418223   -2.570008
     11          6           0       -1.996114   -0.250736    0.916275
     12          6           0       -2.061774   -1.632969    1.566741
     13          6           0       -1.114706   -1.770755    2.759164
     14          1           0       -0.964928   -0.054739    0.591258
     15          1           0       -2.237338    0.513133    1.668113
     16          1           0       -1.820553   -2.393649    0.813220
     17          1           0       -3.092814   -1.826871    1.889191
     18          1           0       -1.357601   -1.033527    3.531238
     19          1           0       -0.078111   -1.603525    2.449153
     20          1           0       -1.177840   -2.766494    3.209027
     21          6           0        2.815533   -0.445957   -0.597397
     22          6           0        1.860843   -1.420525   -1.287883
     23          6           0        2.573592   -2.656047   -1.838585
     24          1           0        3.591770   -0.135909   -1.310328
     25          1           0        3.332348   -0.967183    0.220295
     26          1           0        1.344964   -0.897242   -2.103149
     27          1           0        1.086678   -1.728141   -0.573281
     28          1           0        3.074079   -3.203098   -1.033074
     29          1           0        3.333833   -2.367478   -2.571634
     30          1           0        1.872433   -3.339210   -2.327998
     31          6           0        2.117835    0.794228   -0.041622
     32          6           0        3.072523    1.768796    0.648864
     33          6           0        2.359775    3.004318    1.199566
     34          1           0        1.601018    1.315453   -0.859314
     35          1           0        1.341597    0.484181    0.671309
     36          1           0        3.846689    2.076413   -0.065737
     37          1           0        3.588403    1.245513    1.464130
     38          1           0        1.599534    2.715750    1.932615
     39          1           0        1.859288    3.551370    0.394054
     40          1           0        3.060933    3.687480    1.688979
 ---------------------------------------------------------------------

 SCF Done:  E(RHF) =  -470.733228617     A.U. after   11 cycles
 E2 =    -0.1584065493D+01 EUMP2 =    -0.47231729411005D+03

 The electronic state is 1-A.
 Alpha  occ. eigenvalues --  -11.21697 -11.21635 -11.21607 -11.21563 -11.21468
 Alpha  occ. eigenvalues --  -11.21407 -11.21353 -11.21284 -11.21137 -11.21128
 Alpha  occ. eigenvalues --  -11.21075 -11.21048  -1.08510  -1.08393  -1.03582
 Alpha  occ. eigenvalues --   -1.03524  -0.96032  -0.95970  -0.87045  -0.86989
 Alpha  occ. eigenvalues --   -0.79651  -0.79583  -0.78452  -0.78093  -0.65260
 Alpha  occ. eigenvalues --   -0.64919  -0.61003  -0.60897  -0.59396  -0.59341
 Alpha  occ. eigenvalues --   -0.57664  -0.57565  -0.55336  -0.55246  -0.52725
 Alpha  occ. eigenvalues --   -0.52672  -0.52476  -0.52381  -0.49988  -0.49910
 Alpha  occ. eigenvalues --   -0.47969  -0.47926  -0.46753  -0.46647  -0.46337
 Alpha  occ. eigenvalues --   -0.45782  -0.45724  -0.45034  -0.43838  -0.43764
 Alpha virt. eigenvalues --    0.19526   0.23180   0.23371   0.24226   0.25287
 Alpha virt. eigenvalues --    0.26523   0.27016   0.27855   0.28132   0.30521
 Alpha virt. eigenvalues --    0.30603   0.31554   0.31677   0.31835   0.32123

 Mulliken charges:
               1
     1  C   -0.297467
     2  C   -0.300232
     3  C   -0.475726
     4  H    0.149715
     5  H    0.149177
     6  H    0.152620
     7  H    0.151886
     8  H    0.155134
     9  H    0.155048
    10  H    0.160025
    11  C   -0.308865
    12  C   -0.299638
    13  C   -0.477701
    14  H    0.160911
    15  H    0.148854
    16  H    0.152048
    17  H    0.152143
    18  H    0.155439
    19  H    0.154965
    20  H    0.160671
    21  C   -0.297823
    22  C   -0.303160
    23  C   -0.475635
    24  H    0.150110
    25  H    0.149609
    26  H    0.151740
    27  H    0.154136
    28  H    0.155575
    29  H    0.155593
    30  H    0.160346
    31  C   -0.306759
    32  C   -0.298950
    33  C   -0.475936
    34  H    0.149371
    35  H    0.157227
    36  H    0.152034
    37  H    0.152054
    38  H    0.155891
    39  H    0.155270
    40  H    0.160301
 Sum of Mulliken charges =  -0.00000

 Dipole moment (field-independent basis, Debye):
    X=              0.0335    Y=              0.0079    Z=             -0.0019  Tot=              0.0345
 Quadrupole moment (field-independent basis, Debye-Ang):
   XX=            -84.7681   YY=            -85.3970   ZZ=            -84.5836
   XY=              0.3338   XZ=             -1.0093   YZ=             -0.3908

 Normal termination of Gaussian 16 at Wed May  5 21:22:11 2021.
