 Gaussian 16, Revision A.03,
 Gaussian 16:  EM64L-G16RevA.03 25-Dec-2016

 -------------
 #p 6-31g* mp2
 -------------

 ------------------------------------------------------
 Input file generated by CHIRIPA (05-May-2021 14:55:25)
 ------------------------------------------------------
 Symbolic Z-matrix:
 Charge =  0 Multiplicity = 1

                         Standard orientation:
 ---------------------------------------------------------------------
 Center     Atomic      Atomic             Coordinates (Angstroms)
 Number     Number       Type             X           Y           Z
 ---------------------------------------------------------------------
      1          6           0       -3.624406    2.653572    0.325167
      2          6           0       -2.340269    2.149754    0.093474
      3          6           0       -2.145289    0.786607   -0.148107
      4          6           0       -3.261876   -0.047968   -0.150801
      5          6           0       -4.553767    0.423804    0.076662
      6          6           0       -4.725116    1.790511    0.316037
      7          1           0       -3.766693    3.713880    0.511976
      8          1           0       -1.483601    2.817678    0.099971
      9          1           0       -1.162160    0.369925   -0.330457
     10          1           0       -5.388321   -0.266686    0.063946
     11          1           0       -5.723547    2.178990    0.495661
     12          7           0       -3.067968   -1.492954   -0.405384
     13          8           0       -4.068076   -2.207387   -0.402490
     14          8           0       -1.919547   -1.883741   -0.603000
     15          6           0        4.599281    0.244931   -0.305777
     16          6           0        6.018475    0.529164    0.187260
     17          6           0        6.772331    1.507906   -0.713605
     18          1           0        4.646357   -0.156557   -1.327313
     19          1           0        4.043537    1.190867   -0.367010
     20          1           0        6.570951   -0.417193    0.248866
     21          1           0        5.968026    0.929842    1.207813
     22          1           0        6.245886    2.466364   -0.766667
     23          1           0        6.852236    1.111675   -1.731061
     24          1           0        7.784529    1.696882   -0.342655
     25          6           0        3.832936   -0.731801    0.584414
     26          6           0        2.413742   -1.016034    0.091377
     27          6           0        1.659886   -1.994776    0.992242
     28          1           0        4.388680   -1.677737    0.645647
     29          1           0        3.785860   -0.330313    1.605949
     30          1           0        2.464192   -1.416712   -0.929176
     31          1           0        1.861267   -0.069677    0.029771
     32          1           0        1.579981   -1.598546    2.009698
     33          1           0        2.186332   -2.953234    1.045304
     34          1           0        0.647688   -2.183753    0.621292
 ---------------------------------------------------------------------

 SCF Done:  E(RHF) =  -669.536225504     A.U. after   15 cycles
 E2 =    -0.2091170729D+01 EUMP2 =    -0.67162739623345D+03

 The electronic state is 1-A.
 Alpha  occ. eigenvalues --  -20.60916 -20.60900 -15.85948 -11.31252 -11.27819
 Alpha  occ. eigenvalues --  -11.27809 -11.27558 -11.26826 -11.26815 -11.21562
 Alpha  occ. eigenvalues --  -11.21346 -11.21317 -11.21183 -11.21073 -11.20328
 Alpha  occ. eigenvalues --   -1.59972  -1.39529  -1.19423  -1.08831  -1.08278
 Alpha  occ. eigenvalues --   -1.04818  -1.03306  -0.95739  -0.95658  -0.86735
 Alpha  occ. eigenvalues --   -0.86219  -0.82510  -0.79386  -0.78099  -0.77564
 Alpha  occ. eigenvalues --   -0.72178  -0.71284  -0.70533  -0.65081  -0.64927
 Alpha  occ. eigenvalues --   -0.64817  -0.62170  -0.60719  -0.59088  -0.57317
 Alpha  occ. eigenvalues --   -0.55326  -0.55028  -0.53151  -0.52910  -0.52361
 Alpha  occ. eigenvalues --   -0.52137  -0.49689  -0.48926  -0.48920  -0.47679
 Alpha  occ. eigenvalues --   -0.46454  -0.45633  -0.45575  -0.44944  -0.43517
 Alpha  occ. eigenvalues --   -0.37403  -0.36418
 Alpha virt. eigenvalues --    0.04941   0.11233   0.16419   0.20429   0.22931
 Alpha virt. eigenvalues --    0.23858   0.26074   0.27050   0.27620   0.27982
 Alpha virt. eigenvalues --    0.29053   0.30594   0.31468   0.31760   0.32273

 Mulliken charges:
               1
     1  C   -0.170452
     2  C   -0.219367
     3  C   -0.173412
     4  C    0.157744
     5  C   -0.170542
     6  C   -0.218771
     7  H    0.225842
     8  H    0.223715
     9  H    0.280420
    10  H    0.275689
    11  H    0.223666
    12  N    0.491783
    13  O   -0.458877
    14  O   -0.464411
    15  C   -0.297446
    16  C   -0.299434
    17  C   -0.475461
    18  H    0.150512
    19  H    0.145260
    20  H    0.152908
    21  H    0.151110
    22  H    0.153482
    23  H    0.155620
    24  H    0.160144
    25  C   -0.297650
    26  C   -0.297606
    27  C   -0.489547
    28  H    0.151181
    29  H    0.147818
    30  H    0.155648
    31  H    0.139004
    32  H    0.148772
    33  H    0.154789
    34  H    0.187868
 Sum of Mulliken charges =  -0.00000

 Dipole moment (field-independent basis, Debye):
    X=             -0.8427    Y=              4.9775    Z=              0.8585  Tot=              5.1208
 Quadrupole moment (field-independent basis, Debye-Ang):
   XX=            -85.8850   YY=            -95.3311   ZZ=            -96.0170
   XY=            -16.8847   XZ=             -3.3518   YZ=              0.0431

 Normal termination of Gaussian 16 at Thu May  6 17:46:11 2021.
