 Gaussian 16, Revision A.03,
 Gaussian 16:  EM64L-G16RevA.03 25-Dec-2016

 -------------
 #p 6-31g* mp2
 -------------

 ------------------------------------------------------
 Input file generated by CHIRIPA (05-May-2021 14:55:19)
 ------------------------------------------------------
 Symbolic Z-matrix:
 Charge =  0 Multiplicity = 1

                         Standard orientation:
 ---------------------------------------------------------------------
 Center     Atomic      Atomic             Coordinates (Angstroms)
 Number     Number       Type             X           Y           Z
 ---------------------------------------------------------------------
      1          6           0       -4.867197   -1.506393   -0.401366
      2          6           0       -3.950687   -1.690260    0.639174
      3          6           0       -3.002009   -0.705961    0.931944
      4          6           0       -2.998222    0.455125    0.160482
      5          6           0       -3.898189    0.667707   -0.882666
      6          6           0       -4.838074   -0.330070   -1.157632
      7          1           0       -5.600737   -2.276254   -0.621882
      8          1           0       -3.970971   -2.602798    1.228162
      9          1           0       -2.280853   -0.822372    1.731820
     10          1           0       -3.853382    1.588006   -1.452280
     11          1           0       -5.548629   -0.184558   -1.966324
     12          7           0       -1.998553    1.504292    0.461000
     13          8           0       -2.015975    2.518230   -0.233450
     14          8           0       -1.216521    1.292824    1.385307
     15          6           0        4.666087   -0.026694   -0.442428
     16          6           0        5.954085   -0.332363    0.322825
     17          6           0        7.180652    0.343965   -0.290285
     18          1           0        4.781604   -0.350069   -1.485994
     19          1           0        4.512048    1.060983   -0.467468
     20          1           0        6.104920   -1.419217    0.347606
     21          1           0        5.835418   -0.008398    1.364737
     22          1           0        7.056009    1.431605   -0.300563
     23          1           0        7.327044    0.012769   -1.323474
     24          1           0        8.090272    0.112029    0.272439
     25          6           0        3.431140   -0.695762    0.158390
     26          6           0        2.143142   -0.390092   -0.606864
     27          6           0        0.916574   -1.066421    0.006247
     28          1           0        3.585179   -1.783438    0.183430
     29          1           0        3.315622   -0.372387    1.201956
     30          1           0        2.261809   -0.714057   -1.648775
     31          1           0        1.992306    0.696761   -0.631644
     32          1           0        0.770183   -0.735225    1.039436
     33          1           0        1.041218   -2.154060    0.016524
     34          1           0        0.006955   -0.834485   -0.556478
 ---------------------------------------------------------------------

 SCF Done:  E(RHF) =  -669.535681941     A.U. after   15 cycles
 E2 =    -0.2092203148D+01 EUMP2 =    -0.67162788508882D+03

 The electronic state is 1-A.
 Alpha  occ. eigenvalues --  -20.60857 -20.60836 -15.85878 -11.31217 -11.27788
 Alpha  occ. eigenvalues --  -11.27775 -11.27527 -11.26793 -11.26778 -11.21157
 Alpha  occ. eigenvalues --  -11.20887 -11.20850 -11.20758 -11.20682 -11.20372
 Alpha  occ. eigenvalues --   -1.59911  -1.39467  -1.19390  -1.08792  -1.07857
 Alpha  occ. eigenvalues --   -1.04785  -1.02961  -0.95641  -0.95422  -0.86467
 Alpha  occ. eigenvalues --   -0.86179  -0.82466  -0.79046  -0.77679  -0.77500
 Alpha  occ. eigenvalues --   -0.72116  -0.71239  -0.70497  -0.65047  -0.64788
 Alpha  occ. eigenvalues --   -0.64473  -0.62133  -0.60331  -0.58819  -0.57049
 Alpha  occ. eigenvalues --   -0.55293  -0.54697  -0.53143  -0.52880  -0.52130
 Alpha  occ. eigenvalues --   -0.51862  -0.49405  -0.48867  -0.48831  -0.47361
 Alpha  occ. eigenvalues --   -0.46077  -0.45232  -0.45139  -0.44741  -0.43227
 Alpha  occ. eigenvalues --   -0.37360  -0.36376
 Alpha virt. eigenvalues --    0.04990   0.11232   0.16469   0.21319   0.23447
 Alpha virt. eigenvalues --    0.24768   0.26822   0.27328   0.27817   0.28082
 Alpha virt. eigenvalues --    0.28751   0.30762   0.31641   0.31911   0.32284

 Mulliken charges:
               1
     1  C   -0.170533
     2  C   -0.218903
     3  C   -0.168395
     4  C    0.156656
     5  C   -0.171369
     6  C   -0.218712
     7  H    0.225748
     8  H    0.223802
     9  H    0.276670
    10  H    0.275657
    11  H    0.223522
    12  N    0.489696
    13  O   -0.460192
    14  O   -0.459065
    15  C   -0.298391
    16  C   -0.299352
    17  C   -0.475497
    18  H    0.147746
    19  H    0.152194
    20  H    0.150052
    21  H    0.152477
    22  H    0.155934
    23  H    0.154111
    24  H    0.158831
    25  C   -0.298728
    26  C   -0.300186
    27  C   -0.477698
    28  H    0.145608
    29  H    0.152481
    30  H    0.147275
    31  H    0.161795
    32  H    0.169867
    33  H    0.145755
    34  H    0.151142
 Sum of Mulliken charges =  -0.00000

 Dipole moment (field-independent basis, Debye):
    X=             -3.6450    Y=             -3.5633    Z=             -0.9627  Tot=              5.1875
 Quadrupole moment (field-independent basis, Debye-Ang):
   XX=            -74.8902   YY=            -96.7518   ZZ=            -92.4975
   XY=              8.3371   XZ=              4.6248   YZ=             -2.9674

 Normal termination of Gaussian 16 at Thu May  6 09:12:36 2021.
