 Gaussian 16, Revision A.03,
 Gaussian 16:  EM64L-G16RevA.03 25-Dec-2016

 -------------
 #p 6-31g* mp2
 -------------

 ------------------------------------------------------
 Input file generated by CHIRIPA (05-May-2021 14:53:12)
 ------------------------------------------------------
 Symbolic Z-matrix:
 Charge =  0 Multiplicity = 1

                         Standard orientation:
 ---------------------------------------------------------------------
 Center     Atomic      Atomic             Coordinates (Angstroms)
 Number     Number       Type             X           Y           Z
 ---------------------------------------------------------------------
      1          6           0       -2.508735    1.036364   -0.130405
      2          6           0       -2.971109    2.328529   -0.804574
      3          6           0       -1.856782    3.369736   -0.913931
      4          1           0       -2.124059    1.270451    0.871679
      5          1           0       -1.667061    0.615774   -0.697930
      6          1           0       -3.812556    2.745826   -0.236731
      7          1           0       -3.354906    2.091314   -1.805097
      8          1           0       -1.018609    2.977004   -1.498592
      9          1           0       -1.478860    3.635235    0.078685
     10          1           0       -2.209138    4.285442   -1.398892
     11          6           0       -3.611581   -0.014280   -0.013760
     12          6           0       -3.149206   -1.306445    0.660410
     13          6           0       -4.263533   -2.347651    0.769766
     14          1           0       -4.453254    0.406311    0.553765
     15          1           0       -3.996256   -0.248366   -1.015844
     16          1           0       -2.765409   -1.069229    1.660932
     17          1           0       -2.307759   -1.723742    0.092567
     18          1           0       -4.641456   -2.613150   -0.222850
     19          1           0       -5.101706   -1.954919    1.354427
     20          1           0       -3.911178   -3.263357    1.254727
     21          6           0        3.529057    1.649100    0.991424
     22          6           0        2.283012    1.252586    1.488083
     23          6           0        1.643074    0.119327    0.977444
     24          6           0        2.280701   -0.597279   -0.034089
     25          6           0        3.521978   -0.227635   -0.549728
     26          6           0        4.143481    0.909029   -0.024105
     27          1           0        4.019015    2.530765    1.393921
     28          1           0        1.803488    1.825417    2.276732
     29          1           0        0.678260   -0.210063    1.343581
     30          1           0        3.975177   -0.818877   -1.336150
     31          1           0        5.111158    1.214617   -0.411740
     32          7           0        1.612986   -1.798812   -0.582610
     33          8           0        2.195685   -2.413073   -1.473554
     34          8           0        0.519574   -2.103559   -0.111212
 ---------------------------------------------------------------------

 SCF Done:  E(RHF) =  -669.536344039     A.U. after   15 cycles
 E2 =    -0.2091955123D+01 EUMP2 =    -0.67162829916210D+03

 The electronic state is 1-A.
 Alpha  occ. eigenvalues --  -20.60910 -20.60900 -15.85941 -11.31229 -11.27800
 Alpha  occ. eigenvalues --  -11.27772 -11.27532 -11.26800 -11.26784 -11.21513
 Alpha  occ. eigenvalues --  -11.21206 -11.21143 -11.20925 -11.20739 -11.20375
 Alpha  occ. eigenvalues --   -1.59970  -1.39526  -1.19399  -1.08811  -1.08080
 Alpha  occ. eigenvalues --   -1.04789  -1.03139  -0.95656  -0.95641  -0.86660
 Alpha  occ. eigenvalues --   -0.86191  -0.82493  -0.79235  -0.77905  -0.77487
 Alpha  occ. eigenvalues --   -0.72165  -0.71284  -0.70506  -0.65062  -0.64793
 Alpha  occ. eigenvalues --   -0.64701  -0.62135  -0.60527  -0.59027  -0.57223
 Alpha  occ. eigenvalues --   -0.55299  -0.54946  -0.53125  -0.52884  -0.52327
 Alpha  occ. eigenvalues --   -0.52059  -0.49600  -0.48932  -0.48918  -0.47539
 Alpha  occ. eigenvalues --   -0.46270  -0.45458  -0.45369  -0.44746  -0.43412
 Alpha  occ. eigenvalues --   -0.37380  -0.36383
 Alpha virt. eigenvalues --    0.04952   0.11232   0.16429   0.20897   0.23156
 Alpha virt. eigenvalues --    0.24561   0.25539   0.27060   0.27750   0.28184
 Alpha virt. eigenvalues --    0.29369   0.30941   0.31685   0.31888   0.32484

 Mulliken charges:
               1
     1  C   -0.299053
     2  C   -0.299225
     3  C   -0.475061
     4  H    0.139545
     5  H    0.154896
     6  H    0.151250
     7  H    0.154024
     8  H    0.155802
     9  H    0.149596
    10  H    0.160059
    11  C   -0.297548
    12  C   -0.310232
    13  C   -0.475247
    14  H    0.145950
    15  H    0.150657
    16  H    0.142829
    17  H    0.181491
    18  H    0.155073
    19  H    0.150020
    20  H    0.162287
    21  C   -0.170390
    22  C   -0.218629
    23  C   -0.170934
    24  C    0.156654
    25  C   -0.170834
    26  C   -0.218737
    27  H    0.225851
    28  H    0.223694
    29  H    0.278832
    30  H    0.275481
    31  H    0.223544
    32  N    0.492512
    33  O   -0.459321
    34  O   -0.464840
 Sum of Mulliken charges =  -0.00000

 Dipole moment (field-independent basis, Debye):
    X=              2.4814    Y=              4.0838    Z=              1.8208  Tot=              5.1137
 Quadrupole moment (field-independent basis, Debye-Ang):
   XX=            -82.2345   YY=           -101.0852   ZZ=            -92.7196
   XY=              7.3770   XZ=              1.8683   YZ=             -0.1855

 Normal termination of Gaussian 16 at Wed May  5 23:21:35 2021.
