 Gaussian 16, Revision A.03,
 Gaussian 16:  EM64L-G16RevA.03 25-Dec-2016

 -------------
 #p 6-31g* mp2
 -------------

 ------------------------------------------------------
 Input file generated by CHIRIPA (05-May-2021 14:53:16)
 ------------------------------------------------------
 Symbolic Z-matrix:
 Charge =  0 Multiplicity = 1

                         Standard orientation:
 ---------------------------------------------------------------------
 Center     Atomic      Atomic             Coordinates (Angstroms)
 Number     Number       Type             X           Y           Z
 ---------------------------------------------------------------------
      1          6           0        3.001508    0.399880    0.262876
      2          6           0        3.522548   -0.765185   -0.579220
      3          6           0        4.723678   -1.464456    0.058039
      4          1           0        3.812151    1.125690    0.414546
      5          1           0        2.724441    0.028049    1.259054
      6          1           0        3.797253   -0.391517   -1.573969
      7          1           0        2.710517   -1.488213   -0.729064
      8          1           0        4.459106   -1.864279    1.042287
      9          1           0        5.552016   -0.761351    0.192582
     10          1           0        5.079946   -2.294069   -0.560569
     11          6           0        1.800831    1.108966   -0.361062
     12          6           0        1.279791    2.274031    0.481034
     13          6           0        0.078661    2.973302   -0.156226
     14          1           0        2.077898    1.480797   -1.357240
     15          1           0        0.990188    0.383156   -0.512732
     16          1           0        2.091822    2.997059    0.630878
     17          1           0        1.005086    1.900363    1.475783
     18          1           0       -0.749677    2.270198   -0.290769
     19          1           0        0.343233    3.373125   -1.140474
     20          1           0       -0.277607    3.802915    0.462382
     21          6           0       -1.694570   -0.687965    2.552975
     22          6           0       -1.002410   -1.612982    1.764445
     23          6           0       -1.095533   -1.567802    0.370231
     24          6           0       -1.893446   -0.579864   -0.204750
     25          6           0       -2.595190    0.355801    0.553784
     26          6           0       -2.487353    0.291747    1.946198
     27          1           0       -1.616515   -0.730393    3.635336
     28          1           0       -0.385981   -2.374934    2.232942
     29          1           0       -0.570388   -2.271524   -0.264133
     30          1           0       -3.201840    1.103827    0.057949
     31          1           0       -3.026015    1.011427    2.556074
     32          7           0       -1.999819   -0.522042   -1.679790
     33          8           0       -2.709398    0.358063   -2.162021
     34          8           0       -1.371601   -1.357923   -2.325764
 ---------------------------------------------------------------------

 SCF Done:  E(RHF) =  -669.534385116     A.U. after   15 cycles
 E2 =    -0.2095889653D+01 EUMP2 =    -0.67163027476892D+03

 The electronic state is 1-A.
 Alpha  occ. eigenvalues --  -20.60901 -20.60893 -15.85931 -11.31307 -11.27907
 Alpha  occ. eigenvalues --  -11.27888 -11.27660 -11.26930 -11.26915 -11.21613
 Alpha  occ. eigenvalues --  -11.21519 -11.21397 -11.21198 -11.21164 -11.20879
 Alpha  occ. eigenvalues --   -1.59959  -1.39513  -1.19530  -1.08906  -1.08382
 Alpha  occ. eigenvalues --   -1.04932  -1.03496  -0.95946  -0.95730  -0.86972
 Alpha  occ. eigenvalues --   -0.86314  -0.82557  -0.79559  -0.78201  -0.77597
 Alpha  occ. eigenvalues --   -0.72153  -0.71295  -0.70624  -0.65168  -0.65057
 Alpha  occ. eigenvalues --   -0.64901  -0.62276  -0.60932  -0.59319  -0.57556
 Alpha  occ. eigenvalues --   -0.55427  -0.55271  -0.53249  -0.53008  -0.52644
 Alpha  occ. eigenvalues --   -0.52365  -0.49918  -0.48916  -0.48911  -0.47860
 Alpha  occ. eigenvalues --   -0.46605  -0.45712  -0.45675  -0.44874  -0.43744
 Alpha  occ. eigenvalues --   -0.37418  -0.36453
 Alpha virt. eigenvalues --    0.04898   0.10960   0.16390   0.20924   0.22855
 Alpha virt. eigenvalues --    0.24128   0.25882   0.27024   0.27097   0.28337
 Alpha virt. eigenvalues --    0.28540   0.30711   0.31016   0.31718   0.31901

 Mulliken charges:
               1
     1  C   -0.297816
     2  C   -0.299002
     3  C   -0.475458
     4  H    0.149709
     5  H    0.144002
     6  H    0.156233
     7  H    0.149357
     8  H    0.150846
     9  H    0.155907
    10  H    0.161323
    11  C   -0.301650
    12  C   -0.298862
    13  C   -0.479339
    14  H    0.153502
    15  H    0.151770
    16  H    0.150897
    17  H    0.147871
    18  H    0.157307
    19  H    0.159644
    20  H    0.155253
    21  C   -0.171389
    22  C   -0.217036
    23  C   -0.174367
    24  C    0.163031
    25  C   -0.175852
    26  C   -0.215939
    27  H    0.226555
    28  H    0.224332
    29  H    0.276472
    30  H    0.277153
    31  H    0.224722
    32  N    0.490048
    33  O   -0.459646
    34  O   -0.459580
 Sum of Mulliken charges =  -0.00000

 Dipole moment (field-independent basis, Debye):
    X=              0.2608    Y=             -0.2478    Z=              5.1264  Tot=              5.1390
 Quadrupole moment (field-independent basis, Debye-Ang):
   XX=            -95.0733   YY=            -91.9336   ZZ=            -97.2093
   XY=             -1.6551   XZ=            -11.2241   YZ=             -2.9099

 Normal termination of Gaussian 16 at Thu May  6 13:52:17 2021.
