 Gaussian 16, Revision A.03,
 Gaussian 16:  EM64L-G16RevA.03 25-Dec-2016

 -------------
 #p 6-31g* mp2
 -------------

 ------------------------------------------------------
 Input file generated by CHIRIPA (05-May-2021 14:55:23)
 ------------------------------------------------------
 Symbolic Z-matrix:
 Charge =  0 Multiplicity = 1

                         Standard orientation:
 ---------------------------------------------------------------------
 Center     Atomic      Atomic             Coordinates (Angstroms)
 Number     Number       Type             X           Y           Z
 ---------------------------------------------------------------------
      1          6           0        0.387561   -1.369875    0.360790
      2          6           0        0.752715   -0.901476   -0.905616
      3          6           0        2.037832   -0.400631   -1.134035
      4          6           0        2.936624   -0.382864   -0.068602
      5          6           0        2.602800   -0.842373    1.204467
      6          6           0        1.312139   -1.338883    1.409940
      7          1           0       -0.612902   -1.757260    0.529320
      8          1           0        0.036746   -0.924332   -1.722263
      9          1           0        2.346983   -0.031686   -2.104460
     10          1           0        3.338333   -0.806811    1.998913
     11          1           0        1.031330   -1.701985    2.394495
     12          7           0        4.300055    0.145064   -0.298273
     13          8           0        5.073470    0.149928    0.656945
     14          8           0        4.569480    0.543992   -1.429159
     15          6           0       -3.692743   -0.124748    0.123191
     16          6           0       -5.070579   -0.411308   -0.474671
     17          6           0       -5.499791   -1.868268   -0.299059
     18          1           0       -2.951612   -0.785961   -0.346347
     19          1           0       -3.704765   -0.378101    1.192331
     20          1           0       -5.056363   -0.156186   -1.542064
     21          1           0       -5.808484    0.250797   -0.003793
     22          1           0       -5.542083   -2.132120    0.762634
     23          1           0       -4.785689   -2.541415   -0.784376
     24          1           0       -6.487515   -2.050985   -0.733655
     25          6           0       -3.249756    1.327623   -0.044472
     26          6           0       -1.871922    1.614183    0.553389
     27          6           0       -1.442709    3.071143    0.377778
     28          1           0       -3.237734    1.580976   -1.113614
     29          1           0       -3.990888    1.988837    0.425066
     30          1           0       -1.134016    0.952077    0.082511
     31          1           0       -1.886137    1.359061    1.620781
     32          1           0       -2.156810    3.744290    0.863095
     33          1           0       -1.400416    3.334995   -0.683917
     34          1           0       -0.454984    3.253860    0.812374
 ---------------------------------------------------------------------

 SCF Done:  E(RHF) =  -669.534117332     A.U. after   15 cycles
 E2 =    -0.2093716516D+01 EUMP2 =    -0.67162783384791D+03

 The electronic state is 1-A.
 Alpha  occ. eigenvalues --  -20.60779 -20.60774 -15.85835 -11.31206 -11.27804
 Alpha  occ. eigenvalues --  -11.27800 -11.27504 -11.26791 -11.26773 -11.22420
 Alpha  occ. eigenvalues --  -11.22360 -11.22069 -11.21989 -11.21836 -11.21426
 Alpha  occ. eigenvalues --   -1.59855  -1.39409  -1.19402  -1.09198  -1.08784
 Alpha  occ. eigenvalues --   -1.04810  -1.04164  -0.96636  -0.95622  -0.87644
 Alpha  occ. eigenvalues --   -0.86209  -0.82453  -0.80257  -0.79033  -0.77494
 Alpha  occ. eigenvalues --   -0.72054  -0.71180  -0.70502  -0.65857  -0.65044
 Alpha  occ. eigenvalues --   -0.64795  -0.62156  -0.61575  -0.60011  -0.58255
 Alpha  occ. eigenvalues --   -0.55955  -0.55289  -0.53353  -0.53167  -0.53003
 Alpha  occ. eigenvalues --   -0.52895  -0.50577  -0.48813  -0.48807  -0.48556
 Alpha  occ. eigenvalues --   -0.47306  -0.46537  -0.46475  -0.44813  -0.44456
 Alpha  occ. eigenvalues --   -0.37239  -0.36391
 Alpha virt. eigenvalues --    0.05035   0.11119   0.16483   0.19602   0.22750
 Alpha virt. eigenvalues --    0.23721   0.25204   0.26014   0.27271   0.27560
 Alpha virt. eigenvalues --    0.30212   0.30585   0.31060   0.31425   0.31625

 Mulliken charges:
               1
     1  C   -0.169782
     2  C   -0.222342
     3  C   -0.170486
     4  C    0.157864
     5  C   -0.170390
     6  C   -0.218913
     7  H    0.231935
     8  H    0.223596
     9  H    0.275818
    10  H    0.275814
    11  H    0.223853
    12  N    0.488132
    13  O   -0.460445
    14  O   -0.460435
    15  C   -0.299410
    16  C   -0.299670
    17  C   -0.476135
    18  H    0.137700
    19  H    0.149410
    20  H    0.153403
    21  H    0.155727
    22  H    0.155523
    23  H    0.152281
    24  H    0.163781
    25  C   -0.297973
    26  C   -0.309192
    27  C   -0.475276
    28  H    0.149401
    29  H    0.152577
    30  H    0.160514
    31  H    0.148685
    32  H    0.155680
    33  H    0.154978
    34  H    0.163777
 Sum of Mulliken charges =  -0.00000

 Dipole moment (field-independent basis, Debye):
    X=             -4.8561    Y=             -1.8167    Z=              0.8349  Tot=              5.2516
 Quadrupole moment (field-independent basis, Debye-Ang):
   XX=           -122.9484   YY=            -94.8428   ZZ=            -89.5448
   XY=             -4.5073   XZ=              3.6728   YZ=             -0.9693

 Normal termination of Gaussian 16 at Thu May  6 20:49:53 2021.
