 Gaussian 16, Revision A.03,
 Gaussian 16:  EM64L-G16RevA.03 25-Dec-2016

 -------------
 #p 6-31g* mp2
 -------------

 ------------------------------------------------------
 Input file generated by CHIRIPA (05-May-2021 14:53:18)
 ------------------------------------------------------
 Symbolic Z-matrix:
 Charge =  0 Multiplicity = 1

                         Standard orientation:
 ---------------------------------------------------------------------
 Center     Atomic      Atomic             Coordinates (Angstroms)
 Number     Number       Type             X           Y           Z
 ---------------------------------------------------------------------
      1          6           0        3.533122    0.715294   -0.494190
      2          6           0        3.011809    1.796502    0.453020
      3          6           0        1.963616    2.698530   -0.199230
      4          1           0        3.962186    1.193370   -1.385421
      5          1           0        2.688616    0.104880   -0.842899
      6          1           0        3.857227    2.403831    0.800923
      7          1           0        2.584110    1.315803    1.342187
      8          1           0        1.101859    2.110322   -0.530871
      9          1           0        2.382209    3.204532   -1.075211
     10          1           0        1.604611    3.464228    0.495524
     11          6           0        4.581699   -0.194463    0.143427
     12          6           0        5.103013   -1.275671   -0.803783
     13          6           0        6.151206   -2.177699   -0.151533
     14          1           0        5.426206    0.415952    0.492137
     15          1           0        4.152636   -0.672539    1.034659
     16          1           0        5.530712   -0.794972   -1.692950
     17          1           0        4.257595   -1.883000   -1.151685
     18          1           0        5.732612   -2.683701    0.724449
     19          1           0        7.012963   -1.589490    0.180109
     20          1           0        6.510211   -2.943397   -0.846286
     21          6           0       -0.853079    0.242744    1.031107
     22          6           0       -1.574402    1.269214    0.412581
     23          6           0       -2.858870    1.033383   -0.086492
     24          6           0       -3.393830   -0.246586    0.050579
     25          6           0       -2.700193   -1.289936    0.661790
     26          6           0       -1.417283   -1.031309    1.153521
     27          1           0        0.144122    0.434797    1.415946
     28          1           0       -1.138748    2.259640    0.316116
     29          1           0       -3.439386    1.809818   -0.569781
     30          1           0       -3.160954   -2.266914    0.743229
     31          1           0       -0.859408   -1.830389    1.633410
     32          7           0       -4.752814   -0.508316   -0.473881
     33          8           0       -5.201758   -1.644691   -0.340692
     34          8           0       -5.343308    0.427870   -1.008210
 ---------------------------------------------------------------------

 SCF Done:  E(RHF) =  -669.534894000     A.U. after   15 cycles
 E2 =    -0.2092532730D+01 EUMP2 =    -0.67162742672994D+03

 The electronic state is 1-A.
 Alpha  occ. eigenvalues --  -20.60754 -20.60749 -15.85807 -11.31178 -11.27749
 Alpha  occ. eigenvalues --  -11.27729 -11.27460 -11.26763 -11.26695 -11.22801
 Alpha  occ. eigenvalues --  -11.22316 -11.22278 -11.22253 -11.22168 -11.21623
 Alpha  occ. eigenvalues --   -1.59829  -1.39383  -1.19348  -1.09341  -1.08741
 Alpha  occ. eigenvalues --   -1.04754  -1.04440  -0.96890  -0.95573  -0.87917
 Alpha  occ. eigenvalues --   -0.86143  -0.82407  -0.80521  -0.79101  -0.77454
 Alpha  occ. eigenvalues --   -0.72026  -0.71152  -0.70490  -0.66008  -0.64998
 Alpha  occ. eigenvalues --   -0.64770  -0.62194  -0.61736  -0.60271  -0.58471
 Alpha  occ. eigenvalues --   -0.56176  -0.55230  -0.53608  -0.53333  -0.53047
 Alpha  occ. eigenvalues --   -0.52810  -0.50802  -0.48816  -0.48783  -0.48775
 Alpha  occ. eigenvalues --   -0.47551  -0.46647  -0.46554  -0.44787  -0.44678
 Alpha  occ. eigenvalues --   -0.37312  -0.36344
 Alpha virt. eigenvalues --    0.05061   0.11159   0.16506   0.19153   0.22614
 Alpha virt. eigenvalues --    0.23881   0.25178   0.26020   0.26595   0.28210
 Alpha virt. eigenvalues --    0.29084   0.29842   0.30983   0.31088   0.32252

 Mulliken charges:
               1
     1  C   -0.300314
     2  C   -0.302221
     3  C   -0.486970
     4  H    0.153977
     5  H    0.150421
     6  H    0.158339
     7  H    0.143608
     8  H    0.156391
     9  H    0.163129
    10  H    0.159062
    11  C   -0.298240
    12  C   -0.300365
    13  C   -0.476066
    14  H    0.151800
    15  H    0.146507
    16  H    0.154046
    17  H    0.152460
    18  H    0.154660
    19  H    0.156330
    20  H    0.162613
    21  C   -0.175790
    22  C   -0.223145
    23  C   -0.171766
    24  C    0.158382
    25  C   -0.170758
    26  C   -0.220185
    27  H    0.233273
    28  H    0.228902
    29  H    0.275811
    30  H    0.275516
    31  H    0.223366
    32  N    0.488030
    33  O   -0.460493
    34  O   -0.460309
 Sum of Mulliken charges =  -0.00000

 Dipole moment (field-independent basis, Debye):
    X=              4.9951    Y=              0.9376    Z=              1.7543  Tot=              5.3766
 Quadrupole moment (field-independent basis, Debye-Ang):
   XX=           -127.0622   YY=            -90.7136   ZZ=            -94.8926
   XY=             -3.5965   XZ=             -6.7256   YZ=             -2.1822

 Normal termination of Gaussian 16 at Thu May  6 02:51:33 2021.
