 Gaussian 16, Revision A.03,
 Gaussian 16:  EM64L-G16RevA.03 25-Dec-2016

 -------------
 #p 6-31g* mp2
 -------------

 ------------------------------------------------------
 Input file generated by CHIRIPA (05-May-2021 14:53:12)
 ------------------------------------------------------
 Symbolic Z-matrix:
 Charge =  0 Multiplicity = 1

                         Standard orientation:
 ---------------------------------------------------------------------
 Center     Atomic      Atomic             Coordinates (Angstroms)
 Number     Number       Type             X           Y           Z
 ---------------------------------------------------------------------
      1          6           0       -3.052142    0.889794   -0.474267
      2          6           0       -1.896712    1.707781    0.103542
      3          6           0       -1.487231    2.871998   -0.799075
      4          1           0       -2.763045    0.505664   -1.462099
      5          1           0       -3.915033    1.550564   -0.636127
      6          1           0       -1.036710    1.045388    0.265557
      7          1           0       -2.188522    2.089849    1.090197
      8          1           0       -2.328589    3.555743   -0.951423
      9          1           0       -1.170233    2.505348   -1.780748
     10          1           0       -0.659764    3.443286   -0.366887
     11          6           0       -3.472904   -0.277644    0.416674
     12          6           0       -4.628335   -1.095631   -0.161136
     13          6           0       -5.037815   -2.259848    0.741482
     14          1           0       -2.610014   -0.938414    0.578533
     15          1           0       -3.762002    0.106486    1.404505
     16          1           0       -4.336524   -1.477699   -1.147790
     17          1           0       -5.488337   -0.433238   -0.323151
     18          1           0       -5.354814   -1.893198    1.723154
     19          1           0       -4.196457   -2.943593    0.893830
     20          1           0       -5.865283   -2.831136    0.309293
     21          6           0        2.267083    2.174438    0.701663
     22          6           0        2.722761    1.234187    1.631613
     23          6           0        2.882623   -0.105812    1.266380
     24          6           0        2.576086   -0.472455   -0.043162
     25          6           0        2.120129    0.440823   -0.992538
     26          6           0        1.967749    1.775458   -0.605141
     27          1           0        2.145805    3.213298    0.993995
     28          1           0        2.955995    1.541184    2.647191
     29          1           0        3.233669   -0.854474    1.966158
     30          1           0        1.895722    0.104709   -1.997569
     31          1           0        1.613683    2.503495   -1.329465
     32          7           0        2.741365   -1.888212   -0.441550
     33          8           0        2.464474   -2.185826   -1.601462
     34          8           0        3.144670   -2.673463    0.413648
 ---------------------------------------------------------------------

 SCF Done:  E(RHF) =  -669.535082301     A.U. after   15 cycles
 E2 =    -0.2092820661D+01 EUMP2 =    -0.67162790296155D+03

 The electronic state is 1-A.
 Alpha  occ. eigenvalues --  -20.60815 -20.60810 -15.85868 -11.31243 -11.27787
 Alpha  occ. eigenvalues --  -11.27783 -11.27526 -11.26818 -11.26775 -11.21954
 Alpha  occ. eigenvalues --  -11.21800 -11.21635 -11.21623 -11.21479 -11.21034
 Alpha  occ. eigenvalues --   -1.59891  -1.39444  -1.19408  -1.08809  -1.08632
 Alpha  occ. eigenvalues --   -1.04811  -1.03779  -0.96265  -0.95633  -0.87295
 Alpha  occ. eigenvalues --   -0.86191  -0.82463  -0.79849  -0.78419  -0.77511
 Alpha  occ. eigenvalues --   -0.72085  -0.71215  -0.70510  -0.65289  -0.65057
 Alpha  occ. eigenvalues --   -0.64808  -0.62184  -0.61167  -0.59665  -0.57861
 Alpha  occ. eigenvalues --   -0.55586  -0.55285  -0.53189  -0.53029  -0.52761
 Alpha  occ. eigenvalues --   -0.52658  -0.50182  -0.48842  -0.48840  -0.48163
 Alpha  occ. eigenvalues --   -0.46849  -0.45973  -0.45862  -0.44847  -0.44033
 Alpha  occ. eigenvalues --   -0.37363  -0.36371
 Alpha virt. eigenvalues --    0.04993   0.11195   0.16455   0.20483   0.22864
 Alpha virt. eigenvalues --    0.24217   0.26203   0.26537   0.26877   0.27785
 Alpha virt. eigenvalues --    0.28909   0.30319   0.31266   0.31572   0.32150

 Mulliken charges:
               1
     1  C   -0.298643
     2  C   -0.302865
     3  C   -0.474319
     4  H    0.150476
     5  H    0.149193
     6  H    0.158846
     7  H    0.150953
     8  H    0.158042
     9  H    0.151144
    10  H    0.149467
    11  C   -0.298881
    12  C   -0.300001
    13  C   -0.476213
    14  H    0.152278
    15  H    0.148817
    16  H    0.153705
    17  H    0.151102
    18  H    0.154289
    19  H    0.157724
    20  H    0.160883
    21  C   -0.171651
    22  C   -0.218120
    23  C   -0.171458
    24  C    0.158632
    25  C   -0.174375
    26  C   -0.213836
    27  H    0.225673
    28  H    0.223744
    29  H    0.275705
    30  H    0.275402
    31  H    0.226946
    32  N    0.488001
    33  O   -0.460486
    34  O   -0.460175
 Sum of Mulliken charges =  -0.00000

 Dipole moment (field-independent basis, Debye):
    X=             -0.5959    Y=              4.9132    Z=              1.4289  Tot=              5.1514
 Quadrupole moment (field-independent basis, Debye-Ang):
   XX=            -97.6366   YY=           -100.4895   ZZ=            -90.8042
   XY=             12.3014   XZ=              5.2831   YZ=             -1.2246

 Normal termination of Gaussian 16 at Thu May  6 10:25:13 2021.
