 Gaussian 16, Revision A.03,
 Gaussian 16:  EM64L-G16RevA.03 25-Dec-2016

 -------------
 #p 6-31g* mp2
 -------------

 ------------------------------------------------------
 Input file generated by CHIRIPA (05-May-2021 14:51:07)
 ------------------------------------------------------
 Symbolic Z-matrix:
 Charge =  0 Multiplicity = 1

                         Standard orientation:
 ---------------------------------------------------------------------
 Center     Atomic      Atomic             Coordinates (Angstroms)
 Number     Number       Type             X           Y           Z
 ---------------------------------------------------------------------
      1          6           0       -4.577643    0.000244    0.040638
      2          6           0       -5.124652   -1.381457   -0.319457
      3          6           0       -6.480993   -1.315544   -1.022159
      4          1           0       -5.301408    0.517539    0.685242
      5          1           0       -4.488583    0.601618   -0.874684
      6          1           0       -5.211350   -1.980514    0.596091
      7          1           0       -4.399415   -1.895598   -0.963124
      8          1           0       -6.406181   -0.740630   -1.950856
      9          1           0       -7.222729   -0.826029   -0.382781
     10          1           0       -6.853435   -2.314282   -1.270494
     11          6           0       -3.222297   -0.049150    0.743721
     12          6           0       -2.675288    1.332551    1.103816
     13          6           0       -1.318947    1.266639    1.806517
     14          1           0       -3.311357   -0.650524    1.659042
     15          1           0       -2.498532   -0.566445    0.099116
     16          1           0       -3.400525    1.846692    1.747482
     17          1           0       -2.588591    1.931609    0.188267
     18          1           0       -0.577211    0.777123    1.167140
     19          1           0       -1.393759    0.691724    2.735214
     20          1           0       -0.946506    2.265376    2.054852
     21          6           0        3.146967    0.151502   -0.408801
     22          6           0        2.740144    1.258500   -1.381959
     23          6           0        1.230668    1.500973   -1.403941
     24          1           0        2.628859   -0.777652   -0.682993
     25          1           0        2.802312    0.415373    0.600644
     26          1           0        3.086674    0.993274   -2.389029
     27          1           0        3.259428    2.185078   -1.105534
     28          1           0        0.872431    1.790089   -0.410624
     29          1           0        0.698694    0.591514   -1.701412
     30          1           0        0.961989    2.296243   -2.106235
     31          6           0        4.652973   -0.102597   -0.375557
     32          6           0        5.059797   -1.209593    0.597601
     33          6           0        6.569273   -1.452067    0.619583
     34          1           0        4.997628   -0.366467   -1.385003
     35          1           0        5.171082    0.826558   -0.101364
     36          1           0        4.540512   -2.136172    0.321176
     37          1           0        4.713266   -0.944368    1.604671
     38          1           0        7.101246   -0.542608    0.917053
     39          1           0        6.927511   -1.741184   -0.373734
     40          1           0        6.837951   -2.247337    1.321877
 ---------------------------------------------------------------------

 SCF Done:  E(RHF) =  -470.733137238     A.U. after   11 cycles
 E2 =    -0.1582575754D+01 EUMP2 =    -0.47231571299189D+03

 The electronic state is 1-A.
 Alpha  occ. eigenvalues --  -11.21608 -11.21597 -11.21581 -11.21555 -11.21410
 Alpha  occ. eigenvalues --  -11.21371 -11.21350 -11.21311 -11.21067 -11.21056
 Alpha  occ. eigenvalues --  -11.21054 -11.21004  -1.08436  -1.08394  -1.03548
 Alpha  occ. eigenvalues --   -1.03483  -0.96017  -0.95919  -0.87048  -0.86926
 Alpha  occ. eigenvalues --   -0.79640  -0.79522  -0.78255  -0.78200  -0.65083
 Alpha  occ. eigenvalues --   -0.65011  -0.61035  -0.60817  -0.59354  -0.59317
 Alpha  occ. eigenvalues --   -0.57636  -0.57532  -0.55445  -0.55086  -0.52676
 Alpha  occ. eigenvalues --   -0.52658  -0.52475  -0.52300  -0.50094  -0.49726
 Alpha  occ. eigenvalues --   -0.48004  -0.47778  -0.46707  -0.46488  -0.45833
 Alpha  occ. eigenvalues --   -0.45732  -0.45698  -0.45599  -0.43788  -0.43754
 Alpha virt. eigenvalues --    0.21716   0.23017   0.23593   0.24885   0.26336
 Alpha virt. eigenvalues --    0.26450   0.27208   0.27594   0.27862   0.29127
 Alpha virt. eigenvalues --    0.31112   0.31364   0.31682   0.31843   0.32112

 Mulliken charges:
               1
     1  C   -0.298358
     2  C   -0.299607
     3  C   -0.475689
     4  H    0.149540
     5  H    0.149695
     6  H    0.151856
     7  H    0.151826
     8  H    0.155187
     9  H    0.155149
    10  H    0.160147
    11  C   -0.298481
    12  C   -0.299678
    13  C   -0.480799
    14  H    0.149312
    15  H    0.150000
    16  H    0.151687
    17  H    0.152940
    18  H    0.161069
    19  H    0.154804
    20  H    0.158894
    21  C   -0.299149
    22  C   -0.299272
    23  C   -0.482017
    24  H    0.149305
    25  H    0.150389
    26  H    0.151784
    27  H    0.152024
    28  H    0.163327
    29  H    0.153777
    30  H    0.160035
    31  C   -0.298238
    32  C   -0.299708
    33  C   -0.475722
    34  H    0.149535
    35  H    0.149729
    36  H    0.151914
    37  H    0.152181
    38  H    0.155194
    39  H    0.155134
    40  H    0.160283
 Sum of Mulliken charges =  -0.00000

 Dipole moment (field-independent basis, Debye):
    X=              0.0148    Y=              0.0078    Z=              0.0009  Tot=              0.0168
 Quadrupole moment (field-independent basis, Debye-Ang):
   XX=            -86.7028   YY=            -84.4079   ZZ=            -83.7615
   XY=              0.3047   XZ=             -0.9445   YZ=              0.4475

 Normal termination of Gaussian 16 at Thu May  6 13:11:12 2021.
