 Gaussian 16, Revision A.03,
 Gaussian 16:  EM64L-G16RevA.03 25-Dec-2016

 -------------
 #p 6-31g* mp2
 -------------

 ------------------------------------------------------
 Input file generated by CHIRIPA (05-May-2021 14:53:12)
 ------------------------------------------------------
 Symbolic Z-matrix:
 Charge =  0 Multiplicity = 1

                         Standard orientation:
 ---------------------------------------------------------------------
 Center     Atomic      Atomic             Coordinates (Angstroms)
 Number     Number       Type             X           Y           Z
 ---------------------------------------------------------------------
      1          6           0       -3.335075   -0.872421   -0.056761
      2          6           0       -2.127344   -0.629039   -0.962375
      3          6           0       -0.932624   -1.513737   -0.604957
      4          1           0       -3.044210   -0.693902    0.987496
      5          1           0       -3.627476   -1.929516   -0.123441
      6          1           0       -1.838165    0.427588   -0.895067
      7          1           0       -2.421168   -0.807972   -2.004616
      8          1           0       -1.198033   -2.572446   -0.690368
      9          1           0       -0.611718   -1.329865    0.425485
     10          1           0       -0.080431   -1.323316   -1.264781
     11          6           0       -4.537408    0.004609   -0.401640
     12          6           0       -5.745139   -0.238772    0.503974
     13          6           0       -6.939859    0.645926    0.146556
     14          1           0       -4.245007    1.061704   -0.334960
     15          1           0       -4.828273   -0.173909   -1.445897
     16          1           0       -5.451315   -0.059840    1.546215
     17          1           0       -6.034318   -1.295400    0.436666
     18          1           0       -7.260765    0.462054   -0.883886
     19          1           0       -6.674450    1.704634    0.231967
     20          1           0       -7.792052    0.455505    0.806380
     21          6           0        5.176006   -1.004747   -0.204169
     22          6           0        4.886467    0.090815   -1.024189
     23          6           0        3.725342    0.842520   -0.821026
     24          6           0        2.872090    0.468896    0.216113
     25          6           0        3.132910   -0.617317    1.050020
     26          6           0        4.299847   -1.354699    0.828498
     27          1           0        6.080253   -1.583126   -0.369123
     28          1           0        5.565082    0.364901   -1.826937
     29          1           0        3.476790    1.695364   -1.440943
     30          1           0        2.437247   -0.866217    1.842182
     31          1           0        4.522149   -2.205035    1.466899
     32          7           0        1.639781    1.257111    0.440911
     33          8           0        0.904262    0.907412    1.361432
     34          8           0        1.432753    2.209689   -0.307670
 ---------------------------------------------------------------------

 SCF Done:  E(RHF) =  -669.536409995     A.U. after   15 cycles
 E2 =    -0.2091739383D+01 EUMP2 =    -0.67162814937711D+03

 The electronic state is 1-A.
 Alpha  occ. eigenvalues --  -20.60929 -20.60923 -15.85950 -11.31255 -11.27818
 Alpha  occ. eigenvalues --  -11.27813 -11.27553 -11.26822 -11.26810 -11.20957
 Alpha  occ. eigenvalues --  -11.20635 -11.20610 -11.20510 -11.20501 -11.20242
 Alpha  occ. eigenvalues --   -1.59980  -1.39539  -1.19421  -1.08829  -1.07625
 Alpha  occ. eigenvalues --   -1.04815  -1.02758  -0.95677  -0.95238  -0.86269
 Alpha  occ. eigenvalues --   -0.86215  -0.82512  -0.78837  -0.77570  -0.77424
 Alpha  occ. eigenvalues --   -0.72182  -0.71295  -0.70533  -0.65080  -0.64821
 Alpha  occ. eigenvalues --   -0.64234  -0.62165  -0.60127  -0.58623  -0.56853
 Alpha  occ. eigenvalues --   -0.55324  -0.54509  -0.53148  -0.52910  -0.51968
 Alpha  occ. eigenvalues --   -0.51672  -0.49211  -0.48934  -0.48910  -0.47165
 Alpha  occ. eigenvalues --   -0.45886  -0.45054  -0.44923  -0.44706  -0.43031
 Alpha  occ. eigenvalues --   -0.37394  -0.36412
 Alpha virt. eigenvalues --    0.04929   0.11226   0.16403   0.21313   0.23670
 Alpha virt. eigenvalues --    0.24913   0.27065   0.27487   0.28034   0.28316
 Alpha virt. eigenvalues --    0.28749   0.30822   0.31762   0.32237   0.32564

 Mulliken charges:
               1
     1  C   -0.298781
     2  C   -0.299805
     3  C   -0.482598
     4  H    0.154716
     5  H    0.144447
     6  H    0.165740
     7  H    0.146426
     8  H    0.148181
     9  H    0.168086
    10  H    0.151417
    11  C   -0.298667
    12  C   -0.299286
    13  C   -0.475419
    14  H    0.153697
    15  H    0.146918
    16  H    0.152722
    17  H    0.149470
    18  H    0.153728
    19  H    0.156089
    20  H    0.158179
    21  C   -0.170505
    22  C   -0.218622
    23  C   -0.171196
    24  C    0.159004
    25  C   -0.169732
    26  C   -0.218600
    27  H    0.225874
    28  H    0.223658
    29  H    0.275688
    30  H    0.275610
    31  H    0.223804
    32  N    0.489674
    33  O   -0.460142
    34  O   -0.459774
 Sum of Mulliken charges =  -0.00000

 Dipole moment (field-independent basis, Debye):
    X=              4.5190    Y=             -2.6225    Z=             -0.6879  Tot=              5.2699
 Quadrupole moment (field-independent basis, Debye-Ang):
   XX=            -71.4693   YY=            -96.1632   ZZ=            -92.2706
   XY=             -4.8822   XZ=             -2.5653   YZ=             -3.3266

 Normal termination of Gaussian 16 at Wed May  5 18:31:00 2021.
