 Gaussian 16, Revision A.03,
 Gaussian 16:  EM64L-G16RevA.03 25-Dec-2016

 -------------
 #p 6-31g* mp2
 -------------

 ------------------------------------------------------
 Input file generated by CHIRIPA (05-May-2021 14:55:19)
 ------------------------------------------------------
 Symbolic Z-matrix:
 Charge =  0 Multiplicity = 1

                         Standard orientation:
 ---------------------------------------------------------------------
 Center     Atomic      Atomic             Coordinates (Angstroms)
 Number     Number       Type             X           Y           Z
 ---------------------------------------------------------------------
      1          6           0        1.670523    2.237965    0.158522
      2          6           0        2.985044    2.353932   -0.305275
      3          6           0        3.769542    1.214625   -0.507983
      4          6           0        3.205078   -0.030545   -0.235546
      5          6           0        1.898571   -0.178764    0.227444
      6          6           0        1.132431    0.974215    0.422936
      7          1           0        1.068237    3.128316    0.313187
      8          1           0        3.405555    3.334088   -0.511454
      9          1           0        4.790008    1.275569   -0.866247
     10          1           0        1.507012   -1.169412    0.424208
     11          1           0        0.111851    0.881132    0.783210
     12          7           0        4.025874   -1.243916   -0.446324
     13          8           0        3.505256   -2.329447   -0.198906
     14          8           0        5.174290   -1.086449   -0.854958
     15          6           0       -4.204224   -0.476064   -0.406815
     16          6           0       -5.402917    0.322555   -0.919969
     17          6           0       -5.941591   -0.208057   -2.248907
     18          1           0       -3.406797   -0.454418   -1.162186
     19          1           0       -4.496460   -1.528944   -0.290894
     20          1           0       -5.108899    1.373870   -1.033570
     21          1           0       -6.197511    0.299165   -0.163207
     22          1           0       -6.261812   -1.249949   -2.146333
     23          1           0       -5.167015   -0.169137   -3.021642
     24          1           0       -6.798151    0.377387   -2.597359
     25          6           0       -3.654467    0.042316    0.920882
     26          6           0       -2.455774   -0.756302    1.434037
     27          6           0       -1.917100   -0.225690    2.762974
     28          1           0       -3.362231    1.095196    0.804961
     29          1           0       -4.451894    0.020669    1.676254
     30          1           0       -1.661180   -0.732912    0.677274
     31          1           0       -2.749792   -1.807617    1.547638
     32          1           0       -2.691676   -0.264611    3.535709
     33          1           0       -1.596879    0.816201    2.660400
     34          1           0       -1.060540   -0.811135    3.111427
 ---------------------------------------------------------------------

 SCF Done:  E(RHF) =  -669.535147892     A.U. after   15 cycles
 E2 =    -0.2091870114D+01 EUMP2 =    -0.67162701800652D+03

 The electronic state is 1-A.
 Alpha  occ. eigenvalues --  -20.60732 -20.60727 -15.85784 -11.31145 -11.27713
 Alpha  occ. eigenvalues --  -11.27698 -11.27448 -11.26733 -11.26660 -11.22610
 Alpha  occ. eigenvalues --  -11.22213 -11.22117 -11.22105 -11.21985 -11.21466
 Alpha  occ. eigenvalues --   -1.59807  -1.39361  -1.19313  -1.09189  -1.08710
 Alpha  occ. eigenvalues --   -1.04724  -1.04279  -0.96717  -0.95547  -0.87725
 Alpha  occ. eigenvalues --   -0.86115  -0.82383  -0.80355  -0.78955  -0.77432
 Alpha  occ. eigenvalues --   -0.72003  -0.71130  -0.70428  -0.65945  -0.64964
 Alpha  occ. eigenvalues --   -0.64700  -0.62295  -0.61433  -0.60085  -0.58306
 Alpha  occ. eigenvalues --   -0.56035  -0.55197  -0.53403  -0.53130  -0.53044
 Alpha  occ. eigenvalues --   -0.52755  -0.50670  -0.48771  -0.48758  -0.48633
 Alpha  occ. eigenvalues --   -0.47423  -0.46491  -0.46410  -0.44768  -0.44510
 Alpha  occ. eigenvalues --   -0.37297  -0.36311
 Alpha virt. eigenvalues --    0.05097   0.11317   0.16556   0.19102   0.22740
 Alpha virt. eigenvalues --    0.23789   0.25596   0.25890   0.27087   0.28097
 Alpha virt. eigenvalues --    0.29158   0.30055   0.30996   0.31139   0.32050

 Mulliken charges:
               1
     1  C   -0.172812
     2  C   -0.218332
     3  C   -0.171288
     4  C    0.158941
     5  C   -0.174911
     6  C   -0.226301
     7  H    0.225387
     8  H    0.223158
     9  H    0.275426
    10  H    0.275706
    11  H    0.237794
    12  N    0.488126
    13  O   -0.460457
    14  O   -0.460664
    15  C   -0.299119
    16  C   -0.300023
    17  C   -0.476203
    18  H    0.150261
    19  H    0.152534
    20  H    0.150934
    21  H    0.153072
    22  H    0.156763
    23  H    0.156060
    24  H    0.161561
    25  C   -0.297843
    26  C   -0.307272
    27  C   -0.480715
    28  H    0.145133
    29  H    0.153573
    30  H    0.145440
    31  H    0.160296
    32  H    0.163048
    33  H    0.148036
    34  H    0.164693
 Sum of Mulliken charges =  -0.00000

 Dipole moment (field-independent basis, Debye):
    X=             -3.1179    Y=              4.1950    Z=              0.7820  Tot=              5.2850
 Quadrupole moment (field-independent basis, Debye-Ang):
   XX=           -109.6840   YY=            -93.4596   ZZ=            -95.7997
   XY=             16.9524   XZ=              0.8155   YZ=             -2.7505

 Normal termination of Gaussian 16 at Wed May  5 23:43:40 2021.
