 Gaussian 16, Revision A.03,
 Gaussian 16:  EM64L-G16RevA.03 25-Dec-2016

 -------------
 #p 6-31g* mp2
 -------------

 ------------------------------------------------------
 Input file generated by CHIRIPA (05-May-2021 14:57:21)
 ------------------------------------------------------
 Symbolic Z-matrix:
 Charge =  0 Multiplicity = 1

                         Standard orientation:
 ---------------------------------------------------------------------
 Center     Atomic      Atomic             Coordinates (Angstroms)
 Number     Number       Type             X           Y           Z
 ---------------------------------------------------------------------
      1          6           0        0.413263    2.159277    0.090338
      2          6           0        0.691225    1.495627    1.289849
      3          6           0        1.775668    0.617996    1.380934
      4          6           0        2.564876    0.426640    0.247875
      5          6           0        2.313658    1.073112   -0.961362
      6          6           0        1.223937    1.946277   -1.029465
      7          1           0       -0.431209    2.839308    0.028508
      8          1           0        0.063355    1.659117    2.161110
      9          1           0        2.013555    0.091215    2.297083
     10          1           0        2.957567    0.889807   -1.812948
     11          1           0        1.010447    2.460313   -1.962328
     12          7           0        3.715721   -0.500104    0.332137
     13          8           0        4.395803   -0.651525   -0.680383
     14          8           0        3.915879   -1.057519    1.409107
     15          6           0       -4.327395    0.755796    0.644749
     16          6           0       -3.990931   -0.465447    1.237943
     17          6           0       -2.911284   -1.213679    0.759341
     18          6           0       -2.186472   -0.708459   -0.318941
     19          6           0       -2.496918    0.504810   -0.931224
     20          6           0       -3.580631    1.236180   -0.436036
     21          1           0       -5.167671    1.330490    1.022981
     22          1           0       -4.569101   -0.840980    2.077430
     23          1           0       -2.628937   -2.162199    1.199803
     24          1           0       -1.901849    0.853236   -1.766635
     25          1           0       -3.839641    2.184291   -0.898685
     26          7           0       -1.041345   -1.491653   -0.834393
     27          8           0       -0.418590   -1.024666   -1.785571
     28          8           0       -0.788233   -2.557676   -0.277470
 ---------------------------------------------------------------------

 SCF Done:  E(RHF) =  -868.336070919     A.U. after   16 cycles
 E2 =    -0.2604807849D+01 EUMP2 =    -0.87094087876756D+03

 The electronic state is 1-A.
 Alpha  occ. eigenvalues --  -20.61127 -20.61084 -20.60055 -20.60043 -15.86152
 Alpha  occ. eigenvalues --  -15.85113 -11.31701 -11.30571 -11.28360 -11.28291
 Alpha  occ. eigenvalues --  -11.28105 -11.27415 -11.27330 -11.27240 -11.27162
 Alpha  occ. eigenvalues --  -11.27082 -11.26326 -11.26268  -1.60166  -1.59115
 Alpha  occ. eigenvalues --   -1.39720  -1.38670  -1.19925  -1.18805  -1.09270
 Alpha  occ. eigenvalues --   -1.08216  -1.05370  -1.04235  -0.96078  -0.95019
 Alpha  occ. eigenvalues --   -0.86742  -0.85652  -0.82921  -0.81850  -0.77934
 Alpha  occ. eigenvalues --   -0.76846  -0.72390  -0.71508  -0.71349  -0.71037
 Alpha  occ. eigenvalues --   -0.70409  -0.69998  -0.65573  -0.65367  -0.64486
 Alpha  occ. eigenvalues --   -0.64293  -0.62711  -0.61593  -0.55846  -0.54874
 Alpha  occ. eigenvalues --   -0.53726  -0.53462  -0.52482  -0.52366  -0.49167
 Alpha  occ. eigenvalues --   -0.49113  -0.48112  -0.48081  -0.45073  -0.44056
 Alpha  occ. eigenvalues --   -0.38115  -0.37329  -0.36280  -0.35710
 Alpha virt. eigenvalues --    0.04589   0.05691   0.10677   0.11756   0.15932
 Alpha virt. eigenvalues --    0.17256   0.20433   0.21927   0.26292   0.27249
 Alpha virt. eigenvalues --    0.28035   0.29082   0.30088   0.31330   0.31979

 Mulliken charges:
               1
     1  C   -0.175173
     2  C   -0.222718
     3  C   -0.171775
     4  C    0.161431
     5  C   -0.155192
     6  C   -0.212279
     7  H    0.217022
     8  H    0.219412
     9  H    0.274726
    10  H    0.277238
    11  H    0.218651
    12  N    0.489541
    13  O   -0.459046
    14  O   -0.461947
    15  C   -0.171689
    16  C   -0.219917
    17  C   -0.172050
    18  C    0.162936
    19  C   -0.170075
    20  C   -0.224734
    21  H    0.226541
    22  H    0.225275
    23  H    0.278338
    24  H    0.272488
    25  H    0.221236
    26  N    0.488742
    27  O   -0.459644
    28  O   -0.457338
 Sum of Mulliken charges =  -0.00000

 Dipole moment (field-independent basis, Debye):
    X=             -7.9263    Y=              5.7240    Z=              1.3925  Tot=              9.8757
 Quadrupole moment (field-independent basis, Debye-Ang):
   XX=           -108.7648   YY=           -104.8054   ZZ=            -99.6631
   XY=              4.5259   XZ=             -6.8990   YZ=             -5.4582

 Normal termination of Gaussian 16 at Wed May  5 22:32:09 2021.
