 Gaussian 16, Revision A.03,
 Gaussian 16:  EM64L-G16RevA.03 25-Dec-2016

 -------------
 #p 6-31g* mp2
 -------------

 ------------------------------------------------------
 Input file generated by CHIRIPA (05-May-2021 14:55:20)
 ------------------------------------------------------
 Symbolic Z-matrix:
 Charge =  0 Multiplicity = 1

                         Standard orientation:
 ---------------------------------------------------------------------
 Center     Atomic      Atomic             Coordinates (Angstroms)
 Number     Number       Type             X           Y           Z
 ---------------------------------------------------------------------
      1          6           0       -1.296717    0.701830    2.072280
      2          6           0       -1.681402    1.534246    1.016050
      3          6           0       -2.512818    1.053793   -0.000051
      4          6           0       -2.942925   -0.270259    0.071948
      5          6           0       -2.576999   -1.124251    1.111219
      6          6           0       -1.744953   -0.622427    2.116416
      7          1           0       -0.650609    1.083359    2.857376
      8          1           0       -1.334820    2.563113    0.979182
      9          1           0       -2.825932    1.676484   -0.829287
     10          1           0       -2.938550   -2.145334    1.120659
     11          1           0       -1.447806   -1.271171    2.935489
     12          7           0       -3.823441   -0.790206   -0.997981
     13          8           0       -4.188806   -1.960533   -0.911492
     14          8           0       -4.131552   -0.017568   -1.902820
     15          6           0        3.759079   -0.490319   -0.163227
     16          6           0        5.250353   -0.794087   -0.310911
     17          6           0        5.590543   -2.251604    0.001674
     18          1           0        3.442038   -0.730844    0.860773
     19          1           0        3.189399   -1.151976   -0.830363
     20          1           0        5.817143   -0.131103    0.355286
     21          1           0        5.563923   -0.552630   -1.334624
     22          1           0        5.050703   -2.925980   -0.670926
     23          1           0        5.305360   -2.502056    1.028585
     24          1           0        6.661654   -2.446737   -0.110149
     25          6           0        3.403303    0.962807   -0.472382
     26          6           0        1.912029    1.266575   -0.324698
     27          6           0        1.571840    2.724092   -0.637284
     28          1           0        3.972983    1.624464    0.194754
     29          1           0        3.720344    1.203331   -1.496383
     30          1           0        1.598459    1.025118    0.699014
     31          1           0        1.345240    0.603591   -0.990895
     32          1           0        1.857022    2.974545   -1.664195
     33          1           0        2.111680    3.398467    0.035317
     34          1           0        0.500728    2.919224   -0.525460
 ---------------------------------------------------------------------

 SCF Done:  E(RHF) =  -669.534857405     A.U. after   15 cycles
 E2 =    -0.2092700745D+01 EUMP2 =    -0.67162755815042D+03

 The electronic state is 1-A.
 Alpha  occ. eigenvalues --  -20.60784 -20.60779 -15.85838 -11.31216 -11.27780
 Alpha  occ. eigenvalues --  -11.27776 -11.27529 -11.26804 -11.26786 -11.22076
 Alpha  occ. eigenvalues --  -11.21911 -11.21807 -11.21735 -11.21731 -11.21342
 Alpha  occ. eigenvalues --   -1.59860  -1.39413  -1.19390  -1.08855  -1.08768
 Alpha  occ. eigenvalues --   -1.04802  -1.03954  -0.96426  -0.95616  -0.87447
 Alpha  occ. eigenvalues --   -0.86192  -0.82452  -0.80012  -0.78634  -0.77497
 Alpha  occ. eigenvalues --   -0.72057  -0.71183  -0.70500  -0.65475  -0.65043
 Alpha  occ. eigenvalues --   -0.64837  -0.62195  -0.61351  -0.59798  -0.58039
 Alpha  occ. eigenvalues --   -0.55706  -0.55304  -0.53332  -0.53060  -0.52937
 Alpha  occ. eigenvalues --   -0.52602  -0.50354  -0.48817  -0.48810  -0.48322
 Alpha  occ. eigenvalues --   -0.47042  -0.46183  -0.46097  -0.44816  -0.44216
 Alpha  occ. eigenvalues --   -0.37329  -0.36365
 Alpha virt. eigenvalues --    0.05007   0.11204   0.16383   0.20372   0.22701
 Alpha virt. eigenvalues --    0.24079   0.25983   0.26310   0.26939   0.28132
 Alpha virt. eigenvalues --    0.28547   0.30032   0.31067   0.31687   0.32234

 Mulliken charges:
               1
     1  C   -0.170995
     2  C   -0.214158
     3  C   -0.172431
     4  C    0.158595
     5  C   -0.170737
     6  C   -0.218827
     7  H    0.225619
     8  H    0.225333
     9  H    0.275705
    10  H    0.275713
    11  H    0.223551
    12  N    0.488037
    13  O   -0.460373
    14  O   -0.460319
    15  C   -0.297949
    16  C   -0.299915
    17  C   -0.475855
    18  H    0.146628
    19  H    0.152001
    20  H    0.151437
    21  H    0.153385
    22  H    0.156555
    23  H    0.153986
    24  H    0.161283
    25  C   -0.299246
    26  C   -0.298114
    27  C   -0.478020
    28  H    0.148230
    29  H    0.151735
    30  H    0.146790
    31  H    0.157004
    32  H    0.160134
    33  H    0.153760
    34  H    0.151457
 Sum of Mulliken charges =  -0.00000

 Dipole moment (field-independent basis, Debye):
    X=              3.1353    Y=              1.7645    Z=              3.7312  Tot=              5.1832
 Quadrupole moment (field-independent basis, Debye-Ang):
   XX=           -113.8698   YY=            -93.0969   ZZ=            -92.7064
   XY=             -5.7835   XZ=            -11.1540   YZ=             -2.8030

 Normal termination of Gaussian 16 at Wed May  5 18:56:18 2021.
