 Gaussian 16, Revision A.03,
 Gaussian 16:  EM64L-G16RevA.03 25-Dec-2016

 -------------
 #p 6-31g* mp2
 -------------

 ------------------------------------------------------
 Input file generated by CHIRIPA (05-May-2021 14:55:25)
 ------------------------------------------------------
 Symbolic Z-matrix:
 Charge =  0 Multiplicity = 1

                         Standard orientation:
 ---------------------------------------------------------------------
 Center     Atomic      Atomic             Coordinates (Angstroms)
 Number     Number       Type             X           Y           Z
 ---------------------------------------------------------------------
      1          6           0        3.074557    2.459674   -0.171909
      2          6           0        4.256323    1.970203   -0.737918
      3          6           0        4.558279    0.606271   -0.682591
      4          6           0        3.651892   -0.243709   -0.050700
      5          6           0        2.466331    0.213549    0.522580
      6          6           0        2.184901    1.581334    0.455428
      7          1           0        2.847962    3.520706   -0.219481
      8          1           0        4.949091    2.650009   -1.225751
      9          1           0        5.465982    0.200501   -1.112526
     10          1           0        1.795238   -0.488609    1.002190
     11          1           0        1.266373    1.958651    0.895863
     12          7           0        3.960695   -1.689682    0.014132
     13          8           0        3.145710   -2.417836    0.576474
     14          8           0        5.011872   -2.067501   -0.498622
     15          6           0       -5.350239    0.186445    0.125189
     16          6           0       -6.245586   -0.705487   -0.735505
     17          6           0       -7.725102   -0.333952   -0.631639
     18          1           0       -5.674168    0.118454    1.172754
     19          1           0       -5.488368    1.233721   -0.177350
     20          1           0       -6.104778   -1.750904   -0.432366
     21          1           0       -5.919367   -0.635513   -1.781115
     22          1           0       -7.886182    0.699973   -0.953594
     23          1           0       -8.072647   -0.421756    0.402819
     24          1           0       -8.347012   -0.984133   -1.254820
     25          6           0       -3.868316   -0.172634    0.031956
     26          6           0       -2.972968    0.719299    0.892649
     27          6           0       -1.493452    0.347763    0.788784
     28          1           0       -3.730187   -1.219910    0.334494
     29          1           0       -3.544386   -0.104642   -1.015609
     30          1           0       -3.299188    0.649324    1.938260
     31          1           0       -3.113777    1.764715    0.589510
     32          1           0       -1.145908    0.435567   -0.245674
     33          1           0       -1.332372   -0.686160    1.110738
     34          1           0       -0.871543    0.997944    1.411965
 ---------------------------------------------------------------------

 SCF Done:  E(RHF) =  -669.535395935     A.U. after   15 cycles
 E2 =    -0.2091288478D+01 EUMP2 =    -0.67162668441273D+03

 The electronic state is 1-A.
 Alpha  occ. eigenvalues --  -20.60693 -20.60688 -15.85745 -11.31088 -11.27666
 Alpha  occ. eigenvalues --  -11.27624 -11.27400 -11.26684 -11.26618 -11.22212
 Alpha  occ. eigenvalues --  -11.21948 -11.21820 -11.21782 -11.21674 -11.21251
 Alpha  occ. eigenvalues --   -1.59769  -1.39323  -1.19260  -1.08827  -1.08663
 Alpha  occ. eigenvalues --   -1.04661  -1.03976  -0.96452  -0.95499  -0.87485
 Alpha  occ. eigenvalues --   -0.86058  -0.82333  -0.80052  -0.78601  -0.77373
 Alpha  occ. eigenvalues --   -0.71964  -0.71092  -0.70372  -0.65451  -0.64913
 Alpha  occ. eigenvalues --   -0.64685  -0.62062  -0.61360  -0.59822  -0.58039
 Alpha  occ. eigenvalues --   -0.55719  -0.55176  -0.53271  -0.53028  -0.52881
 Alpha  occ. eigenvalues --   -0.52592  -0.50362  -0.48722  -0.48720  -0.48353
 Alpha  occ. eigenvalues --   -0.47049  -0.46153  -0.46051  -0.44733  -0.44227
 Alpha  occ. eigenvalues --   -0.37250  -0.36249
 Alpha virt. eigenvalues --    0.05139   0.11389   0.16603   0.20342   0.22611
 Alpha virt. eigenvalues --    0.23867   0.25758   0.26275   0.26862   0.27978
 Alpha virt. eigenvalues --    0.28979   0.29321   0.31090   0.31576   0.32247

 Mulliken charges:
               1
     1  C   -0.171727
     2  C   -0.218689
     3  C   -0.171144
     4  C    0.158413
     5  C   -0.173355
     6  C   -0.221283
     7  H    0.225265
     8  H    0.222900
     9  H    0.275178
    10  H    0.278333
    11  H    0.228008
    12  N    0.488177
    13  O   -0.460597
    14  O   -0.460893
    15  C   -0.298713
    16  C   -0.300118
    17  C   -0.475945
    18  H    0.150379
    19  H    0.149104
    20  H    0.153482
    21  H    0.152508
    22  H    0.154926
    23  H    0.155559
    24  H    0.161402
    25  C   -0.299627
    26  C   -0.299590
    27  C   -0.483254
    28  H    0.152786
    29  H    0.150876
    30  H    0.154318
    31  H    0.151254
    32  H    0.159548
    33  H    0.162413
    34  H    0.150106
 Sum of Mulliken charges =  -0.00000

 Dipole moment (field-independent basis, Debye):
    X=             -1.2949    Y=              5.0320    Z=             -0.2539  Tot=              5.2021
 Quadrupole moment (field-independent basis, Debye-Ang):
   XX=           -100.0199   YY=            -97.4252   ZZ=            -93.6281
   XY=             20.2078   XZ=             -3.3450   YZ=             -1.2631

 Normal termination of Gaussian 16 at Thu May  6 04:47:07 2021.
