 Gaussian 16, Revision A.03,
 Gaussian 16:  EM64L-G16RevA.03 25-Dec-2016

 -------------
 #p 6-31g* mp2
 -------------

 ------------------------------------------------------
 Input file generated by CHIRIPA (05-May-2021 14:57:27)
 ------------------------------------------------------
 Symbolic Z-matrix:
 Charge =  0 Multiplicity = 1

                         Standard orientation:
 ---------------------------------------------------------------------
 Center     Atomic      Atomic             Coordinates (Angstroms)
 Number     Number       Type             X           Y           Z
 ---------------------------------------------------------------------
      1          6           0       -1.188324   -1.670677    1.065855
      2          6           0       -1.434716   -1.711234   -0.310433
      3          6           0       -2.486312   -0.975937   -0.865439
      4          6           0       -3.275224   -0.207280   -0.010996
      5          6           0       -3.055003   -0.146258    1.364165
      6          6           0       -1.997827   -0.889695    1.897296
      7          1           0       -0.369252   -2.245035    1.488501
      8          1           0       -0.807674   -2.316881   -0.958550
      9          1           0       -2.699353   -0.989146   -1.927446
     10          1           0       -3.697236    0.466695    1.984846
     11          1           0       -1.808813   -0.856291    2.966502
     12          7           0       -4.391455    0.575455   -0.586977
     13          8           0       -5.071994    1.244864    0.187230
     14          8           0       -4.564682    0.504732   -1.801731
     15          6           0        2.205849    2.675797    0.245701
     16          6           0        3.580165    2.461905    0.097288
     17          6           0        4.081940    1.169928   -0.085922
     18          6           0        3.176853    0.110109   -0.115800
     19          6           0        1.802231    0.290944    0.029127
     20          6           0        1.322825    1.591546    0.211208
     21          1           0        1.824746    3.682786    0.387584
     22          1           0        4.268273    3.302058    0.123660
     23          1           0        5.141162    0.975864   -0.203413
     24          1           0        1.140955   -0.566489   -0.001537
     25          1           0        0.255017    1.754673    0.326196
     26          7           0        3.696220   -1.262214   -0.309159
     27          8           0        2.878014   -2.179092   -0.331789
     28          8           0        4.911670   -1.394978   -0.434421
 ---------------------------------------------------------------------

 SCF Done:  E(RHF) =  -868.338723812     A.U. after   16 cycles
 E2 =    -0.2601875474D+01 EUMP2 =    -0.87094059928616D+03

 The electronic state is 1-A.
 Alpha  occ. eigenvalues --  -20.61443 -20.61387 -20.61286 -20.61276 -15.86454
 Alpha  occ. eigenvalues --  -15.86339 -11.31795 -11.31580 -11.28368 -11.28315
 Alpha  occ. eigenvalues --  -11.28124 -11.28040 -11.27987 -11.27811 -11.27356
 Alpha  occ. eigenvalues --  -11.27248 -11.27098 -11.27048  -1.60482  -1.60361
 Alpha  occ. eigenvalues --   -1.40049  -1.39910  -1.19977  -1.19734  -1.09338
 Alpha  occ. eigenvalues --   -1.09173  -1.05358  -1.05093  -0.96170  -0.96026
 Alpha  occ. eigenvalues --   -0.86752  -0.86491  -0.82954  -0.82883  -0.78035
 Alpha  occ. eigenvalues --   -0.77945  -0.72689  -0.72544  -0.71796  -0.71695
 Alpha  occ. eigenvalues --   -0.71070  -0.70772  -0.65596  -0.65388  -0.65327
 Alpha  occ. eigenvalues --   -0.65035  -0.62687  -0.62452  -0.55769  -0.55626
 Alpha  occ. eigenvalues --   -0.53727  -0.53454  -0.53375  -0.53118  -0.49457
 Alpha  occ. eigenvalues --   -0.49398  -0.49311  -0.49301  -0.45503  -0.45294
 Alpha  occ. eigenvalues --   -0.37947  -0.37710  -0.37042  -0.36622
 Alpha virt. eigenvalues --    0.04322   0.04678   0.10499   0.10947   0.15881
 Alpha virt. eigenvalues --    0.16172   0.20635   0.21626   0.26493   0.27181
 Alpha virt. eigenvalues --    0.27669   0.28733   0.30796   0.30900   0.31746

 Mulliken charges:
               1
     1  C   -0.184548
     2  C   -0.231082
     3  C   -0.171642
     4  C    0.156282
     5  C   -0.174710
     6  C   -0.219604
     7  H    0.240530
     8  H    0.239160
     9  H    0.278916
    10  H    0.276862
    11  H    0.226864
    12  N    0.487835
    13  O   -0.459847
    14  O   -0.458106
    15  C   -0.170253
    16  C   -0.218972
    17  C   -0.170026
    18  C    0.158699
    19  C   -0.178618
    20  C   -0.224855
    21  H    0.228147
    22  H    0.224924
    23  H    0.275946
    24  H    0.278533
    25  H    0.228066
    26  N    0.488439
    27  O   -0.470591
    28  O   -0.456349
 Sum of Mulliken charges =  -0.00000

 Dipole moment (field-independent basis, Debye):
    X=              2.0081    Y=              2.0754    Z=              2.7115  Tot=              3.9613
 Quadrupole moment (field-independent basis, Debye-Ang):
   XX=           -137.9849   YY=           -102.0599   ZZ=           -101.5817
   XY=             25.4351   XZ=             -5.7660   YZ=              0.7622

 Normal termination of Gaussian 16 at Thu May  6 16:31:59 2021.
