 Gaussian 16, Revision A.03,
 Gaussian 16:  EM64L-G16RevA.03 25-Dec-2016

 -------------
 #p 6-31g* mp2
 -------------

 ------------------------------------------------------
 Input file generated by CHIRIPA (05-May-2021 14:53:18)
 ------------------------------------------------------
 Symbolic Z-matrix:
 Charge =  0 Multiplicity = 1

                         Standard orientation:
 ---------------------------------------------------------------------
 Center     Atomic      Atomic             Coordinates (Angstroms)
 Number     Number       Type             X           Y           Z
 ---------------------------------------------------------------------
      1          6           0       -3.764687   -0.011160   -0.564167
      2          6           0       -3.770029   -1.515662   -0.291350
      3          6           0       -4.451852   -2.315416   -1.401892
      4          1           0       -4.799649    0.336632   -0.685991
      5          1           0       -3.256409    0.179385   -1.519542
      6          1           0       -4.276928   -1.703193    0.663900
      7          1           0       -2.734946   -1.859878   -0.169971
      8          1           0       -3.942907   -2.157743   -2.358299
      9          1           0       -5.493650   -2.000168   -1.519690
     10          1           0       -4.444388   -3.388448   -1.186467
     11          6           0       -3.086518    0.801831    0.537132
     12          6           0       -3.081176    2.306334    0.264314
     13          6           0       -2.399353    3.106088    1.374856
     14          1           0       -3.594796    0.611287    1.492507
     15          1           0       -2.051557    0.454040    0.658956
     16          1           0       -4.116260    2.650549    0.142935
     17          1           0       -2.574278    2.493865   -0.690936
     18          1           0       -1.357555    2.790840    1.492654
     19          1           0       -2.908299    2.948415    2.331263
     20          1           0       -2.406817    4.179120    1.159431
     21          6           0        1.243488   -1.805472    1.450438
     22          6           0        2.609794   -1.674299    1.719736
     23          6           0        3.413267   -0.847861    0.928549
     24          6           0        2.814767   -0.164169   -0.128642
     25          6           0        1.456464   -0.274139   -0.422258
     26          6           0        0.672191   -1.106207    0.382184
     27          1           0        0.626787   -2.449656    2.070200
     28          1           0        3.056181   -2.216156    2.548697
     29          1           0        4.473647   -0.728028    1.114700
     30          1           0        1.040042    0.278684   -1.255563
     31          1           0       -0.388625   -1.206161    0.170702
     32          7           0        3.655205    0.713724   -0.973252
     33          8           0        3.103814    1.305359   -1.898764
     34          8           0        4.849417    0.793559   -0.693752
 ---------------------------------------------------------------------

 SCF Done:  E(RHF) =  -669.535139221     A.U. after   15 cycles
 E2 =    -0.2092264470D+01 EUMP2 =    -0.67162740369126D+03

 The electronic state is 1-A.
 Alpha  occ. eigenvalues --  -20.60776 -20.60771 -15.85830 -11.31202 -11.27780
 Alpha  occ. eigenvalues --  -11.27776 -11.27509 -11.26784 -11.26747 -11.22583
 Alpha  occ. eigenvalues --  -11.22185 -11.22132 -11.22078 -11.21797 -11.21419
 Alpha  occ. eigenvalues --   -1.59852  -1.39405  -1.19377  -1.09189  -1.08766
 Alpha  occ. eigenvalues --   -1.04783  -1.04194  -0.96618  -0.95601  -0.87632
 Alpha  occ. eigenvalues --   -0.86183  -0.82440  -0.80283  -0.79012  -0.77479
 Alpha  occ. eigenvalues --   -0.72048  -0.71175  -0.70479  -0.65959  -0.65026
 Alpha  occ. eigenvalues --   -0.64709  -0.62126  -0.61594  -0.59996  -0.58232
 Alpha  occ. eigenvalues --   -0.55908  -0.55273  -0.53306  -0.53131  -0.53022
 Alpha  occ. eigenvalues --   -0.52873  -0.50570  -0.48818  -0.48803  -0.48579
 Alpha  occ. eigenvalues --   -0.47338  -0.46491  -0.46420  -0.44809  -0.44464
 Alpha  occ. eigenvalues --   -0.37349  -0.36373
 Alpha virt. eigenvalues --    0.05043   0.11198   0.16435   0.19079   0.22954
 Alpha virt. eigenvalues --    0.23541   0.25000   0.26326   0.27278   0.28297
 Alpha virt. eigenvalues --    0.29574   0.30194   0.31246   0.31298   0.32094

 Mulliken charges:
               1
     1  C   -0.299663
     2  C   -0.303893
     3  C   -0.475592
     4  H    0.154506
     5  H    0.149969
     6  H    0.154769
     7  H    0.142735
     8  H    0.157194
     9  H    0.158838
    10  H    0.161438
    11  C   -0.303481
    12  C   -0.299986
    13  C   -0.476602
    14  H    0.151342
    15  H    0.144163
    16  H    0.154144
    17  H    0.153727
    18  H    0.156904
    19  H    0.154844
    20  H    0.163808
    21  C   -0.173783
    22  C   -0.218589
    23  C   -0.170764
    24  C    0.158958
    25  C   -0.174546
    26  C   -0.226661
    27  H    0.226352
    28  H    0.223574
    29  H    0.275736
    30  H    0.275754
    31  H    0.237594
    32  N    0.488089
    33  O   -0.460464
    34  O   -0.460414
 Sum of Mulliken charges =  -0.00000

 Dipole moment (field-independent basis, Debye):
    X=             -3.1126    Y=             -3.0268    Z=              2.9709  Tot=              5.2608
 Quadrupole moment (field-independent basis, Debye-Ang):
   XX=           -106.9885   YY=            -94.3734   ZZ=            -94.7171
   XY=             -9.8822   XZ=             10.8104   YZ=             -1.3332

 Normal termination of Gaussian 16 at Wed May  5 20:27:32 2021.
