 Gaussian 16, Revision A.03,
 Gaussian 16:  EM64L-G16RevA.03 25-Dec-2016

 -------------
 #p 6-31g* mp2
 -------------

 ------------------------------------------------------
 Input file generated by CHIRIPA (05-May-2021 14:53:11)
 ------------------------------------------------------
 Symbolic Z-matrix:
 Charge =  0 Multiplicity = 1

                         Standard orientation:
 ---------------------------------------------------------------------
 Center     Atomic      Atomic             Coordinates (Angstroms)
 Number     Number       Type             X           Y           Z
 ---------------------------------------------------------------------
      1          6           0        4.003705    0.828270   -0.253641
      2          6           0        2.731920    1.260295    0.477046
      3          6           0        2.151172    2.565324   -0.068321
      4          1           0        4.754021    1.626771   -0.173841
      5          1           0        3.782295    0.713218   -1.323750
      6          1           0        2.955332    1.373157    1.545673
      7          1           0        1.984612    0.460593    0.395661
      8          1           0        1.900452    2.461845   -1.128997
      9          1           0        2.876688    3.379594    0.027549
     10          1           0        1.242536    2.855594    0.468318
     11          6           0        4.596161   -0.474699    0.280209
     12          6           0        5.867947   -0.906724   -0.450477
     13          6           0        6.448694   -2.211753    0.094890
     14          1           0        4.817572   -0.359647    1.350319
     15          1           0        3.845846   -1.273200    0.200409
     16          1           0        6.615255   -0.107022   -0.369093
     17          1           0        5.644534   -1.019586   -1.519105
     18          1           0        5.723178   -3.026023   -0.000981
     19          1           0        6.699414   -2.108275    1.155565
     20          1           0        7.357331   -2.502023   -0.441750
     21          6           0       -2.168697    2.086368   -0.006499
     22          6           0       -3.565899    2.040323   -0.053707
     23          6           0       -4.236178    0.813430   -0.056314
     24          6           0       -3.474428   -0.353169   -0.010753
     25          6           0       -2.081284   -0.340113    0.036866
     26          6           0       -1.432147    0.898098    0.038558
     27          1           0       -1.656219    3.043844   -0.004828
     28          1           0       -4.140494    2.961548   -0.088761
     29          1           0       -5.316894    0.748822   -0.092347
     30          1           0       -1.535696   -1.275301    0.071155
     31          1           0       -0.346963    0.930822    0.075275
     32          7           0       -4.172831   -1.658016   -0.013029
     33          8           0       -3.478767   -2.671552    0.027662
     34          8           0       -5.401081   -1.642512   -0.055461
 ---------------------------------------------------------------------

 SCF Done:  E(RHF) =  -669.535179466     A.U. after   15 cycles
 E2 =    -0.2091823668D+01 EUMP2 =    -0.67162700313355D+03

 The electronic state is 1-A.
 Alpha  occ. eigenvalues --  -20.60710 -20.60705 -15.85762 -11.31110 -11.27676
 Alpha  occ. eigenvalues --  -11.27660 -11.27399 -11.26693 -11.26605 -11.22777
 Alpha  occ. eigenvalues --  -11.22394 -11.22213 -11.22073 -11.21982 -11.21417
 Alpha  occ. eigenvalues --   -1.59786  -1.39340  -1.19275  -1.09220  -1.08672
 Alpha  occ. eigenvalues --   -1.04683  -1.04344  -0.96796  -0.95512  -0.87812
 Alpha  occ. eigenvalues --   -0.86073  -0.82348  -0.80438  -0.78960  -0.77401
 Alpha  occ. eigenvalues --   -0.71982  -0.71109  -0.70391  -0.65908  -0.64927
 Alpha  occ. eigenvalues --   -0.64715  -0.62208  -0.61592  -0.60162  -0.58364
 Alpha  occ. eigenvalues --   -0.56061  -0.55169  -0.53526  -0.53226  -0.53004
 Alpha  occ. eigenvalues --   -0.52696  -0.50724  -0.48754  -0.48737  -0.48722
 Alpha  occ. eigenvalues --   -0.47462  -0.46508  -0.46389  -0.44750  -0.44581
 Alpha  occ. eigenvalues --   -0.37256  -0.36277
 Alpha virt. eigenvalues --    0.05133   0.11352   0.16633   0.19343   0.22568
 Alpha virt. eigenvalues --    0.23977   0.25067   0.26038   0.26494   0.27525
 Alpha virt. eigenvalues --    0.28895   0.30101   0.30756   0.31630   0.32172

 Mulliken charges:
               1
     1  C   -0.298389
     2  C   -0.305090
     3  C   -0.484355
     4  H    0.152571
     5  H    0.151305
     6  H    0.157783
     7  H    0.146584
     8  H    0.158246
     9  H    0.164238
    10  H    0.152537
    11  C   -0.299275
    12  C   -0.300383
    13  C   -0.476309
    14  H    0.151124
    15  H    0.150491
    16  H    0.152649
    17  H    0.152970
    18  H    0.156653
    19  H    0.155914
    20  H    0.161972
    21  C   -0.175400
    22  C   -0.218355
    23  C   -0.171501
    24  C    0.158942
    25  C   -0.174093
    26  C   -0.228794
    27  H    0.226565
    28  H    0.223060
    29  H    0.275249
    30  H    0.274940
    31  H    0.241528
    32  N    0.488044
    33  O   -0.460698
    34  O   -0.460724
 Sum of Mulliken charges =  -0.00000

 Dipole moment (field-independent basis, Debye):
    X=              2.7747    Y=              4.6076    Z=              0.0015  Tot=              5.3785
 Quadrupole moment (field-independent basis, Debye-Ang):
   XX=           -106.9700   YY=            -97.8478   ZZ=            -95.2656
   XY=            -18.5019   XZ=              0.3889   YZ=              0.4507

 Normal termination of Gaussian 16 at Thu May  6 04:05:46 2021.
