 Gaussian 16, Revision A.03,
 Gaussian 16:  EM64L-G16RevA.03 25-Dec-2016

 -------------
 #p 6-31g* mp2
 -------------

 ------------------------------------------------------
 Input file generated by CHIRIPA (05-May-2021 14:57:21)
 ------------------------------------------------------
 Symbolic Z-matrix:
 Charge =  0 Multiplicity = 1

                         Standard orientation:
 ---------------------------------------------------------------------
 Center     Atomic      Atomic             Coordinates (Angstroms)
 Number     Number       Type             X           Y           Z
 ---------------------------------------------------------------------
      1          6           0        5.366233    2.015034   -0.363016
      2          6           0        4.016241    2.065461   -0.725645
      3          6           0        3.178123    0.970195   -0.496514
      4          6           0        3.725721   -0.164580    0.099902
      5          6           0        5.066599   -0.245389    0.472471
      6          6           0        5.886186    0.861804    0.233832
      7          1           0        6.010105    2.870495   -0.544704
      8          1           0        3.609704    2.959760   -1.189329
      9          1           0        2.129340    0.982261   -0.767303
     10          1           0        5.443051   -1.150726    0.932978
     11          1           0        6.934224    0.819815    0.516497
     12          7           0        2.848252   -1.330401    0.347506
     13          8           0        3.355004   -2.318442    0.874398
     14          8           0        1.670355   -1.234057    0.009997
     15          6           0       -5.804164    1.290897    0.883196
     16          6           0       -4.728100    0.941721    1.705806
     17          6           0       -3.651251    0.211347    1.194438
     18          6           0       -3.683383   -0.155025   -0.150191
     19          6           0       -4.741033    0.177786   -0.995120
     20          6           0       -5.807190    0.908490   -0.462269
     21          1           0       -6.636533    1.858397    1.288783
     22          1           0       -4.723057    1.237351    2.751092
     23          1           0       -2.805441   -0.072280    1.808914
     24          1           0       -4.717684   -0.131169   -2.033108
     25          1           0       -6.641537    1.178269   -1.103461
     26          7           0       -2.549031   -0.928413   -0.702924
     27          8           0       -2.601298   -1.239152   -1.890926
     28          8           0       -1.629137   -1.209214    0.062310
 ---------------------------------------------------------------------

 SCF Done:  E(RHF) =  -868.334970697     A.U. after   16 cycles
 E2 =    -0.2600276997D+01 EUMP2 =    -0.87093524769370D+03

 The electronic state is 1-A.
 Alpha  occ. eigenvalues --  -20.59968 -20.59866 -20.59745 -20.59632 -15.84973
 Alpha  occ. eigenvalues --  -15.84738 -11.30678 -11.30475 -11.27300 -11.27268
 Alpha  occ. eigenvalues --  -11.27108 -11.27098 -11.27066 -11.26920 -11.26384
 Alpha  occ. eigenvalues --  -11.26367 -11.26201 -11.26185  -1.58998  -1.58776
 Alpha  occ. eigenvalues --   -1.38539  -1.38311  -1.18886  -1.18690  -1.08220
 Alpha  occ. eigenvalues --   -1.08022  -1.04335  -1.04145  -0.94996  -0.94783
 Alpha  occ. eigenvalues --   -0.85717  -0.85526  -0.81829  -0.81595  -0.76817
 Alpha  occ. eigenvalues --   -0.76593  -0.71265  -0.70818  -0.70347  -0.70127
 Alpha  occ. eigenvalues --   -0.69987  -0.69793  -0.64526  -0.64347  -0.64316
 Alpha  occ. eigenvalues --   -0.64155  -0.61675  -0.61485  -0.54828  -0.54646
 Alpha  occ. eigenvalues --   -0.52654  -0.52461  -0.52429  -0.52242  -0.48007
 Alpha  occ. eigenvalues --   -0.47937  -0.47706  -0.47645  -0.43878  -0.43625
 Alpha  occ. eigenvalues --   -0.36892  -0.36699  -0.35958  -0.35768
 Alpha virt. eigenvalues --    0.05711   0.05942   0.11691   0.11881   0.17141
 Alpha virt. eigenvalues --    0.17365   0.21798   0.21970   0.27689   0.27854
 Alpha virt. eigenvalues --    0.28722   0.28912   0.31327   0.31496   0.32990

 Mulliken charges:
               1
     1  C   -0.172060
     2  C   -0.218838
     3  C   -0.171774
     4  C    0.158494
     5  C   -0.171747
     6  C   -0.218703
     7  H    0.222749
     8  H    0.220949
     9  H    0.278991
    10  H    0.274549
    11  H    0.220972
    12  N    0.486805
    13  O   -0.466577
    14  O   -0.444176
    15  C   -0.172027
    16  C   -0.218796
    17  C   -0.172273
    18  C    0.158226
    19  C   -0.171987
    20  C   -0.218675
    21  H    0.223486
    22  H    0.221914
    23  H    0.277968
    24  H    0.274702
    25  H    0.221481
    26  N    0.485942
    27  O   -0.464736
    28  O   -0.444858
 Sum of Mulliken charges =  -0.00000

 Dipole moment (field-independent basis, Debye):
    X=             -0.9737    Y=              6.6618    Z=              1.0915  Tot=              6.8205
 Quadrupole moment (field-independent basis, Debye-Ang):
   XX=            -51.8244   YY=           -107.3847   ZZ=           -101.8800
   XY=              3.2544   XZ=             -5.7482   YZ=             -1.2257

 Normal termination of Gaussian 16 at Thu May  6 11:11:36 2021.
