 Gaussian 16, Revision A.03,
 Gaussian 16:  EM64L-G16RevA.03 25-Dec-2016

 -------------
 #p 6-31g* mp2
 -------------

 ------------------------------------------------------
 Input file generated by CHIRIPA (05-May-2021 14:51:14)
 ------------------------------------------------------
 Symbolic Z-matrix:
 Charge =  0 Multiplicity = 1

                         Standard orientation:
 ---------------------------------------------------------------------
 Center     Atomic      Atomic             Coordinates (Angstroms)
 Number     Number       Type             X           Y           Z
 ---------------------------------------------------------------------
      1          6           0        2.217051    0.615056   -0.593430
      2          6           0        2.449545    2.123920   -0.508223
      3          6           0        1.974391    2.866731   -1.757324
      4          1           0        2.736872    0.219697   -1.476845
      5          1           0        1.146223    0.424332   -0.749464
      6          1           0        3.519425    2.311692   -0.351012
      7          1           0        1.929269    2.515702    0.375200
      8          1           0        0.902573    2.708843   -1.915055
      9          1           0        2.501764    2.503673   -2.645393
     10          1           0        2.150150    3.943858   -1.675061
     11          6           0        2.686897   -0.141354    0.647867
     12          6           0        2.454403   -1.650218    0.562660
     13          6           0        2.929558   -2.393029    1.811761
     14          1           0        3.757725    0.049370    0.803901
     15          1           0        2.167077    0.254005    1.531282
     16          1           0        2.974680   -2.042000   -0.320763
     17          1           0        1.384524   -1.837990    0.405449
     18          1           0        2.402185   -2.029971    2.699830
     19          1           0        4.001376   -2.235141    1.969492
     20          1           0        2.753798   -3.470156    1.729498
     21          6           0       -2.763344    0.134140    0.563413
     22          6           0       -2.479586    1.636594    0.553450
     23          6           0       -3.109077    2.364974    1.741304
     24          1           0       -3.850016   -0.027354    0.560369
     25          1           0       -2.385893   -0.297019    1.500978
     26          1           0       -2.856226    2.064552   -0.384426
     27          1           0       -1.393463    1.794529    0.556325
     28          1           0       -2.725296    1.965390    2.685574
     29          1           0       -4.196370    2.236947    1.739478
     30          1           0       -2.893740    3.437711    1.714386
     31          6           0       -2.140604   -0.607842   -0.617850
     32          6           0       -2.424362   -2.110296   -0.607886
     33          6           0       -1.794872   -2.838676   -1.795741
     34          1           0       -2.518056   -0.176684   -1.555415
     35          1           0       -1.053932   -0.446347   -0.614806
     36          1           0       -3.510485   -2.268231   -0.610762
     37          1           0       -2.047722   -2.538254    0.329989
     38          1           0       -0.707579   -2.710650   -1.793915
     39          1           0       -2.178652   -2.439092   -2.740011
     40          1           0       -2.010209   -3.911414   -1.768823
 ---------------------------------------------------------------------

 SCF Done:  E(RHF) =  -470.733386421     A.U. after   11 cycles
 E2 =    -0.1584074193D+01 EUMP2 =    -0.47231746061379D+03

 The electronic state is 1-A.
 Alpha  occ. eigenvalues --  -11.21677 -11.21677 -11.21638 -11.21629 -11.21458
 Alpha  occ. eigenvalues --  -11.21450 -11.21397 -11.21383 -11.21125 -11.21124
 Alpha  occ. eigenvalues --  -11.21077 -11.21066  -1.08515  -1.08454  -1.03583
 Alpha  occ. eigenvalues --   -1.03561  -0.96033  -0.96003  -0.87043  -0.87025
 Alpha  occ. eigenvalues --   -0.79639  -0.79633  -0.78427  -0.78182  -0.65368
 Alpha  occ. eigenvalues --   -0.64881  -0.61060  -0.60884  -0.59397  -0.59373
 Alpha  occ. eigenvalues --   -0.57674  -0.57591  -0.55404  -0.55213  -0.52716
 Alpha  occ. eigenvalues --   -0.52706  -0.52489  -0.52396  -0.50011  -0.49918
 Alpha  occ. eigenvalues --   -0.48002  -0.47913  -0.46729  -0.46667  -0.46379
 Alpha  occ. eigenvalues --   -0.45803  -0.45796  -0.45117  -0.43833  -0.43820
 Alpha virt. eigenvalues --    0.19054   0.21866   0.24013   0.24347   0.25578
 Alpha virt. eigenvalues --    0.26864   0.27048   0.27672   0.27962   0.30024
 Alpha virt. eigenvalues --    0.31394   0.31482   0.31624   0.31773   0.32041

 Mulliken charges:
               1
     1  C   -0.308972
     2  C   -0.299303
     3  C   -0.476495
     4  H    0.150008
     5  H    0.158700
     6  H    0.152103
     7  H    0.151825
     8  H    0.156469
     9  H    0.155198
    10  H    0.160254
    11  C   -0.297617
    12  C   -0.303086
    13  C   -0.475673
    14  H    0.150065
    15  H    0.149100
    16  H    0.152441
    17  H    0.153609
    18  H    0.155085
    19  H    0.155601
    20  H    0.160584
    21  C   -0.297535
    22  C   -0.301663
    23  C   -0.475726
    24  H    0.150170
    25  H    0.149190
    26  H    0.152275
    27  H    0.152453
    28  H    0.155163
    29  H    0.155570
    30  H    0.160566
    31  C   -0.309906
    32  C   -0.298958
    33  C   -0.477429
    34  H    0.149764
    35  H    0.159562
    36  H    0.152228
    37  H    0.151754
    38  H    0.156962
    39  H    0.155292
    40  H    0.160371
 Sum of Mulliken charges =  -0.00000

 Dipole moment (field-independent basis, Debye):
    X=             -0.0019    Y=             -0.0007    Z=             -0.0103  Tot=              0.0105
 Quadrupole moment (field-independent basis, Debye-Ang):
   XX=            -83.3342   YY=            -85.6350   ZZ=            -85.6202
   XY=              0.1703   XZ=              0.1431   YZ=             -0.0065

 Normal termination of Gaussian 16 at Wed May  5 21:39:21 2021.
