 Gaussian 16, Revision A.03,
 Gaussian 16:  EM64L-G16RevA.03 25-Dec-2016

 -------------
 #p 6-31g* mp2
 -------------

 ------------------------------------------------------
 Input file generated by CHIRIPA (05-May-2021 14:57:26)
 ------------------------------------------------------
 Symbolic Z-matrix:
 Charge =  0 Multiplicity = 1

                         Standard orientation:
 ---------------------------------------------------------------------
 Center     Atomic      Atomic             Coordinates (Angstroms)
 Number     Number       Type             X           Y           Z
 ---------------------------------------------------------------------
      1          6           0        4.020433   -1.916853   -0.211739
      2          6           0        3.233169   -1.584640    0.895678
      3          6           0        2.650093   -0.318111    0.998024
      4          6           0        2.876138    0.595884   -0.029988
      5          6           0        3.655514    0.294829   -1.145886
      6          6           0        4.228725   -0.977714   -1.227196
      7          1           0        4.469549   -2.903059   -0.283073
      8          1           0        3.069694   -2.311981    1.685802
      9          1           0        2.036213   -0.034506    1.844273
     10          1           0        3.800427    1.041019   -1.917649
     11          1           0        4.839662   -1.232947   -2.088391
     12          7           0        2.264083    1.939884    0.067226
     13          8           0        2.478466    2.727266   -0.851854
     14          8           0        1.581561    2.180482    1.060661
     15          6           0       -0.765598   -1.301772    0.830554
     16          6           0       -1.521693   -0.484227    1.676995
     17          6           0       -2.748417    0.035180    1.252836
     18          6           0       -3.190803   -0.284719   -0.029837
     19          6           0       -2.460467   -1.096420   -0.896462
     20          6           0       -1.236568   -1.604725   -0.451213
     21          1           0        0.186253   -1.700948    1.168243
     22          1           0       -1.158415   -0.247280    2.672952
     23          1           0       -3.354037    0.670601    1.887568
     24          1           0       -2.848770   -1.315021   -1.883808
     25          1           0       -0.651501   -2.239378   -1.110725
     26          7           0       -4.487986    0.259278   -0.490038
     27          8           0       -4.855635   -0.037413   -1.624696
     28          8           0       -5.112506    0.972052    0.292626
 ---------------------------------------------------------------------

 SCF Done:  E(RHF) =  -868.335871132     A.U. after   16 cycles
 E2 =    -0.2602341407D+01 EUMP2 =    -0.87093821253864D+03

 The electronic state is 1-A.
 Alpha  occ. eigenvalues --  -20.61444 -20.61438 -20.60513 -20.60503 -15.86507
 Alpha  occ. eigenvalues --  -15.85565 -11.32090 -11.30960 -11.28786 -11.28646
 Alpha  occ. eigenvalues --  -11.28457 -11.27808 -11.27665 -11.27558 -11.27509
 Alpha  occ. eigenvalues --  -11.27321 -11.26619 -11.26577  -1.60508  -1.59583
 Alpha  occ. eigenvalues --   -1.40059  -1.39136  -1.20306  -1.19146  -1.09632
 Alpha  occ. eigenvalues --   -1.08563  -1.05763  -1.04554  -0.96443  -0.95387
 Alpha  occ. eigenvalues --   -0.87119  -0.85969  -0.83290  -0.82214  -0.78301
 Alpha  occ. eigenvalues --   -0.77235  -0.72727  -0.71836  -0.71789  -0.71436
 Alpha  occ. eigenvalues --   -0.70901  -0.70313  -0.65947  -0.65739  -0.64815
 Alpha  occ. eigenvalues --   -0.64593  -0.63086  -0.61906  -0.56203  -0.55318
 Alpha  occ. eigenvalues --   -0.53907  -0.53821  -0.52843  -0.52666  -0.49495
 Alpha  occ. eigenvalues --   -0.49463  -0.48550  -0.48536  -0.45417  -0.44535
 Alpha  occ. eigenvalues --   -0.38302  -0.37584  -0.36855  -0.36131
 Alpha virt. eigenvalues --    0.04199   0.05303   0.10265   0.11473   0.15501
 Alpha virt. eigenvalues --    0.16809   0.19597   0.22022   0.25570   0.26644
 Alpha virt. eigenvalues --    0.27739   0.29482   0.29863   0.31369   0.32233

 Mulliken charges:
               1
     1  C   -0.171246
     2  C   -0.225263
     3  C   -0.174127
     4  C    0.161211
     5  C   -0.169794
     6  C   -0.218984
     7  H    0.228474
     8  H    0.222468
     9  H    0.272349
    10  H    0.279499
    11  H    0.227103
    12  N    0.488923
    13  O   -0.456350
    14  O   -0.460234
    15  C   -0.170961
    16  C   -0.213009
    17  C   -0.167730
    18  C    0.159088
    19  C   -0.170470
    20  C   -0.220835
    21  H    0.217372
    22  H    0.222417
    23  H    0.277188
    24  H    0.274750
    25  H    0.220565
    26  N    0.488234
    27  O   -0.461345
    28  O   -0.459292
 Sum of Mulliken charges =  -0.00000

 Dipole moment (field-independent basis, Debye):
    X=              6.8562    Y=             -6.4177    Z=              1.1434  Tot=              9.4606
 Quadrupole moment (field-independent basis, Debye-Ang):
   XX=           -121.1277   YY=           -109.3152   ZZ=            -97.5134
   XY=             -7.4364   XZ=             -9.7119   YZ=              0.7637

 Normal termination of Gaussian 16 at Fri May  7 12:43:22 2021.
