 Gaussian 16, Revision A.03,
 Gaussian 16:  EM64L-G16RevA.03 25-Dec-2016

 -------------
 #p 6-31g* mp2
 -------------

 ------------------------------------------------------
 Input file generated by CHIRIPA (05-May-2021 14:55:24)
 ------------------------------------------------------
 Symbolic Z-matrix:
 Charge =  0 Multiplicity = 1

                         Standard orientation:
 ---------------------------------------------------------------------
 Center     Atomic      Atomic             Coordinates (Angstroms)
 Number     Number       Type             X           Y           Z
 ---------------------------------------------------------------------
      1          6           0       -3.461024   -2.197865    0.076869
      2          6           0       -4.250791   -1.365198   -0.722791
      3          6           0       -4.041399    0.017051   -0.732234
      4          6           0       -3.028949    0.535191    0.073847
      5          6           0       -2.225432   -0.268255    0.881390
      6          6           0       -2.452643   -1.647705    0.875000
      7          1           0       -3.630607   -3.270542    0.078055
      8          1           0       -5.034633   -1.789685   -1.343636
      9          1           0       -4.638116    0.684756   -1.341755
     10          1           0       -1.451637    0.184128    1.489673
     11          1           0       -1.837759   -2.291945    1.497028
     12          7           0       -2.797842    1.997034    0.072231
     13          8           0       -1.899476    2.428834    0.791344
     14          8           0       -3.519443    2.683347   -0.648119
     15          6           0        4.442519    0.070303    0.246706
     16          6           0        5.680813    0.330935   -0.611597
     17          6           0        6.705335    1.226683    0.085384
     18          1           0        3.975726    1.030236    0.506663
     19          1           0        4.752221   -0.393243    1.193598
     20          1           0        5.368732    0.792587   -1.557165
     21          1           0        6.144604   -0.629740   -0.869700
     22          1           0        7.045031    0.768572    1.019912
     23          1           0        6.264750    2.198981    0.328540
     24          1           0        7.582421    1.399996   -0.545918
     25          6           0        3.409099   -0.823612   -0.436438
     26          6           0        2.170805   -1.084243    0.421866
     27          6           0        1.146282   -1.979992   -0.275115
     28          1           0        3.099396   -0.360064   -1.383329
     29          1           0        3.875892   -1.783545   -0.696393
     30          1           0        1.707014   -0.123568    0.679969
     31          1           0        2.482885   -1.545895    1.367434
     32          1           0        1.586867   -2.952289   -0.518271
     33          1           0        0.806587   -1.521880   -1.209642
     34          1           0        0.269196   -2.153305    0.356187
 ---------------------------------------------------------------------

 SCF Done:  E(RHF) =  -669.534586178     A.U. after   15 cycles
 E2 =    -0.2092230445D+01 EUMP2 =    -0.67162681662299D+03

 The electronic state is 1-A.
 Alpha  occ. eigenvalues --  -20.60791 -20.60785 -15.85844 -11.31204 -11.27770
 Alpha  occ. eigenvalues --  -11.27766 -11.27508 -11.26788 -11.26777 -11.21862
 Alpha  occ. eigenvalues --  -11.21575 -11.21504 -11.21423 -11.21371 -11.21004
 Alpha  occ. eigenvalues --   -1.59866  -1.39420  -1.19381  -1.08776  -1.08523
 Alpha  occ. eigenvalues --   -1.04795  -1.03657  -0.96114  -0.95608  -0.87139
 Alpha  occ. eigenvalues --   -0.86182  -0.82450  -0.79728  -0.78318  -0.77499
 Alpha  occ. eigenvalues --   -0.72063  -0.71189  -0.70482  -0.65147  -0.65037
 Alpha  occ. eigenvalues --   -0.64820  -0.62195  -0.61043  -0.59505  -0.57731
 Alpha  occ. eigenvalues --   -0.55385  -0.55279  -0.53354  -0.52946  -0.52639
 Alpha  occ. eigenvalues --   -0.52400  -0.50029  -0.48821  -0.48817  -0.48042
 Alpha  occ. eigenvalues --   -0.46745  -0.45864  -0.45768  -0.44826  -0.43916
 Alpha  occ. eigenvalues --   -0.37350  -0.36314
 Alpha virt. eigenvalues --    0.05028   0.11194   0.16422   0.20541   0.22911
 Alpha virt. eigenvalues --    0.24142   0.26213   0.26604   0.27198   0.28136
 Alpha virt. eigenvalues --    0.28967   0.29668   0.31336   0.31655   0.32384

 Mulliken charges:
               1
     1  C   -0.171851
     2  C   -0.218577
     3  C   -0.171000
     4  C    0.157816
     5  C   -0.168453
     6  C   -0.216895
     7  H    0.225927
     8  H    0.223547
     9  H    0.275591
    10  H    0.276615
    11  H    0.223435
    12  N    0.488070
    13  O   -0.460750
    14  O   -0.460327
    15  C   -0.299271
    16  C   -0.299883
    17  C   -0.475993
    18  H    0.153487
    19  H    0.148577
    20  H    0.153076
    21  H    0.150939
    22  H    0.154626
    23  H    0.157019
    24  H    0.160324
    25  C   -0.298331
    26  C   -0.302494
    27  C   -0.476566
    28  H    0.151874
    29  H    0.148867
    30  H    0.155552
    31  H    0.149843
    32  H    0.154073
    33  H    0.159458
    34  H    0.151676
 Sum of Mulliken charges =  -0.00000

 Dipole moment (field-independent basis, Debye):
    X=             -0.8059    Y=             -5.0932    Z=             -0.0423  Tot=              5.1568
 Quadrupole moment (field-independent basis, Debye-Ang):
   XX=            -87.6711   YY=           -100.7223   ZZ=            -93.0804
   XY=             14.2308   XZ=              2.6221   YZ=             -1.3460

 Normal termination of Gaussian 16 at Thu May  6 11:01:35 2021.
