 Gaussian 16, Revision A.03,
 Gaussian 16:  EM64L-G16RevA.03 25-Dec-2016

 -------------
 #p 6-31g* mp2
 -------------

 ------------------------------------------------------
 Input file generated by CHIRIPA (05-May-2021 14:55:23)
 ------------------------------------------------------
 Symbolic Z-matrix:
 Charge =  0 Multiplicity = 1

                         Standard orientation:
 ---------------------------------------------------------------------
 Center     Atomic      Atomic             Coordinates (Angstroms)
 Number     Number       Type             X           Y           Z
 ---------------------------------------------------------------------
      1          6           0       -5.756753    1.268470    0.344700
      2          6           0       -5.776647   -0.130146    0.344348
      3          6           0       -4.621596   -0.856580    0.039883
      4          6           0       -3.458821   -0.148933   -0.260912
      5          6           0       -3.407225    1.244109   -0.268860
      6          6           0       -4.574190    1.949932    0.038634
      7          1           0       -6.658652    1.824776    0.582392
      8          1           0       -6.693612   -0.662031    0.581659
      9          1           0       -4.608959   -1.939724    0.032289
     10          1           0       -2.478100    1.746358   -0.509463
     11          1           0       -4.555802    3.036075    0.038140
     12          7           0       -2.229713   -0.907066   -0.584839
     13          8           0       -1.218011   -0.260022   -0.846429
     14          8           0       -2.301314   -2.133981   -0.571009
     15          6           0        3.939798   -0.035126    0.119304
     16          6           0        3.113802   -0.425808    1.345307
     17          6           0        1.621762   -0.553584    1.036630
     18          1           0        3.563724    0.916685   -0.280156
     19          1           0        3.790503   -0.785782   -0.669126
     20          1           0        3.265693    0.324629    2.131684
     21          1           0        3.492010   -1.376704    1.742009
     22          1           0        1.450909   -1.316229    0.269961
     23          1           0        1.223307    0.394770    0.661850
     24          1           0        1.050134   -0.833550    1.926978
     25          6           0        5.433367    0.096522    0.411960
     26          6           0        6.259362    0.487205   -0.814044
     27          6           0        7.751403    0.614981   -0.505366
     28          1           0        5.582661    0.847179    1.200390
     29          1           0        5.809441   -0.855288    0.811420
     30          1           0        5.881155    1.438101   -1.210745
     31          1           0        6.107472   -0.263232   -1.600420
     32          1           0        8.149858   -0.333373   -0.130586
     33          1           0        7.922255    1.377627    0.261304
     34          1           0        8.323030    0.894947   -1.395715
 ---------------------------------------------------------------------

 SCF Done:  E(RHF) =  -669.535658205     A.U. after   15 cycles
 E2 =    -0.2091133133D+01 EUMP2 =    -0.67162679133790D+03

 The electronic state is 1-A.
 Alpha  occ. eigenvalues --  -20.60867 -20.60836 -15.85881 -11.31242 -11.27811
 Alpha  occ. eigenvalues --  -11.27806 -11.27553 -11.26826 -11.26816 -11.20999
 Alpha  occ. eigenvalues --  -11.20659 -11.20584 -11.20486 -11.20414 -11.19448
 Alpha  occ. eigenvalues --   -1.59911  -1.39468  -1.19414  -1.08811  -1.07579
 Alpha  occ. eigenvalues --   -1.04816  -1.02606  -0.95652  -0.95020  -0.86217
 Alpha  occ. eigenvalues --   -0.86027  -0.82482  -0.78693  -0.77534  -0.77349
 Alpha  occ. eigenvalues --   -0.72103  -0.71221  -0.70524  -0.65069  -0.64820
 Alpha  occ. eigenvalues --   -0.64222  -0.62164  -0.60009  -0.58470  -0.56635
 Alpha  occ. eigenvalues --   -0.55320  -0.54305  -0.53147  -0.52909  -0.51736
 Alpha  occ. eigenvalues --   -0.51437  -0.49026  -0.48863  -0.48796  -0.46963
 Alpha  occ. eigenvalues --   -0.45747  -0.45039  -0.44810  -0.44654  -0.42876
 Alpha  occ. eigenvalues --   -0.37393  -0.36419
 Alpha virt. eigenvalues --    0.04987   0.11236   0.16467   0.21350   0.23650
 Alpha virt. eigenvalues --    0.25233   0.27240   0.27479   0.28077   0.28339
 Alpha virt. eigenvalues --    0.29095   0.30907   0.32137   0.32503   0.32681

 Mulliken charges:
               1
     1  C   -0.170738
     2  C   -0.218547
     3  C   -0.170855
     4  C    0.158384
     5  C   -0.170665
     6  C   -0.218523
     7  H    0.225772
     8  H    0.223620
     9  H    0.275751
    10  H    0.275372
    11  H    0.223586
    12  N    0.489254
    13  O   -0.458395
    14  O   -0.460111
    15  C   -0.296905
    16  C   -0.301743
    17  C   -0.470767
    18  H    0.148304
    19  H    0.151925
    20  H    0.145128
    21  H    0.148173
    22  H    0.169588
    23  H    0.157921
    24  H    0.150757
    25  C   -0.297456
    26  C   -0.298999
    27  C   -0.475199
    28  H    0.146943
    29  H    0.148446
    30  H    0.150787
    31  H    0.152296
    32  H    0.154567
    33  H    0.153787
    34  H    0.158543
 Sum of Mulliken charges =  -0.00000

 Dipole moment (field-independent basis, Debye):
    X=             -4.6266    Y=              2.6203    Z=              1.0168  Tot=              5.4134
 Quadrupole moment (field-independent basis, Debye-Ang):
   XX=            -66.4904   YY=            -91.0187   ZZ=            -96.4746
   XY=             -6.7570   XZ=             -3.7250   YZ=             -1.2060

 Normal termination of Gaussian 16 at Thu May  6 03:08:02 2021.
