 Gaussian 16, Revision A.03,
 Gaussian 16:  EM64L-G16RevA.03 25-Dec-2016

 -------------
 #p 6-31g* mp2
 -------------

 ------------------------------------------------------
 Input file generated by CHIRIPA (05-May-2021 14:53:15)
 ------------------------------------------------------
 Symbolic Z-matrix:
 Charge =  0 Multiplicity = 1

                         Standard orientation:
 ---------------------------------------------------------------------
 Center     Atomic      Atomic             Coordinates (Angstroms)
 Number     Number       Type             X           Y           Z
 ---------------------------------------------------------------------
      1          6           0        2.983998    0.634770   -0.179781
      2          6           0        3.443754    2.092484   -0.138811
      3          6           0        2.280228    3.075877   -0.008659
      4          1           0        2.291321    0.498936   -1.021619
      5          1           0        2.414312    0.411469    0.732902
      6          1           0        4.013584    2.312578   -1.050660
      7          1           0        4.135567    2.224820    0.702913
      8          1           0        1.715111    2.884716    0.909329
      9          1           0        1.592435    2.972972   -0.854208
     10          1           0        2.631509    4.112076    0.018762
     11          6           0        4.135806   -0.360311   -0.309702
     12          6           0        3.676050   -1.818025   -0.350672
     13          6           0        4.839577   -2.801418   -0.480824
     14          1           0        4.705493   -0.137010   -1.222385
     15          1           0        4.828484   -0.224477    0.532136
     16          1           0        2.984238   -1.950361   -1.192396
     17          1           0        3.106221   -2.038119    0.561177
     18          1           0        5.527370   -2.698513    0.364725
     19          1           0        5.404694   -2.610257   -1.398812
     20          1           0        4.488295   -3.837617   -0.508245
     21          6           0       -0.603654    0.279050    1.405756
     22          6           0       -1.097198    1.249654    0.527769
     23          6           0       -2.302633    1.046314   -0.150557
     24          6           0       -2.991688   -0.144553    0.073786
     25          6           0       -2.525994   -1.130584    0.942211
     26          6           0       -1.318367   -0.905884    1.609814
     27          1           0        0.333609    0.445306    1.928530
     28          1           0       -0.544272    2.170841    0.367348
     29          1           0       -2.707692    1.780965   -0.835854
     30          1           0       -3.099624   -2.038841    1.081627
     31          1           0       -0.937483   -1.661425    2.291084
     32          7           0       -4.268990   -0.371127   -0.638651
     33          8           0       -4.857097   -1.428748   -0.423699
     34          8           0       -4.657843    0.513195   -1.398523
 ---------------------------------------------------------------------

 SCF Done:  E(RHF) =  -669.534367174     A.U. after   15 cycles
 E2 =    -0.2093084363D+01 EUMP2 =    -0.67162745153691D+03

 The electronic state is 1-A.
 Alpha  occ. eigenvalues --  -20.60692 -20.60687 -15.85744 -11.31084 -11.27656
 Alpha  occ. eigenvalues --  -11.27630 -11.27366 -11.26670 -11.26561 -11.22631
 Alpha  occ. eigenvalues --  -11.22385 -11.22370 -11.22283 -11.22145 -11.21619
 Alpha  occ. eigenvalues --   -1.59769  -1.39323  -1.19251  -1.09333  -1.08648
 Alpha  occ. eigenvalues --   -1.04655  -1.04418  -0.96899  -0.95496  -0.87926
 Alpha  occ. eigenvalues --   -0.86049  -0.82327  -0.80512  -0.79128  -0.77369
 Alpha  occ. eigenvalues --   -0.71963  -0.71092  -0.70398  -0.65959  -0.64900
 Alpha  occ. eigenvalues --   -0.64679  -0.62044  -0.61811  -0.60239  -0.58496
 Alpha  occ. eigenvalues --   -0.56225  -0.55188  -0.53569  -0.53434  -0.52984
 Alpha  occ. eigenvalues --   -0.52587  -0.50848  -0.48830  -0.48721  -0.48661
 Alpha  occ. eigenvalues --   -0.47522  -0.46644  -0.46550  -0.44734  -0.44659
 Alpha  occ. eigenvalues --   -0.37198  -0.36247
 Alpha virt. eigenvalues --    0.05132   0.11340   0.16545   0.19531   0.22504
 Alpha virt. eigenvalues --    0.23708   0.24760   0.25860   0.26548   0.28559
 Alpha virt. eigenvalues --    0.29283   0.30252   0.30895   0.31290   0.31622

 Mulliken charges:
               1
     1  C   -0.300596
     2  C   -0.299977
     3  C   -0.481620
     4  H    0.155167
     5  H    0.140423
     6  H    0.157324
     7  H    0.154267
     8  H    0.146534
     9  H    0.156751
    10  H    0.167657
    11  C   -0.298909
    12  C   -0.299287
    13  C   -0.476272
    14  H    0.152818
    15  H    0.150135
    16  H    0.155367
    17  H    0.147425
    18  H    0.155391
    19  H    0.157185
    20  H    0.162171
    21  C   -0.170724
    22  C   -0.223464
    23  C   -0.172840
    24  C    0.158781
    25  C   -0.171368
    26  C   -0.219516
    27  H    0.225507
    28  H    0.232332
    29  H    0.275185
    30  H    0.275097
    31  H    0.222636
    32  N    0.487984
    33  O   -0.460803
    34  O   -0.460761
 Sum of Mulliken charges =  -0.00000

 Dipole moment (field-independent basis, Debye):
    X=              4.7569    Y=              0.8153    Z=              2.3788  Tot=              5.3807
 Quadrupole moment (field-independent basis, Debye-Ang):
   XX=           -122.3162   YY=            -91.5572   ZZ=            -93.0099
   XY=             -1.8652   XZ=             -7.6527   YZ=             -2.8298

 Normal termination of Gaussian 16 at Thu May  6 13:50:28 2021.
