 Gaussian 16, Revision A.03,
 Gaussian 16:  EM64L-G16RevA.03 25-Dec-2016

 -------------
 #p 6-31g* mp2
 -------------

 ------------------------------------------------------
 Input file generated by CHIRIPA (05-May-2021 14:55:25)
 ------------------------------------------------------
 Symbolic Z-matrix:
 Charge =  0 Multiplicity = 1

                         Standard orientation:
 ---------------------------------------------------------------------
 Center     Atomic      Atomic             Coordinates (Angstroms)
 Number     Number       Type             X           Y           Z
 ---------------------------------------------------------------------
      1          6           0        3.668171   -2.127394    0.209318
      2          6           0        2.945616   -1.608416    1.288714
      3          6           0        2.484390   -0.288839    1.265590
      4          6           0        2.764978    0.487182    0.142045
      5          6           0        3.482310   -0.001092   -0.948969
      6          6           0        3.933744   -1.323493   -0.904116
      7          1           0        4.022659   -3.153570    0.235721
      8          1           0        2.737889   -2.230431    2.154735
      9          1           0        1.922746    0.138346    2.087471
     10          1           0        3.673798    0.643256   -1.798420
     11          1           0        4.494652   -1.723874   -1.743831
     12          7           0        2.281882    1.885654    0.106063
     13          8           0        2.542237    2.548820   -0.895467
     14          8           0        1.652024    2.292130    1.080072
     15          6           0       -3.067036   -0.823617   -0.283372
     16          6           0       -1.708243   -0.147970   -0.470902
     17          6           0       -0.569832   -1.151431   -0.657653
     18          1           0       -3.019725   -1.492729    0.586683
     19          1           0       -3.276286   -1.458857   -1.155198
     20          1           0       -1.502243    0.486884    0.400386
     21          1           0       -1.758851    0.519757   -1.340498
     22          1           0       -0.748631   -1.777456   -1.537838
     23          1           0       -0.490565   -1.810515    0.212936
     24          1           0        0.392368   -0.646925   -0.789956
     25          6           0       -4.215134    0.166474   -0.095445
     26          6           0       -5.573927   -0.509175    0.092084
     27          6           0       -6.712339    0.494288    0.278836
     28          1           0       -4.005885    0.801712    0.776381
     29          1           0       -4.262445    0.835586   -0.965501
     30          1           0       -5.523320   -1.176901    0.961679
     31          1           0       -5.779928   -1.144028   -0.779202
     32          1           0       -6.791605    1.153372   -0.591754
     33          1           0       -6.533539    1.120312    1.159020
     34          1           0       -7.674538   -0.010219    0.411139
 ---------------------------------------------------------------------

 SCF Done:  E(RHF) =  -669.534347166     A.U. after   15 cycles
 E2 =    -0.2093409594D+01 EUMP2 =    -0.67162775675984D+03

 The electronic state is 1-A.
 Alpha  occ. eigenvalues --  -20.60815 -20.60809 -15.85860 -11.31176 -11.27800
 Alpha  occ. eigenvalues --  -11.27768 -11.27549 -11.26817 -11.26795 -11.21410
 Alpha  occ. eigenvalues --  -11.21277 -11.21176 -11.21099 -11.20871 -11.20863
 Alpha  occ. eigenvalues --   -1.59886  -1.39439  -1.19412  -1.08800  -1.08196
 Alpha  occ. eigenvalues --   -1.04803  -1.03312  -0.95793  -0.95621  -0.86803
 Alpha  occ. eigenvalues --   -0.86199  -0.82462  -0.79367  -0.77999  -0.77509
 Alpha  occ. eigenvalues --   -0.72080  -0.71228  -0.70507  -0.65052  -0.64834
 Alpha  occ. eigenvalues --   -0.64800  -0.62149  -0.60715  -0.59221  -0.57434
 Alpha  occ. eigenvalues --   -0.55304  -0.55099  -0.53562  -0.52892  -0.52241
 Alpha  occ. eigenvalues --   -0.51934  -0.49716  -0.48839  -0.48837  -0.47684
 Alpha  occ. eigenvalues --   -0.46395  -0.45549  -0.45469  -0.44832  -0.43551
 Alpha  occ. eigenvalues --   -0.37326  -0.36378
 Alpha virt. eigenvalues --    0.05005   0.11206   0.16472   0.21345   0.23050
 Alpha virt. eigenvalues --    0.24389   0.26801   0.27332   0.27675   0.28088
 Alpha virt. eigenvalues --    0.28321   0.30774   0.31574   0.31861   0.32057

 Mulliken charges:
               1
     1  C   -0.170566
     2  C   -0.215185
     3  C   -0.168648
     4  C    0.155327
     5  C   -0.173449
     6  C   -0.216197
     7  H    0.225985
     8  H    0.223462
     9  H    0.275179
    10  H    0.275871
    11  H    0.223805
    12  N    0.489655
    13  O   -0.460407
    14  O   -0.460772
    15  C   -0.297890
    16  C   -0.302461
    17  C   -0.478305
    18  H    0.146468
    19  H    0.147842
    20  H    0.158279
    21  H    0.155140
    22  H    0.152168
    23  H    0.148592
    24  H    0.164640
    25  C   -0.298507
    26  C   -0.299392
    27  C   -0.475641
    28  H    0.151702
    29  H    0.151138
    30  H    0.150469
    31  H    0.150887
    32  H    0.155777
    33  H    0.155877
    34  H    0.159156
 Sum of Mulliken charges =  -0.00000

 Dipole moment (field-independent basis, Debye):
    X=              1.8015    Y=             -4.8688    Z=              0.1439  Tot=              5.1934
 Quadrupole moment (field-independent basis, Debye-Ang):
   XX=            -86.0792   YY=           -100.6111   ZZ=            -89.7600
   XY=            -12.5659   XZ=             -1.2917   YZ=             -1.4398

 Normal termination of Gaussian 16 at Thu May  6 12:45:18 2021.
