 Gaussian 16, Revision A.03,
 Gaussian 16:  EM64L-G16RevA.03 25-Dec-2016

 -------------
 #p 6-31g* mp2
 -------------

 ------------------------------------------------------
 Input file generated by CHIRIPA (05-May-2021 14:51:08)
 ------------------------------------------------------
 Symbolic Z-matrix:
 Charge =  0 Multiplicity = 1

                         Standard orientation:
 ---------------------------------------------------------------------
 Center     Atomic      Atomic             Coordinates (Angstroms)
 Number     Number       Type             X           Y           Z
 ---------------------------------------------------------------------
      1          6           0        4.593755   -0.228052   -0.266523
      2          6           0        5.238161   -1.370595    0.519175
      3          6           0        6.268609   -2.145639   -0.302578
      4          1           0        4.115003   -0.635437   -1.167511
      5          1           0        5.379029    0.458071   -0.612895
      6          1           0        4.451777   -2.053619    0.865141
      7          1           0        5.715270   -0.960467    1.418496
      8          1           0        7.073439   -1.482396   -0.635681
      9          1           0        5.802766   -2.581760   -1.192180
     10          1           0        6.716786   -2.957732    0.278372
     11          6           0        3.561387    0.556131    0.541563
     12          6           0        2.916980    1.698673   -0.244135
     13          6           0        1.886533    2.473718    0.577618
     14          1           0        2.776113   -0.129993    0.887935
     15          1           0        4.040139    0.963516    1.442550
     16          1           0        2.439871    1.288545   -1.143456
     17          1           0        3.703365    2.381698   -0.590101
     18          1           0        2.352375    2.909838    1.467220
     19          1           0        1.081703    1.810475    0.910721
     20          1           0        1.438355    3.285810   -0.003332
     21          6           0       -3.553855    0.344404   -0.362554
     22          6           0       -2.123684   -0.193791   -0.308322
     23          6           0       -1.087330    0.834995   -0.761494
     24          1           0       -3.779032    0.666368   -1.388506
     25          1           0       -3.625104    1.240713    0.269069
     26          1           0       -2.055498   -1.089619   -0.938766
     27          1           0       -1.901951   -0.514690    0.717579
     28          1           0       -1.126215    1.726251   -0.126867
     29          1           0       -1.280635    1.148056   -1.792624
     30          1           0       -0.071898    0.429315   -0.714813
     31          6           0       -4.601286   -0.672482    0.087513
     32          6           0       -6.031458   -0.134287    0.033283
     33          6           0       -7.067810   -1.163074    0.486455
     34          1           0       -4.530038   -1.568792   -0.544109
     35          1           0       -4.376109   -0.994448    1.113466
     36          1           0       -6.253191    0.186611   -0.992619
     37          1           0       -6.099644    0.761540    0.663727
     38          1           0       -6.874507   -1.476135    1.517583
     39          1           0       -7.028927   -2.054330   -0.148172
     40          1           0       -8.083244   -0.757394    0.439773
 ---------------------------------------------------------------------

 SCF Done:  E(RHF) =  -470.731929909     A.U. after   11 cycles
 E2 =    -0.1583285066D+01 EUMP2 =    -0.47231521497518D+03

 The electronic state is 1-A.
 Alpha  occ. eigenvalues --  -11.21616 -11.21608 -11.21590 -11.21537 -11.21416
 Alpha  occ. eigenvalues --  -11.21386 -11.21357 -11.21326 -11.21077 -11.21062
 Alpha  occ. eigenvalues --  -11.21032 -11.20880  -1.08449  -1.08395  -1.03584
 Alpha  occ. eigenvalues --   -1.03447  -0.96079  -0.95851  -0.87112  -0.86855
 Alpha  occ. eigenvalues --   -0.79656  -0.79505  -0.78256  -0.78215  -0.65114
 Alpha  occ. eigenvalues --   -0.65021  -0.61140  -0.60819  -0.59304  -0.59300
 Alpha  occ. eigenvalues --   -0.57608  -0.57530  -0.55555  -0.55008  -0.52692
 Alpha  occ. eigenvalues --   -0.52615  -0.52379  -0.52322  -0.50184  -0.49588
 Alpha  occ. eigenvalues --   -0.47942  -0.47836  -0.46761  -0.46427  -0.45796
 Alpha  occ. eigenvalues --   -0.45757  -0.45729  -0.45641  -0.43775  -0.43727
 Alpha virt. eigenvalues --    0.21309   0.22986   0.23725   0.25009   0.26450
 Alpha virt. eigenvalues --    0.26550   0.27175   0.27433   0.27770   0.29219
 Alpha virt. eigenvalues --    0.30468   0.31312   0.31490   0.32005   0.32128

 Mulliken charges:
               1
     1  C   -0.298152
     2  C   -0.299626
     3  C   -0.475688
     4  H    0.149416
     5  H    0.149624
     6  H    0.151830
     7  H    0.151942
     8  H    0.155190
     9  H    0.155141
    10  H    0.160205
    11  C   -0.299110
    12  C   -0.302330
    13  C   -0.477398
    14  H    0.149028
    15  H    0.149894
    16  H    0.152991
    17  H    0.152126
    18  H    0.153299
    19  H    0.160821
    20  H    0.159644
    21  C   -0.298619
    22  C   -0.300615
    23  C   -0.479980
    24  H    0.149741
    25  H    0.149808
    26  H    0.151697
    27  H    0.151508
    28  H    0.158817
    29  H    0.154884
    30  H    0.163806
    31  C   -0.298239
    32  C   -0.299656
    33  C   -0.475709
    34  H    0.149492
    35  H    0.149634
    36  H    0.151950
    37  H    0.151991
    38  H    0.155191
    39  H    0.155164
    40  H    0.160291
 Sum of Mulliken charges =  -0.00000

 Dipole moment (field-independent basis, Debye):
    X=             -0.0289    Y=              0.0106    Z=             -0.0057  Tot=              0.0313
 Quadrupole moment (field-independent basis, Debye-Ang):
   XX=            -85.7147   YY=            -85.1637   ZZ=            -84.0776
   XY=              0.3813   XZ=              0.9085   YZ=              0.3899

 Normal termination of Gaussian 16 at Wed May  5 15:04:49 2021.
