 Gaussian 16, Revision A.03,
 Gaussian 16:  EM64L-G16RevA.03 25-Dec-2016

 -------------
 #p 6-31g* mp2
 -------------

 ------------------------------------------------------
 Input file generated by CHIRIPA (05-May-2021 14:55:23)
 ------------------------------------------------------
 Symbolic Z-matrix:
 Charge =  0 Multiplicity = 1

                         Standard orientation:
 ---------------------------------------------------------------------
 Center     Atomic      Atomic             Coordinates (Angstroms)
 Number     Number       Type             X           Y           Z
 ---------------------------------------------------------------------
      1          6           0       -2.045515   -2.566880    0.320449
      2          6           0       -3.139355   -1.842074    0.804900
      3          6           0       -3.232000   -0.464570    0.584797
      4          6           0       -2.208238    0.158864   -0.126914
      5          6           0       -1.105790   -0.535753   -0.622299
      6          6           0       -1.034007   -1.912559   -0.390352
      7          1           0       -1.981650   -3.636687    0.496030
      8          1           0       -3.926383   -2.347594    1.357243
      9          1           0       -4.067672    0.120837    0.948624
     10          1           0       -0.336808   -0.004068   -1.169469
     11          1           0       -0.183349   -2.472906   -0.767759
     12          7           0       -2.295274    1.616797   -0.366196
     13          8           0       -1.380197    2.142608   -0.996112
     14          8           0       -3.276923    2.206108    0.080700
     15          6           0        2.484057   -0.558970   -0.084380
     16          6           0        3.426157   -1.756275    0.045602
     17          6           0        2.763273   -3.075843   -0.350780
     18          1           0        1.597576   -0.728325    0.542050
     19          1           0        2.126246   -0.493687   -1.121253
     20          1           0        3.783170   -1.818460    1.081599
     21          1           0        4.310587   -1.583964   -0.581062
     22          1           0        2.422355   -3.038641   -1.390488
     23          1           0        1.891942   -3.274469    0.281620
     24          1           0        3.454513   -3.918434   -0.250346
     25          6           0        3.132310    0.767408    0.308321
     26          6           0        2.190211    1.964712    0.178339
     27          6           0        2.853095    3.284281    0.574721
     28          1           0        3.490122    0.702125    1.345193
     29          1           0        4.018791    0.936763   -0.318109
     30          1           0        1.305780    1.792402    0.805003
     31          1           0        1.833197    2.026898   -0.857658
     32          1           0        3.724426    3.482907   -0.057679
     33          1           0        3.194012    3.247078    1.614429
     34          1           0        2.161855    4.126872    0.474287
 ---------------------------------------------------------------------

 SCF Done:  E(RHF) =  -669.534107842     A.U. after   15 cycles
 E2 =    -0.2095237290D+01 EUMP2 =    -0.67162934513190D+03

 The electronic state is 1-A.
 Alpha  occ. eigenvalues --  -20.60767 -20.60751 -15.85795 -11.31100 -11.27684
 Alpha  occ. eigenvalues --  -11.27596 -11.27410 -11.26692 -11.26570 -11.22214
 Alpha  occ. eigenvalues --  -11.22025 -11.21883 -11.21451 -11.21222 -11.20639
 Alpha  occ. eigenvalues --   -1.59826  -1.39381  -1.19281  -1.08744  -1.08672
 Alpha  occ. eigenvalues --   -1.04672  -1.03726  -0.96251  -0.95527  -0.87275
 Alpha  occ. eigenvalues --   -0.86066  -0.82388  -0.79891  -0.78568  -0.77287
 Alpha  occ. eigenvalues --   -0.72015  -0.71143  -0.70386  -0.65375  -0.64928
 Alpha  occ. eigenvalues --   -0.64688  -0.62038  -0.61113  -0.59658  -0.57815
 Alpha  occ. eigenvalues --   -0.55580  -0.55177  -0.53107  -0.52979  -0.52835
 Alpha  occ. eigenvalues --   -0.52414  -0.50216  -0.48818  -0.48770  -0.48095
 Alpha  occ. eigenvalues --   -0.46933  -0.45990  -0.45827  -0.44721  -0.43973
 Alpha  occ. eigenvalues --   -0.37274  -0.36180
 Alpha virt. eigenvalues --    0.05087   0.11242   0.16474   0.20445   0.23003
 Alpha virt. eigenvalues --    0.23650   0.24743   0.26517   0.27049   0.28717
 Alpha virt. eigenvalues --    0.30135   0.30518   0.31147   0.31659   0.32561

 Mulliken charges:
               1
     1  C   -0.173495
     2  C   -0.218847
     3  C   -0.171298
     4  C    0.156687
     5  C   -0.173857
     6  C   -0.225751
     7  H    0.225455
     8  H    0.222918
     9  H    0.275053
    10  H    0.282632
    11  H    0.234378
    12  N    0.488434
    13  O   -0.460612
    14  O   -0.460546
    15  C   -0.309165
    16  C   -0.296916
    17  C   -0.483019
    18  H    0.155490
    19  H    0.141469
    20  H    0.155424
    21  H    0.155502
    22  H    0.151802
    23  H    0.150842
    24  H    0.165922
    25  C   -0.297915
    26  C   -0.300887
    27  C   -0.477287
    28  H    0.149664
    29  H    0.149800
    30  H    0.153721
    31  H    0.160382
    32  H    0.152819
    33  H    0.152173
    34  H    0.169029
 Sum of Mulliken charges =  -0.00000

 Dipole moment (field-independent basis, Debye):
    X=              0.3969    Y=             -4.9851    Z=              0.8613  Tot=              5.0745
 Quadrupole moment (field-independent basis, Debye-Ang):
   XX=            -92.4869   YY=            -97.7570   ZZ=            -93.6110
   XY=             11.0365   XZ=             -4.7219   YZ=              0.3433

 Normal termination of Gaussian 16 at Thu May  6 14:17:41 2021.
