 Gaussian 16, Revision A.03,
 Gaussian 16:  EM64L-G16RevA.03 25-Dec-2016

 -------------
 #p 6-31g* mp2
 -------------

 ------------------------------------------------------
 Input file generated by CHIRIPA (05-May-2021 14:57:22)
 ------------------------------------------------------
 Symbolic Z-matrix:
 Charge =  0 Multiplicity = 1

                         Standard orientation:
 ---------------------------------------------------------------------
 Center     Atomic      Atomic             Coordinates (Angstroms)
 Number     Number       Type             X           Y           Z
 ---------------------------------------------------------------------
      1          6           0       -3.557748    2.335470   -0.547460
      2          6           0       -4.728675    1.570671   -0.524359
      3          6           0       -4.673271    0.194554   -0.283979
      4          6           0       -3.424463   -0.386723   -0.069769
      5          6           0       -2.240106    0.348332   -0.086550
      6          6           0       -2.319384    1.722940   -0.328867
      7          1           0       -3.610060    3.403884   -0.734945
      8          1           0       -5.691791    2.043687   -0.693790
      9          1           0       -5.564115   -0.421292   -0.260593
     10          1           0       -1.294638   -0.151458    0.085836
     11          1           0       -1.408387    2.314402   -0.346230
     12          7           0       -3.353173   -1.842757    0.185735
     13          8           0       -2.240634   -2.331002    0.371509
     14          8           0       -4.411184   -2.468182    0.195389
     15          6           0        1.966393    2.026782    0.931049
     16          6           0        1.584571    0.697557    1.140555
     17          6           0        2.391152   -0.352143    0.690994
     18          6           0        3.578310   -0.035003    0.032685
     19          6           0        3.986014    1.279126   -0.191214
     20          6           0        3.163785    2.312821    0.267003
     21          1           0        1.333744    2.835997    1.283640
     22          1           0        0.655201    0.472442    1.655957
     23          1           0        2.119636   -1.390195    0.839808
     24          1           0        4.918143    1.472196   -0.708205
     25          1           0        3.462836    3.344170    0.102895
     26          7           0        4.440484   -1.137802   -0.447827
     27          8           0        5.481570   -0.831944   -1.025085
     28          8           0        4.058844   -2.287149   -0.238095
 ---------------------------------------------------------------------

 SCF Done:  E(RHF) =  -868.337249021     A.U. after   16 cycles
 E2 =    -0.2600579864D+01 EUMP2 =    -0.87093782888569D+03

 The electronic state is 1-A.
 Alpha  occ. eigenvalues --  -20.61259 -20.61242 -20.60937 -20.60917 -15.86309
 Alpha  occ. eigenvalues --  -15.85990 -11.31756 -11.31559 -11.28368 -11.28298
 Alpha  occ. eigenvalues --  -11.28179 -11.28131 -11.28085 -11.28053 -11.27415
 Alpha  occ. eigenvalues --  -11.27326 -11.27269 -11.27245  -1.60324  -1.60002
 Alpha  occ. eigenvalues --   -1.39878  -1.39548  -1.19937  -1.19780  -1.09313
 Alpha  occ. eigenvalues --   -1.09158  -1.05369  -1.05196  -0.96136  -0.95943
 Alpha  occ. eigenvalues --   -0.86759  -0.86600  -0.82971  -0.82763  -0.78034
 Alpha  occ. eigenvalues --   -0.77734  -0.72525  -0.72204  -0.71648  -0.71329
 Alpha  occ. eigenvalues --   -0.71055  -0.70906  -0.65602  -0.65462  -0.65380
 Alpha  occ. eigenvalues --   -0.65186  -0.62822  -0.62394  -0.55852  -0.55761
 Alpha  occ. eigenvalues --   -0.53682  -0.53544  -0.53504  -0.53199  -0.49289
 Alpha  occ. eigenvalues --   -0.49275  -0.48985  -0.48943  -0.45264  -0.44907
 Alpha  occ. eigenvalues --   -0.37912  -0.37818  -0.36968  -0.36805
 Alpha virt. eigenvalues --    0.04515   0.04732   0.10645   0.10722   0.15978
 Alpha virt. eigenvalues --    0.16019   0.19350   0.21982   0.25565   0.25802
 Alpha virt. eigenvalues --    0.28067   0.29338   0.29849   0.31175   0.32450

 Mulliken charges:
               1
     1  C   -0.170415
     2  C   -0.218079
     3  C   -0.169785
     4  C    0.160675
     5  C   -0.176888
     6  C   -0.221154
     7  H    0.226179
     8  H    0.225539
     9  H    0.277673
    10  H    0.273838
    11  H    0.219634
    12  N    0.488106
    13  O   -0.461698
    14  O   -0.457332
    15  C   -0.175860
    16  C   -0.228047
    17  C   -0.170253
    18  C    0.159098
    19  C   -0.169425
    20  C   -0.218543
    21  H    0.222291
    22  H    0.225756
    23  H    0.285235
    24  H    0.277455
    25  H    0.223883
    26  N    0.487780
    27  O   -0.460185
    28  O   -0.455476
 Sum of Mulliken charges =  -0.00000

 Dipole moment (field-independent basis, Debye):
    X=             -3.2466    Y=              8.8467    Z=              0.7408  Tot=              9.4527
 Quadrupole moment (field-independent basis, Debye-Ang):
   XX=           -116.5284   YY=           -107.6997   ZZ=           -105.4991
   XY=             -0.8915   XZ=              8.3710   YZ=             -1.4413

 Normal termination of Gaussian 16 at Thu May  6 22:38:28 2021.
