 Gaussian 16, Revision A.03,
 Gaussian 16:  EM64L-G16RevA.03 25-Dec-2016

 -------------
 #p 6-31g* mp2
 -------------

 ------------------------------------------------------
 Input file generated by CHIRIPA (05-May-2021 14:57:22)
 ------------------------------------------------------
 Symbolic Z-matrix:
 Charge =  0 Multiplicity = 1

                         Standard orientation:
 ---------------------------------------------------------------------
 Center     Atomic      Atomic             Coordinates (Angstroms)
 Number     Number       Type             X           Y           Z
 ---------------------------------------------------------------------
      1          6           0       -1.324238   -1.279089    0.964574
      2          6           0       -2.352781   -0.848801    1.809247
      3          6           0       -3.526825   -0.305844    1.278805
      4          6           0       -3.639284   -0.207561   -0.107191
      5          6           0       -2.632289   -0.627421   -0.974928
      6          6           0       -1.467023   -1.167223   -0.422372
      7          1           0       -0.415622   -1.699645    1.385223
      8          1           0       -2.244649   -0.934460    2.886751
      9          1           0       -4.338766    0.035075    1.909632
     10          1           0       -2.769123   -0.529196   -2.044996
     11          1           0       -0.669886   -1.500571   -1.080777
     12          7           0       -4.877545    0.365573   -0.680451
     13          8           0       -4.952103    0.441323   -1.904926
     14          8           0       -5.750090    0.728192    0.105558
     15          6           0        2.101265    2.356595    0.617071
     16          6           0        3.300740    2.484054   -0.091120
     17          6           0        4.048074    1.352557   -0.431343
     18          6           0        3.564164    0.103391   -0.045717
     19          6           0        2.372860   -0.056223    0.660404
     20          6           0        1.641963    1.089098    0.989915
     21          1           0        1.527102    3.240939    0.877203
     22          1           0        3.659873    3.467144   -0.381985
     23          1           0        4.979988    1.422445   -0.979129
     24          1           0        2.040486   -1.049543    0.936560
     25          1           0        0.710782    0.987094    1.539954
     26          7           0        4.346633   -1.101791   -0.400226
     27          8           0        3.898671   -2.191056   -0.048844
     28          8           0        5.393078   -0.934329   -1.022758
 ---------------------------------------------------------------------

 SCF Done:  E(RHF) =  -868.337233557     A.U. after   16 cycles
 E2 =    -0.2601205754D+01 EUMP2 =    -0.87093843931125D+03

 The electronic state is 1-A.
 Alpha  occ. eigenvalues --  -20.61462 -20.61435 -20.61257 -20.61249 -15.86503
 Alpha  occ. eigenvalues --  -15.86311 -11.31890 -11.31806 -11.28527 -11.28375
 Alpha  occ. eigenvalues --  -11.28363 -11.28317 -11.28198 -11.28075 -11.27479
 Alpha  occ. eigenvalues --  -11.27413 -11.27376 -11.27372  -1.60525  -1.60329
 Alpha  occ. eigenvalues --   -1.40081  -1.39878  -1.20035  -1.19982  -1.09414
 Alpha  occ. eigenvalues --   -1.09372  -1.05445  -1.05378  -0.96264  -0.96181
 Alpha  occ. eigenvalues --   -0.86828  -0.86776  -0.83129  -0.82962  -0.78167
 Alpha  occ. eigenvalues --   -0.78003  -0.72719  -0.72525  -0.71851  -0.71654
 Alpha  occ. eigenvalues --   -0.71319  -0.70955  -0.65687  -0.65631  -0.65435
 Alpha  occ. eigenvalues --   -0.65351  -0.62817  -0.62693  -0.56039  -0.55786
 Alpha  occ. eigenvalues --   -0.53914  -0.53697  -0.53455  -0.53389  -0.49487
 Alpha  occ. eigenvalues --   -0.49464  -0.49295  -0.49273  -0.45483  -0.45253
 Alpha  occ. eigenvalues --   -0.38115  -0.37943  -0.37138  -0.36794
 Alpha virt. eigenvalues --    0.04305   0.04524   0.10543   0.10657   0.15728
 Alpha virt. eigenvalues --    0.15992   0.18889   0.21867   0.24875   0.26629
 Alpha virt. eigenvalues --    0.27422   0.29533   0.29925   0.30920   0.31978

 Mulliken charges:
               1
     1  C   -0.180952
     2  C   -0.222494
     3  C   -0.171145
     4  C    0.159181
     5  C   -0.171294
     6  C   -0.216969
     7  H    0.225650
     8  H    0.225018
     9  H    0.277185
    10  H    0.278530
    11  H    0.230587
    12  N    0.487778
    13  O   -0.458192
    14  O   -0.459296
    15  C   -0.171428
    16  C   -0.217570
    17  C   -0.170822
    18  C    0.160524
    19  C   -0.180452
    20  C   -0.216490
    21  H    0.229221
    22  H    0.226528
    23  H    0.277545
    24  H    0.266752
    25  H    0.225014
    26  N    0.488100
    27  O   -0.463657
    28  O   -0.456852
 Sum of Mulliken charges =  -0.00000

 Dipole moment (field-independent basis, Debye):
    X=              1.5394    Y=              2.3842    Z=              3.1070  Tot=              4.2081
 Quadrupole moment (field-independent basis, Debye-Ang):
   XX=           -153.2762   YY=           -102.1905   ZZ=           -100.8394
   XY=             23.8924   XZ=             -7.0175   YZ=             -0.9241

 Normal termination of Gaussian 16 at Fri May  7 07:54:45 2021.
