 Gaussian 16, Revision A.03,
 Gaussian 16:  EM64L-G16RevA.03 25-Dec-2016

 -------------
 #p 6-31g* mp2
 -------------

 ------------------------------------------------------
 Input file generated by CHIRIPA (05-May-2021 14:53:14)
 ------------------------------------------------------
 Symbolic Z-matrix:
 Charge =  0 Multiplicity = 1

                         Standard orientation:
 ---------------------------------------------------------------------
 Center     Atomic      Atomic             Coordinates (Angstroms)
 Number     Number       Type             X           Y           Z
 ---------------------------------------------------------------------
      1          6           0        2.852841   -0.200537   -0.001189
      2          6           0        3.158820   -1.240147   -1.079879
      3          6           0        3.400018   -2.635932   -0.504204
      4          1           0        3.687471   -0.165247    0.712318
      5          1           0        1.968983   -0.521469    0.567312
      6          1           0        4.041014   -0.916661   -1.647071
      7          1           0        2.323450   -1.272829   -1.791008
      8          1           0        2.519184   -2.983522    0.045264
      9          1           0        4.246507   -2.625330    0.190019
     10          1           0        3.616942   -3.363396   -1.292619
     11          6           0        2.609379    1.199800   -0.561111
     12          6           0        2.303399    2.239410    0.517579
     13          6           0        2.062202    3.635195   -0.058096
     14          1           0        3.493237    1.520732   -1.129611
     15          1           0        1.774749    1.164511   -1.274618
     16          1           0        3.138770    2.272092    1.228708
     17          1           0        1.421205    1.915924    1.084771
     18          1           0        1.215712    3.624593   -0.752318
     19          1           0        2.943035    3.982785   -0.607563
     20          1           0        1.845277    4.362659    0.730320
     21          6           0       -0.382153   -1.775574    1.394040
     22          6           0       -1.091925   -2.312777    0.315079
     23          6           0       -2.064637   -1.554369   -0.343097
     24          6           0       -2.303010   -0.256417    0.106112
     25          6           0       -1.612542    0.306936    1.178108
     26          6           0       -0.644264   -0.469734    1.821358
     27          1           0        0.371751   -2.371817    1.899530
     28          1           0       -0.890471   -3.326624   -0.018952
     29          1           0       -2.628849   -1.945437   -1.181041
     30          1           0       -1.835556    1.320600    1.488220
     31          1           0       -0.094591   -0.049934    2.659016
     32          7           0       -3.330430    0.556142   -0.582769
     33          8           0       -3.521698    1.697097   -0.167710
     34          8           0       -3.924999    0.036684   -1.524729
 ---------------------------------------------------------------------

 SCF Done:  E(RHF) =  -669.534542385     A.U. after   15 cycles
 E2 =    -0.2094822124D+01 EUMP2 =    -0.67162936450968D+03

 The electronic state is 1-A.
 Alpha  occ. eigenvalues --  -20.60877 -20.60871 -15.85933 -11.31343 -11.27921
 Alpha  occ. eigenvalues --  -11.27915 -11.27647 -11.26934 -11.26917 -11.22060
 Alpha  occ. eigenvalues --  -11.21945 -11.21790 -11.21702 -11.21637 -11.21240
 Alpha  occ. eigenvalues --   -1.59952  -1.39504  -1.19533  -1.08958  -1.08763
 Alpha  occ. eigenvalues --   -1.04934  -1.03939  -0.96381  -0.95743  -0.87400
 Alpha  occ. eigenvalues --   -0.86327  -0.82568  -0.80007  -0.78638  -0.77597
 Alpha  occ. eigenvalues --   -0.72149  -0.71278  -0.70635  -0.65480  -0.65180
 Alpha  occ. eigenvalues --   -0.64895  -0.62279  -0.61336  -0.59760  -0.58002
 Alpha  occ. eigenvalues --   -0.55703  -0.55419  -0.53323  -0.53075  -0.53000
 Alpha  occ. eigenvalues --   -0.52804  -0.50331  -0.48912  -0.48901  -0.48333
 Alpha  occ. eigenvalues --   -0.47047  -0.46169  -0.46083  -0.44900  -0.44159
 Alpha  occ. eigenvalues --   -0.37381  -0.36487
 Alpha virt. eigenvalues --    0.04860   0.10992   0.16167   0.19960   0.22969
 Alpha virt. eigenvalues --    0.23253   0.26104   0.26402   0.26815   0.28100
 Alpha virt. eigenvalues --    0.29139   0.30430   0.31288   0.31669   0.31803

 Mulliken charges:
               1
     1  C   -0.306839
     2  C   -0.299025
     3  C   -0.475372
     4  H    0.146381
     5  H    0.154887
     6  H    0.154138
     7  H    0.153949
     8  H    0.143635
     9  H    0.156269
    10  H    0.162517
    11  C   -0.297188
    12  C   -0.301169
    13  C   -0.476636
    14  H    0.150536
    15  H    0.152945
    16  H    0.150290
    17  H    0.145699
    18  H    0.159987
    19  H    0.156263
    20  H    0.160082
    21  C   -0.173168
    22  C   -0.218685
    23  C   -0.170905
    24  C    0.158130
    25  C   -0.171021
    26  C   -0.217198
    27  H    0.229010
    28  H    0.224951
    29  H    0.276414
    30  H    0.276704
    31  H    0.226231
    32  N    0.488015
    33  O   -0.459851
    34  O   -0.459977
 Sum of Mulliken charges =  -0.00000

 Dipole moment (field-independent basis, Debye):
    X=              3.5150    Y=             -2.8345    Z=              2.3635  Tot=              5.0966
 Quadrupole moment (field-independent basis, Debye-Ang):
   XX=           -111.2379   YY=            -91.7268   ZZ=            -92.7247
   XY=              7.0464   XZ=             -4.7763   YZ=              1.9664

 Normal termination of Gaussian 16 at Thu May  6 05:49:02 2021.
