 Gaussian 16, Revision A.03,
 Gaussian 16:  EM64L-G16RevA.03 25-Dec-2016

 -------------
 #p 6-31g* mp2
 -------------

 ------------------------------------------------------
 Input file generated by CHIRIPA (05-May-2021 14:55:25)
 ------------------------------------------------------
 Symbolic Z-matrix:
 Charge =  0 Multiplicity = 1

                         Standard orientation:
 ---------------------------------------------------------------------
 Center     Atomic      Atomic             Coordinates (Angstroms)
 Number     Number       Type             X           Y           Z
 ---------------------------------------------------------------------
      1          6           0        4.120494    0.143260   -1.229297
      2          6           0        3.707106    0.979555   -0.187068
      3          6           0        2.639079    0.612261    0.636924
      4          6           0        2.004203   -0.603817    0.389183
      5          6           0        2.392673   -1.458642   -0.641184
      6          6           0        3.463117   -1.071029   -1.452635
      7          1           0        4.951102    0.436475   -1.864523
      8          1           0        4.215776    1.923166   -0.011288
      9          1           0        2.298401    1.240631    1.450870
     10          1           0        1.866031   -2.393186   -0.791828
     11          1           0        3.781996   -1.722504   -2.261301
     12          7           0        0.872251   -1.003410    1.254868
     13          8           0        0.329451   -2.079921    1.015854
     14          8           0        0.549262   -0.232534    2.156014
     15          6           0       -2.573415    1.335411    0.018837
     16          6           0       -1.261450    1.877258   -0.549615
     17          6           0       -0.812827    3.171621    0.129469
     18          1           0       -3.355941    2.098740   -0.090372
     19          1           0       -2.453897    1.162375    1.097340
     20          1           0       -1.382981    2.047915   -1.626983
     21          1           0       -0.482001    1.112478   -0.439214
     22          1           0       -0.663905    3.012203    1.202319
     23          1           0       -1.570003    3.952954    0.007802
     24          1           0        0.127015    3.541364   -0.292252
     25          6           0       -3.034937    0.041765   -0.649897
     26          6           0       -4.346901   -0.500082   -0.081445
     27          6           0       -4.795525   -1.794445   -0.760528
     28          1           0       -3.154456    0.214801   -1.728400
     29          1           0       -2.252411   -0.721564   -0.540689
     30          1           0       -5.126350    0.264698   -0.191845
     31          1           0       -4.225371   -0.670738    0.995924
     32          1           0       -4.038349   -2.575779   -0.638861
     33          1           0       -4.944448   -1.635027   -1.833379
     34          1           0       -5.735367   -2.164188   -0.338807
 ---------------------------------------------------------------------

 SCF Done:  E(RHF) =  -669.536445187     A.U. after   15 cycles
 E2 =    -0.2093292735D+01 EUMP2 =    -0.67162973792163D+03

 The electronic state is 1-A.
 Alpha  occ. eigenvalues --  -20.61024 -20.61016 -15.86032 -11.31303 -11.27866
 Alpha  occ. eigenvalues --  -11.27859 -11.27595 -11.26859 -11.26849 -11.21120
 Alpha  occ. eigenvalues --  -11.20759 -11.20712 -11.20572 -11.20495 -11.20306
 Alpha  occ. eigenvalues --   -1.60072  -1.39628  -1.19475  -1.08890  -1.07678
 Alpha  occ. eigenvalues --   -1.04858  -1.02872  -0.95736  -0.95318  -0.86348
 Alpha  occ. eigenvalues --   -0.86262  -0.82569  -0.78958  -0.77630  -0.77480
 Alpha  occ. eigenvalues --   -0.72257  -0.71413  -0.70578  -0.65129  -0.64861
 Alpha  occ. eigenvalues --   -0.64259  -0.62206  -0.60258  -0.58721  -0.56943
 Alpha  occ. eigenvalues --   -0.55366  -0.54588  -0.53186  -0.52948  -0.52074
 Alpha  occ. eigenvalues --   -0.51759  -0.49260  -0.49024  -0.49007  -0.47287
 Alpha  occ. eigenvalues --   -0.45992  -0.45092  -0.45030  -0.44791  -0.43101
 Alpha  occ. eigenvalues --   -0.37427  -0.36447
 Alpha virt. eigenvalues --    0.04862   0.11163   0.16340   0.21186   0.23357
 Alpha virt. eigenvalues --    0.24727   0.27045   0.27122   0.27909   0.28334
 Alpha virt. eigenvalues --    0.28866   0.30766   0.31773   0.32096   0.32473

 Mulliken charges:
               1
     1  C   -0.170251
     2  C   -0.218505
     3  C   -0.170487
     4  C    0.155522
     5  C   -0.171120
     6  C   -0.218449
     7  H    0.226147
     8  H    0.224136
     9  H    0.276784
    10  H    0.275921
    11  H    0.223959
    12  N    0.491244
    13  O   -0.459447
    14  O   -0.459487
    15  C   -0.301103
    16  C   -0.296265
    17  C   -0.478340
    18  H    0.145350
    19  H    0.163124
    20  H    0.147907
    21  H    0.145665
    22  H    0.162253
    23  H    0.154586
    24  H    0.151480
    25  C   -0.301681
    26  C   -0.299220
    27  C   -0.476461
    28  H    0.143310
    29  H    0.158829
    30  H    0.147851
    31  H    0.157970
    32  H    0.159796
    33  H    0.150980
    34  H    0.158000
 Sum of Mulliken charges =  -0.00000

 Dipole moment (field-independent basis, Debye):
    X=              4.1228    Y=              1.2748    Z=             -2.8768  Tot=              5.1864
 Quadrupole moment (field-independent basis, Debye-Ang):
   XX=            -79.5350   YY=            -93.9970   ZZ=            -96.0466
   XY=              0.3480   XZ=             -4.7854   YZ=              4.4220

 Normal termination of Gaussian 16 at Thu May  6 12:45:20 2021.
