 Gaussian 16, Revision A.03,
 Gaussian 16:  EM64L-G16RevA.03 25-Dec-2016

 -------------
 #p 6-31g* mp2
 -------------

 ------------------------------------------------------
 Input file generated by CHIRIPA (05-May-2021 14:57:26)
 ------------------------------------------------------
 Symbolic Z-matrix:
 Charge =  0 Multiplicity = 1

                         Standard orientation:
 ---------------------------------------------------------------------
 Center     Atomic      Atomic             Coordinates (Angstroms)
 Number     Number       Type             X           Y           Z
 ---------------------------------------------------------------------
      1          6           0       -1.842107   -0.478196    1.553486
      2          6           0       -1.693535    0.113315    0.294692
      3          6           0       -2.807620    0.341616   -0.518476
      4          6           0       -4.061090   -0.035735   -0.039195
      5          6           0       -4.241556   -0.627041    1.210237
      6          6           0       -3.113402   -0.845838    2.006442
      7          1           0       -0.971194   -0.651855    2.178586
      8          1           0       -0.707448    0.399853   -0.059669
      9          1           0       -2.721226    0.797807   -1.497171
     10          1           0       -5.237356   -0.901897    1.536204
     11          1           0       -3.231785   -1.305395    2.983600
     12          7           0       -5.247969    0.200927   -0.891080
     13          8           0       -6.341455   -0.140620   -0.445804
     14          8           0       -5.062285    0.723488   -1.987934
     15          6           0        4.428077   -2.325691   -0.637248
     16          6           0        5.440363   -1.361139   -0.599328
     17          6           0        5.140213   -0.028138   -0.303412
     18          6           0        3.811088    0.306804   -0.049384
     19          6           0        2.780311   -0.631213   -0.079621
     20          6           0        3.103617   -1.958297   -0.377731
     21          1           0        4.670234   -3.358900   -0.867975
     22          1           0        6.469838   -1.643586   -0.800452
     23          1           0        5.904293    0.738871   -0.267398
     24          1           0        1.763371   -0.319346    0.125290
     25          1           0        2.315408   -2.705254   -0.406484
     26          7           0        3.481076    1.714861    0.265050
     27          8           0        2.302271    1.984355    0.485119
     28          8           0        4.407465    2.522339    0.285481
 ---------------------------------------------------------------------

 SCF Done:  E(RHF) =  -868.337823331     A.U. after   16 cycles
 E2 =    -0.2599493493D+01 EUMP2 =    -0.87093731682425D+03

 The electronic state is 1-A.
 Alpha  occ. eigenvalues --  -20.61625 -20.61583 -20.60696 -20.60690 -15.86654
 Alpha  occ. eigenvalues --  -15.85749 -11.31998 -11.31127 -11.28659 -11.28484
 Alpha  occ. eigenvalues --  -11.28218 -11.27704 -11.27681 -11.27566 -11.27488
 Alpha  occ. eigenvalues --  -11.27466 -11.26732 -11.26707  -1.60671  -1.59771
 Alpha  occ. eigenvalues --   -1.40232  -1.39323  -1.20146  -1.19304  -1.09530
 Alpha  occ. eigenvalues --   -1.08704  -1.05552  -1.04704  -0.96382  -0.95534
 Alpha  occ. eigenvalues --   -0.86949  -0.86110  -0.83219  -0.82360  -0.78296
 Alpha  occ. eigenvalues --   -0.77399  -0.72872  -0.71988  -0.71968  -0.71257
 Alpha  occ. eigenvalues --   -0.71094  -0.70423  -0.65797  -0.65570  -0.64958
 Alpha  occ. eigenvalues --   -0.64710  -0.62927  -0.62024  -0.56016  -0.55227
 Alpha  occ. eigenvalues --   -0.53864  -0.53659  -0.53037  -0.52774  -0.49644
 Alpha  occ. eigenvalues --   -0.49607  -0.48727  -0.48720  -0.45640  -0.44726
 Alpha  occ. eigenvalues --   -0.38091  -0.37298  -0.37149  -0.36304
 Alpha virt. eigenvalues --    0.04252   0.05130   0.10496   0.11314   0.15784
 Alpha virt. eigenvalues --    0.16615   0.18614   0.21868   0.24913   0.27058
 Alpha virt. eigenvalues --    0.28101   0.29035   0.30267   0.30960   0.31816

 Mulliken charges:
               1
     1  C   -0.172784
     2  C   -0.226568
     3  C   -0.170948
     4  C    0.158853
     5  C   -0.171271
     6  C   -0.218603
     7  H    0.224052
     8  H    0.233666
     9  H    0.277498
    10  H    0.275451
    11  H    0.223040
    12  N    0.487897
    13  O   -0.460777
    14  O   -0.459780
    15  C   -0.170053
    16  C   -0.218059
    17  C   -0.169436
    18  C    0.158725
    19  C   -0.175247
    20  C   -0.220534
    21  H    0.228602
    22  H    0.226530
    23  H    0.277933
    24  H    0.271585
    25  H    0.225170
    26  N    0.488320
    27  O   -0.468272
    28  O   -0.454990
 Sum of Mulliken charges =  -0.00000

 Dipole moment (field-independent basis, Debye):
    X=              5.6155    Y=             -5.7988    Z=              1.8432  Tot=              8.2800
 Quadrupole moment (field-independent basis, Debye-Ang):
   XX=           -122.4281   YY=           -107.7416   ZZ=           -103.5807
   XY=            -13.0801   XZ=            -19.8156   YZ=             -1.8353

 Normal termination of Gaussian 16 at Fri May  7 12:44:00 2021.
