 Gaussian 16, Revision A.03,
 Gaussian 16:  EM64L-G16RevA.03 25-Dec-2016

 -------------
 #p 6-31g* mp2
 -------------

 ------------------------------------------------------
 Input file generated by CHIRIPA (05-May-2021 14:53:14)
 ------------------------------------------------------
 Symbolic Z-matrix:
 Charge =  0 Multiplicity = 1

                         Standard orientation:
 ---------------------------------------------------------------------
 Center     Atomic      Atomic             Coordinates (Angstroms)
 Number     Number       Type             X           Y           Z
 ---------------------------------------------------------------------
      1          6           0        1.567397    1.431867   -0.568685
      2          6           0        0.888233    2.678773   -0.001284
      3          6           0       -0.205702    3.225455   -0.919019
      4          1           0        1.996722    1.670968   -1.551261
      5          1           0        0.808931    0.655383   -0.739558
      6          1           0        1.647958    3.452193    0.169765
      7          1           0        0.460641    2.436727    0.980141
      8          1           0       -0.984483    2.473146   -1.080675
      9          1           0        0.209579    3.494381   -1.895656
     10          1           0       -0.677922    4.116695   -0.494094
     11          6           0        2.663314    0.873581    0.337412
     12          6           0        3.342478   -0.373326   -0.229989
     13          6           0        4.436414   -0.920008    0.687746
     14          1           0        3.421780    1.650065    0.508285
     15          1           0        2.233989    0.634480    1.319988
     16          1           0        3.770070   -0.131280   -1.211414
     17          1           0        2.582754   -1.146745   -0.401037
     18          1           0        4.021132   -1.188934    1.664384
     19          1           0        5.215194   -0.167698    0.849403
     20          1           0        4.908633   -1.811247    0.262821
     21          6           0       -3.275920    0.876137    0.848069
     22          6           0       -3.285570    0.440052   -0.480937
     23          6           0       -2.390682   -0.543828   -0.911869
     24          6           0       -1.495687   -1.072330    0.017086
     25          6           0       -1.461535   -0.658639    1.347869
     26          6           0       -2.365539    0.326369    1.756629
     27          1           0       -3.974631    1.640877    1.174216
     28          1           0       -3.991470    0.865230   -1.188732
     29          1           0       -2.376500   -0.899775   -1.934864
     30          1           0       -0.746124   -1.101234    2.030302
     31          1           0       -2.355775    0.663114    2.789369
     32          7           0       -0.543484   -2.114518   -0.427386
     33          8           0        0.235100   -2.564294    0.410555
     34          8           0       -0.593763   -2.461874   -1.605287
 ---------------------------------------------------------------------

 SCF Done:  E(RHF) =  -669.535634114     A.U. after   15 cycles
 E2 =    -0.2096023340D+01 EUMP2 =    -0.67163165745393D+03

 The electronic state is 1-A.
 Alpha  occ. eigenvalues --  -20.61055 -20.61050 -15.86070 -11.31393 -11.27976
 Alpha  occ. eigenvalues --  -11.27966 -11.27704 -11.26980 -11.26967 -11.21499
 Alpha  occ. eigenvalues --  -11.21090 -11.21036 -11.20903 -11.20645 -11.20267
 Alpha  occ. eigenvalues --   -1.60113  -1.39667  -1.19590  -1.08985  -1.08020
 Alpha  occ. eigenvalues --   -1.04979  -1.03063  -0.95819  -0.95565  -0.86589
 Alpha  occ. eigenvalues --   -0.86371  -0.82651  -0.79180  -0.77798  -0.77704
 Alpha  occ. eigenvalues --   -0.72293  -0.71460  -0.70672  -0.65236  -0.64968
 Alpha  occ. eigenvalues --   -0.64651  -0.62317  -0.60483  -0.58971  -0.57154
 Alpha  occ. eigenvalues --   -0.55468  -0.54888  -0.53285  -0.53058  -0.52259
 Alpha  occ. eigenvalues --   -0.51992  -0.49549  -0.49073  -0.49054  -0.47468
 Alpha  occ. eigenvalues --   -0.46251  -0.45415  -0.45317  -0.44782  -0.43347
 Alpha  occ. eigenvalues --   -0.37491  -0.36535
 Alpha virt. eigenvalues --    0.04764   0.11029   0.16233   0.21077   0.22923
 Alpha virt. eigenvalues --    0.24636   0.26435   0.26935   0.27882   0.28179
 Alpha virt. eigenvalues --    0.28557   0.30751   0.31736   0.32057   0.32198

 Mulliken charges:
               1
     1  C   -0.299175
     2  C   -0.297214
     3  C   -0.480232
     4  H    0.150784
     5  H    0.146528
     6  H    0.151233
     7  H    0.147034
     8  H    0.157391
     9  H    0.154961
    10  H    0.154629
    11  C   -0.297007
    12  C   -0.308249
    13  C   -0.474124
    14  H    0.146812
    15  H    0.144598
    16  H    0.148572
    17  H    0.173413
    18  H    0.154918
    19  H    0.149452
    20  H    0.162209
    21  C   -0.168557
    22  C   -0.218669
    23  C   -0.172101
    24  C    0.156867
    25  C   -0.170874
    26  C   -0.217641
    27  H    0.227253
    28  H    0.225299
    29  H    0.276964
    30  H    0.276305
    31  H    0.224789
    32  N    0.490753
    33  O   -0.459053
    34  O   -0.457868
 Sum of Mulliken charges =  -0.00000

 Dipole moment (field-independent basis, Debye):
    X=             -3.5551    Y=              3.4079    Z=              1.5465  Tot=              5.1618
 Quadrupole moment (field-independent basis, Debye-Ang):
   XX=            -84.7457   YY=           -103.7109   ZZ=            -90.5890
   XY=             -1.6173   XZ=             -1.3969   YZ=             -1.7414

 Normal termination of Gaussian 16 at Thu May  6 20:22:17 2021.
