 Gaussian 16, Revision A.03,
 Gaussian 16:  EM64L-G16RevA.03 25-Dec-2016

 -------------
 #p 6-31g* mp2
 -------------

 ------------------------------------------------------
 Input file generated by CHIRIPA (05-May-2021 14:51:14)
 ------------------------------------------------------
 Symbolic Z-matrix:
 Charge =  0 Multiplicity = 1

                         Standard orientation:
 ---------------------------------------------------------------------
 Center     Atomic      Atomic             Coordinates (Angstroms)
 Number     Number       Type             X           Y           Z
 ---------------------------------------------------------------------
      1          6           0       -3.671915    0.799514   -0.251631
      2          6           0       -3.212346    2.005853    0.567836
      3          6           0       -4.124685    3.220499    0.394439
      4          1           0       -3.713889    1.079809   -1.313054
      5          1           0       -4.696910    0.534316    0.042390
      6          1           0       -2.188017    2.267837    0.273337
      7          1           0       -3.171277    1.722597    1.627410
      8          1           0       -5.146620    2.982431    0.706806
      9          1           0       -4.157774    3.530769   -0.654960
     10          1           0       -3.777710    4.071356    0.989006
     11          6           0       -2.769923   -0.422621   -0.088763
     12          6           0       -3.229491   -1.628960   -0.908231
     13          6           0       -2.317152   -2.843606   -0.734833
     14          1           0       -1.744927   -0.157423   -0.382784
     15          1           0       -2.727948   -0.702916    0.972660
     16          1           0       -3.270561   -1.345704   -1.967804
     17          1           0       -4.253820   -1.890944   -0.613731
     18          1           0       -2.284063   -3.153876    0.314566
     19          1           0       -1.295217   -2.605538   -1.047201
     20          1           0       -2.664127   -3.694463   -1.329401
     21          6           0        3.856520    0.212128    0.307976
     22          6           0        4.278784    1.100900   -0.862393
     23          6           0        5.551988    1.895986   -0.571561
     24          1           0        3.704796    0.837152    1.198633
     25          1           0        4.675485   -0.480121    0.547731
     26          1           0        3.458738    1.790333   -1.100765
     27          1           0        4.429336    0.473710   -1.750415
     28          1           0        6.386489    1.221246   -0.354918
     29          1           0        5.410378    2.545350    0.298424
     30          1           0        5.835738    2.524513   -1.421443
     31          6           0        2.585318   -0.589021    0.032418
     32          6           0        2.163053   -1.477793    1.202787
     33          6           0        0.889849   -2.272879    0.911956
     34          1           0        1.766352    0.103228   -0.207336
     35          1           0        2.737041   -1.214045   -0.858238
     36          1           0        2.012502   -0.850603    2.090809
     37          1           0        2.983099   -2.167226    1.441160
     38          1           0        1.031460   -2.922243    0.041971
     39          1           0        0.055348   -1.598139    0.695312
     40          1           0        0.606099   -2.901406    1.761838
 ---------------------------------------------------------------------

 SCF Done:  E(RHF) =  -470.731799175     A.U. after   11 cycles
 E2 =    -0.1583907805D+01 EUMP2 =    -0.47231570698010D+03

 The electronic state is 1-A.
 Alpha  occ. eigenvalues --  -11.21635 -11.21603 -11.21560 -11.21522 -11.21430
 Alpha  occ. eigenvalues --  -11.21397 -11.21371 -11.21338 -11.21095 -11.21071
 Alpha  occ. eigenvalues --  -11.20903 -11.20881  -1.08454  -1.08398  -1.03563
 Alpha  occ. eigenvalues --   -1.03447  -0.96030  -0.95878  -0.87084  -0.86866
 Alpha  occ. eigenvalues --   -0.79759  -0.79412  -0.78336  -0.78142  -0.65093
 Alpha  occ. eigenvalues --   -0.65022  -0.60934  -0.60889  -0.59367  -0.59301
 Alpha  occ. eigenvalues --   -0.57735  -0.57426  -0.55285  -0.55197  -0.52774
 Alpha  occ. eigenvalues --   -0.52648  -0.52537  -0.52119  -0.49957  -0.49845
 Alpha  occ. eigenvalues --   -0.48226  -0.47572  -0.46646  -0.46588  -0.45966
 Alpha  occ. eigenvalues --   -0.45743  -0.45709  -0.45307  -0.43776  -0.43747
 Alpha virt. eigenvalues --    0.21601   0.23186   0.23533   0.24840   0.25640
 Alpha virt. eigenvalues --    0.26599   0.26775   0.27468   0.28341   0.29444
 Alpha virt. eigenvalues --    0.30066   0.30949   0.31639   0.31860   0.32306

 Mulliken charges:
               1
     1  C   -0.297684
     2  C   -0.299625
     3  C   -0.475713
     4  H    0.149795
     5  H    0.149849
     6  H    0.151281
     7  H    0.151952
     8  H    0.155347
     9  H    0.155280
    10  H    0.160253
    11  C   -0.301976
    12  C   -0.299218
    13  C   -0.479102
    14  H    0.150357
    15  H    0.150293
    16  H    0.151428
    17  H    0.151485
    18  H    0.156211
    19  H    0.161140
    20  H    0.158748
    21  C   -0.298129
    22  C   -0.299601
    23  C   -0.475696
    24  H    0.149743
    25  H    0.149694
    26  H    0.151634
    27  H    0.151853
    28  H    0.155233
    29  H    0.155209
    30  H    0.160190
    31  C   -0.298502
    32  C   -0.300278
    33  C   -0.481385
    34  H    0.148478
    35  H    0.149203
    36  H    0.151495
    37  H    0.151269
    38  H    0.154826
    39  H    0.165598
    40  H    0.159065
 Sum of Mulliken charges =  -0.00000

 Dipole moment (field-independent basis, Debye):
    X=             -0.0219    Y=             -0.0097    Z=              0.0031  Tot=              0.0241
 Quadrupole moment (field-independent basis, Debye-Ang):
   XX=            -85.4085   YY=            -85.4662   ZZ=            -84.0549
   XY=             -0.3153   XZ=             -0.8048   YZ=              0.0160

 Normal termination of Gaussian 16 at Thu May  6 04:00:22 2021.
