 Gaussian 16, Revision A.03,
 Gaussian 16:  EM64L-G16RevA.03 25-Dec-2016

 -------------
 #p 6-31g* mp2
 -------------

 ------------------------------------------------------
 Input file generated by CHIRIPA (05-May-2021 14:55:25)
 ------------------------------------------------------
 Symbolic Z-matrix:
 Charge =  0 Multiplicity = 1

                         Standard orientation:
 ---------------------------------------------------------------------
 Center     Atomic      Atomic             Coordinates (Angstroms)
 Number     Number       Type             X           Y           Z
 ---------------------------------------------------------------------
      1          6           0       -1.382716   -2.444360    0.151020
      2          6           0       -1.397704   -1.644629    1.298507
      3          6           0       -1.914945   -0.346592    1.252579
      4          6           0       -2.411277    0.121835    0.037046
      5          6           0       -2.410242   -0.650637   -1.123374
      6          6           0       -1.888142   -1.945691   -1.054133
      7          1           0       -0.979023   -3.451548    0.195753
      8          1           0       -1.005853   -2.029274    2.235815
      9          1           0       -1.938811    0.293992    2.125792
     10          1           0       -2.807911   -0.239517   -2.043296
     11          1           0       -1.877787   -2.564524   -1.946873
     12          7           0       -2.961429    1.494430   -0.023916
     13          8           0       -3.392745    1.883740   -1.106986
     14          8           0       -2.950905    2.154970    1.012527
     15          6           0        2.702111    0.846246   -0.000111
     16          6           0        3.783656    1.916222   -0.153077
     17          6           0        3.231470    3.336718   -0.030282
     18          1           0        1.926324    1.006676   -0.761269
     19          1           0        2.212084    0.967049    0.975939
     20          1           0        4.272433    1.792572   -1.127975
     21          1           0        4.557054    1.753110    0.608410
     22          1           0        2.760945    3.483968    0.947227
     23          1           0        2.474706    3.523654   -0.799024
     24          1           0        4.021556    4.085697   -0.142769
     25          6           0        3.238638   -0.579021   -0.120448
     26          6           0        2.157094   -1.648997    0.032518
     27          6           0        2.709280   -3.069492   -0.090277
     28          1           0        3.728666   -0.699824   -1.096500
     29          1           0        4.014426   -0.739451    0.640709
     30          1           0        1.383695   -1.485886   -0.728970
     31          1           0        1.668317   -1.525348    1.007414
     32          1           0        3.466044   -3.256429    0.678464
     33          1           0        3.179805   -3.216743   -1.067786
     34          1           0        1.919194   -3.818471    0.022210
 ---------------------------------------------------------------------

 SCF Done:  E(RHF) =  -669.534669773     A.U. after   15 cycles
 E2 =    -0.2093409184D+01 EUMP2 =    -0.67162807895758D+03

 The electronic state is 1-A.
 Alpha  occ. eigenvalues --  -20.60777 -20.60771 -15.85832 -11.31204 -11.27796
 Alpha  occ. eigenvalues --  -11.27777 -11.27513 -11.26795 -11.26767 -11.21967
 Alpha  occ. eigenvalues --  -11.21756 -11.21657 -11.21641 -11.21502 -11.20967
 Alpha  occ. eigenvalues --   -1.59852  -1.39406  -1.19387  -1.08804  -1.08638
 Alpha  occ. eigenvalues --   -1.04794  -1.03784  -0.96246  -0.95607  -0.87251
 Alpha  occ. eigenvalues --   -0.86191  -0.82444  -0.79853  -0.78447  -0.77487
 Alpha  occ. eigenvalues --   -0.72050  -0.71175  -0.70499  -0.65304  -0.65037
 Alpha  occ. eigenvalues --   -0.64796  -0.62144  -0.61176  -0.59687  -0.57862
 Alpha  occ. eigenvalues --   -0.55520  -0.55288  -0.53212  -0.52904  -0.52887
 Alpha  occ. eigenvalues --   -0.52633  -0.50167  -0.48810  -0.48804  -0.48138
 Alpha  occ. eigenvalues --   -0.46884  -0.45973  -0.45904  -0.44811  -0.44035
 Alpha  occ. eigenvalues --   -0.37266  -0.36367
 Alpha virt. eigenvalues --    0.05030   0.11163   0.16436   0.20243   0.22866
 Alpha virt. eigenvalues --    0.24091   0.26080   0.26415   0.26944   0.27733
 Alpha virt. eigenvalues --    0.28848   0.29964   0.31228   0.31855   0.32289

 Mulliken charges:
               1
     1  C   -0.166178
     2  C   -0.215958
     3  C   -0.171260
     4  C    0.158703
     5  C   -0.171134
     6  C   -0.220600
     7  H    0.226852
     8  H    0.223159
     9  H    0.275508
    10  H    0.275634
    11  H    0.223617
    12  N    0.488121
    13  O   -0.460660
    14  O   -0.460320
    15  C   -0.297764
    16  C   -0.300016
    17  C   -0.476140
    18  H    0.151361
    19  H    0.148694
    20  H    0.151638
    21  H    0.151110
    22  H    0.156663
    23  H    0.158045
    24  H    0.160389
    25  C   -0.298725
    26  C   -0.301084
    27  C   -0.475900
    28  H    0.149558
    29  H    0.148999
    30  H    0.155916
    31  H    0.148368
    32  H    0.157286
    33  H    0.157565
    34  H    0.148556
 Sum of Mulliken charges =  -0.00000

 Dipole moment (field-independent basis, Debye):
    X=              1.9109    Y=             -4.7454    Z=              0.1987  Tot=              5.1195
 Quadrupole moment (field-independent basis, Debye-Ang):
   XX=           -104.8942   YY=            -97.8786   ZZ=            -89.0327
   XY=             12.6450   XZ=              0.8174   YZ=              0.4668

 Normal termination of Gaussian 16 at Thu May  6 01:38:36 2021.
