 Gaussian 16, Revision A.03,
 Gaussian 16:  EM64L-G16RevA.03 25-Dec-2016

 -------------
 #p 6-31g* mp2
 -------------

 ------------------------------------------------------
 Input file generated by CHIRIPA (05-May-2021 14:53:13)
 ------------------------------------------------------
 Symbolic Z-matrix:
 Charge =  0 Multiplicity = 1

                         Standard orientation:
 ---------------------------------------------------------------------
 Center     Atomic      Atomic             Coordinates (Angstroms)
 Number     Number       Type             X           Y           Z
 ---------------------------------------------------------------------
      1          6           0       -2.610393    0.776513   -0.408082
      2          6           0       -2.784616    2.295294   -0.377460
      3          6           0       -1.458912    3.045215   -0.511327
      4          1           0       -1.933434    0.475052    0.402962
      5          1           0       -2.119104    0.489670   -1.348162
      6          1           0       -3.276680    2.579055    0.561672
      7          1           0       -3.461391    2.593155   -1.188552
      8          1           0       -0.966122    2.790997   -1.455326
      9          1           0       -0.780362    2.776817    0.304843
     10          1           0       -1.606720    4.129383   -0.486994
     11          6           0       -3.926835    0.012917   -0.275302
     12          6           0       -3.752612   -1.505864   -0.305924
     13          6           0       -5.078316   -2.255785   -0.172057
     14          1           0       -4.418123    0.299760    0.664778
     15          1           0       -4.603794    0.314379   -1.086346
     16          1           0       -3.075837   -1.803725    0.505168
     17          1           0       -3.260548   -1.789625   -1.245056
     18          1           0       -5.756866   -1.987387   -0.988227
     19          1           0       -5.571106   -2.001567    0.771942
     20          1           0       -4.930508   -3.339953   -0.196390
     21          6           0        0.455380   -0.220592    1.665399
     22          6           0        0.782745   -1.387392    0.966880
     23          6           0        1.942816   -1.447350    0.188940
     24          6           0        2.756453   -0.316857    0.131750
     25          6           0        2.457392    0.860185    0.816165
     26          6           0        1.292272    0.897502    1.587949
     27          1           0       -0.447752   -0.182809    2.267331
     28          1           0        0.134669   -2.257245    1.025181
     29          1           0        2.220164   -2.337826   -0.362011
     30          1           0        3.123093    1.711208    0.738581
     31          1           0        1.040543    1.804997    2.129363
     32          7           0        3.987241   -0.368347   -0.688562
     33          8           0        4.687453    0.641201   -0.722512
     34          8           0        4.228414   -1.417279   -1.282040
 ---------------------------------------------------------------------

 SCF Done:  E(RHF) =  -669.534278939     A.U. after   15 cycles
 E2 =    -0.2093862073D+01 EUMP2 =    -0.67162814101200D+03

 The electronic state is 1-A.
 Alpha  occ. eigenvalues --  -20.60782 -20.60777 -15.85837 -11.31217 -11.27802
 Alpha  occ. eigenvalues --  -11.27794 -11.27552 -11.26818 -11.26799 -11.22373
 Alpha  occ. eigenvalues --  -11.22164 -11.22031 -11.21921 -11.21697 -11.21569
 Alpha  occ. eigenvalues --   -1.59858  -1.39411  -1.19407  -1.09086  -1.08793
 Alpha  occ. eigenvalues --   -1.04809  -1.04153  -0.96583  -0.95637  -0.87600
 Alpha  occ. eigenvalues --   -0.86210  -0.82465  -0.80226  -0.78893  -0.77495
 Alpha  occ. eigenvalues --   -0.72056  -0.71181  -0.70557  -0.65739  -0.65061
 Alpha  occ. eigenvalues --   -0.64800  -0.62172  -0.61553  -0.59951  -0.58200
 Alpha  occ. eigenvalues --   -0.55951  -0.55285  -0.53304  -0.53154  -0.53019
 Alpha  occ. eigenvalues --   -0.52876  -0.50530  -0.48814  -0.48809  -0.48526
 Alpha  occ. eigenvalues --   -0.47277  -0.46427  -0.46345  -0.44813  -0.44399
 Alpha  occ. eigenvalues --   -0.37268  -0.36385
 Alpha virt. eigenvalues --    0.05000   0.11089   0.16366   0.19530   0.22912
 Alpha virt. eigenvalues --    0.23252   0.25589   0.26214   0.26874   0.27641
 Alpha virt. eigenvalues --    0.30177   0.30308   0.30928   0.31249   0.31389

 Mulliken charges:
               1
     1  C   -0.301486
     2  C   -0.300370
     3  C   -0.476711
     4  H    0.146625
     5  H    0.153332
     6  H    0.149140
     7  H    0.154629
     8  H    0.159761
     9  H    0.149688
    10  H    0.161002
    11  C   -0.298608
    12  C   -0.298230
    13  C   -0.475855
    14  H    0.147932
    15  H    0.152830
    16  H    0.141218
    17  H    0.154787
    18  H    0.158244
    19  H    0.155371
    20  H    0.160896
    21  C   -0.169607
    22  C   -0.217394
    23  C   -0.170679
    24  C    0.158502
    25  C   -0.170984
    26  C   -0.217281
    27  H    0.225289
    28  H    0.224836
    29  H    0.275883
    30  H    0.276169
    31  H    0.223673
    32  N    0.488054
    33  O   -0.460234
    34  O   -0.460422
 Sum of Mulliken charges =  -0.00000

 Dipole moment (field-independent basis, Debye):
    X=             -4.3451    Y=              0.1693    Z=              2.7899  Tot=              5.1665
 Quadrupole moment (field-independent basis, Debye-Ang):
   XX=           -119.7128   YY=            -91.0249   ZZ=            -93.2726
   XY=              2.5199   XZ=              8.2534   YZ=              0.5081

 Normal termination of Gaussian 16 at Wed May  5 23:24:12 2021.
