 Gaussian 16, Revision A.03,
 Gaussian 16:  EM64L-G16RevA.03 25-Dec-2016

 -------------
 #p 6-31g* mp2
 -------------

 ------------------------------------------------------
 Input file generated by CHIRIPA (05-May-2021 14:51:12)
 ------------------------------------------------------
 Symbolic Z-matrix:
 Charge =  0 Multiplicity = 1

                         Standard orientation:
 ---------------------------------------------------------------------
 Center     Atomic      Atomic             Coordinates (Angstroms)
 Number     Number       Type             X           Y           Z
 ---------------------------------------------------------------------
      1          6           0        1.720977   -0.803176    0.447968
      2          6           0        1.678341   -2.136223    1.195733
      3          6           0        0.277351   -2.488492    1.696660
      4          1           0        1.355846   -0.006531    1.110525
      5          1           0        1.026359   -0.845354   -0.402398
      6          1           0        2.373860   -2.092030    2.043623
      7          1           0        2.043796   -2.929757    0.531382
      8          1           0       -0.424463   -2.559955    0.859432
      9          1           0       -0.092524   -1.717469    2.380265
     10          1           0        0.269829   -3.445156    2.228259
     11          6           0        3.114830   -0.437236   -0.058974
     12          6           0        3.157465    0.895811   -0.806739
     13          6           0        4.558455    1.248080   -1.307666
     14          1           0        3.809447   -0.395058    0.791392
     15          1           0        3.479960   -1.233881   -0.721531
     16          1           0        2.792010    1.689345   -0.142388
     17          1           0        2.461946    0.851618   -1.654629
     18          1           0        4.928330    0.477057   -1.991271
     19          1           0        5.260270    1.319544   -0.470438
     20          1           0        4.565977    2.204744   -1.839265
     21          6           0       -2.237484   -0.064587   -0.480748
     22          6           0       -3.455459   -0.879092   -0.917905
     23          6           0       -3.078322   -2.246604   -1.488404
     24          1           0       -1.565237    0.067539   -1.339568
     25          1           0       -1.674942   -0.634376    0.271767
     26          1           0       -4.016296   -0.307343   -1.668358
     27          1           0       -4.124978   -1.009130   -0.057991
     28          1           0       -2.538241   -2.839338   -0.743031
     29          1           0       -2.428941   -2.133563   -2.362548
     30          1           0       -3.964010   -2.812003   -1.794575
     31          6           0       -2.598322    1.304999    0.091755
     32          6           0       -1.380347    2.119503    0.528910
     33          6           0       -1.757484    3.487016    1.099410
     34          1           0       -3.160865    1.874788   -0.660762
     35          1           0       -3.270570    1.172873    0.950574
     36          1           0       -0.710828    2.249541   -0.331003
     37          1           0       -0.819511    1.547754    1.279365
     38          1           0       -2.406865    3.373976    1.973554
     39          1           0       -2.297565    4.079749    0.354037
     40          1           0       -0.871796    4.052414    1.405581
 ---------------------------------------------------------------------

 SCF Done:  E(RHF) =  -470.732273460     A.U. after   11 cycles
 E2 =    -0.1585216970D+01 EUMP2 =    -0.47231749043070D+03

 The electronic state is 1-A.
 Alpha  occ. eigenvalues --  -11.21607 -11.21588 -11.21567 -11.21546 -11.21364
 Alpha  occ. eigenvalues --  -11.21334 -11.21286 -11.21238 -11.21116 -11.21094
 Alpha  occ. eigenvalues --  -11.21064 -11.21047  -1.08454  -1.08345  -1.03549
 Alpha  occ. eigenvalues --   -1.03495  -0.95989  -0.95954  -0.87014  -0.86970
 Alpha  occ. eigenvalues --   -0.79663  -0.79533  -0.78512  -0.77898  -0.65051
 Alpha  occ. eigenvalues --   -0.65031  -0.61046  -0.60813  -0.59391  -0.59298
 Alpha  occ. eigenvalues --   -0.57605  -0.57565  -0.55305  -0.55221  -0.52699
 Alpha  occ. eigenvalues --   -0.52645  -0.52453  -0.52375  -0.49977  -0.49870
 Alpha  occ. eigenvalues --   -0.48128  -0.47849  -0.46790  -0.46486  -0.46304
 Alpha  occ. eigenvalues --   -0.45739  -0.45514  -0.44926  -0.43777  -0.43735
 Alpha virt. eigenvalues --    0.21002   0.22516   0.23253   0.23795   0.25259
 Alpha virt. eigenvalues --    0.25992   0.26780   0.27304   0.28714   0.30002
 Alpha virt. eigenvalues --    0.30741   0.31249   0.31691   0.31893   0.32328

 Mulliken charges:
               1
     1  C   -0.304704
     2  C   -0.298883
     3  C   -0.483511
     4  H    0.153033
     5  H    0.154475
     6  H    0.151692
     7  H    0.151983
     8  H    0.161791
     9  H    0.154196
    10  H    0.160901
    11  C   -0.298242
    12  C   -0.299807
    13  C   -0.475694
    14  H    0.149148
    15  H    0.149401
    16  H    0.152616
    17  H    0.151368
    18  H    0.155131
    19  H    0.155188
    20  H    0.160104
    21  C   -0.307924
    22  C   -0.299096
    23  C   -0.479662
    24  H    0.148525
    25  H    0.162146
    26  H    0.151619
    27  H    0.151857
    28  H    0.157848
    29  H    0.154600
    30  H    0.160747
    31  C   -0.297783
    32  C   -0.302615
    33  C   -0.475569
    34  H    0.148995
    35  H    0.149130
    36  H    0.153137
    37  H    0.154091
    38  H    0.154883
    39  H    0.155169
    40  H    0.159718
 Sum of Mulliken charges =  -0.00000

 Dipole moment (field-independent basis, Debye):
    X=              0.0094    Y=             -0.0195    Z=              0.0084  Tot=              0.0233
 Quadrupole moment (field-independent basis, Debye-Ang):
   XX=            -85.8039   YY=            -85.6468   ZZ=            -83.5581
   XY=             -0.0895   XZ=              0.5216   YZ=             -0.2303

 Normal termination of Gaussian 16 at Wed May  5 19:55:26 2021.
