 Gaussian 16, Revision A.03,
 Gaussian 16:  EM64L-G16RevA.03 25-Dec-2016

 -------------
 #p 6-31g* mp2
 -------------

 ------------------------------------------------------
 Input file generated by CHIRIPA (05-May-2021 14:51:10)
 ------------------------------------------------------
 Symbolic Z-matrix:
 Charge =  0 Multiplicity = 1

                         Standard orientation:
 ---------------------------------------------------------------------
 Center     Atomic      Atomic             Coordinates (Angstroms)
 Number     Number       Type             X           Y           Z
 ---------------------------------------------------------------------
      1          6           0       -2.856247   -0.633567   -0.274812
      2          6           0       -3.456817    0.707216   -0.698607
      3          6           0       -4.429725    0.575110   -1.870696
      4          1           0       -2.339473   -1.084313   -1.133135
      5          1           0       -3.668571   -1.321589   -0.002506
      6          1           0       -2.643536    1.392952   -0.968710
      7          1           0       -3.972058    1.154913    0.160876
      8          1           0       -5.260668   -0.087863   -1.608776
      9          1           0       -3.924597    0.151529   -2.744781
     10          1           0       -4.847207    1.545403   -2.157231
     11          6           0       -1.881618   -0.517861    0.895845
     12          6           0       -1.281048   -1.858644    1.319639
     13          6           0       -0.308140   -1.726538    2.491729
     14          1           0       -1.069295    0.170161    0.623539
     15          1           0       -2.398392   -0.067115    1.754167
     16          1           0       -0.765807   -2.306341    0.460157
     17          1           0       -2.094329   -2.544380    1.589743
     18          1           0       -0.813269   -1.302957    3.365814
     19          1           0        0.522802   -1.063565    2.229809
     20          1           0        0.109341   -2.696831    2.778263
     21          6           0        2.639042   -0.134699   -0.234450
     22          6           0        2.902427   -0.829595   -1.570763
     23          6           0        3.442509   -2.250036   -1.402083
     24          1           0        3.570540   -0.107648    0.347379
     25          1           0        1.924326   -0.733031    0.347423
     26          1           0        3.615375   -0.229424   -2.150518
     27          1           0        1.970240   -0.854825   -2.149559
     28          1           0        2.731350   -2.869020   -0.845564
     29          1           0        4.385834   -2.240066   -0.846530
     30          1           0        3.623717   -2.728193   -2.369755
     31          6           0        2.098824    1.286127   -0.386583
     32          6           0        1.835438    1.981023    0.949730
     33          6           0        1.295356    3.401464    0.781050
     34          1           0        2.813540    1.884459   -0.968456
     35          1           0        1.167325    1.259076   -0.968412
     36          1           0        2.767627    2.006252    1.528525
     37          1           0        1.122491    1.380852    1.529486
     38          1           0        0.352032    3.391493    0.225497
     39          1           0        2.006515    4.020447    0.224531
     40          1           0        1.114148    3.879621    1.748722
 ---------------------------------------------------------------------

 SCF Done:  E(RHF) =  -470.732819288     A.U. after   11 cycles
 E2 =    -0.1584797241D+01 EUMP2 =    -0.47231761652894D+03

 The electronic state is 1-A.
 Alpha  occ. eigenvalues --  -11.21678 -11.21662 -11.21645 -11.21623 -11.21474
 Alpha  occ. eigenvalues --  -11.21451 -11.21414 -11.21387 -11.21112 -11.21102
 Alpha  occ. eigenvalues --  -11.21099 -11.21092  -1.08540  -1.08445  -1.03596
 Alpha  occ. eigenvalues --   -1.03565  -0.96050  -0.96005  -0.87065  -0.87022
 Alpha  occ. eigenvalues --   -0.79677  -0.79615  -0.78371  -0.78248  -0.65490
 Alpha  occ. eigenvalues --   -0.64805  -0.60991  -0.60974  -0.59432  -0.59353
 Alpha  occ. eigenvalues --   -0.57681  -0.57600  -0.55422  -0.55230  -0.52727
 Alpha  occ. eigenvalues --   -0.52709  -0.52477  -0.52425  -0.50090  -0.49877
 Alpha  occ. eigenvalues --   -0.48048  -0.47932  -0.46840  -0.46623  -0.46086
 Alpha  occ. eigenvalues --   -0.45826  -0.45754  -0.45282  -0.43846  -0.43819
 Alpha virt. eigenvalues --    0.18951   0.22501   0.23296   0.24169   0.25855
 Alpha virt. eigenvalues --    0.26455   0.27317   0.27678   0.28996   0.29851
 Alpha virt. eigenvalues --    0.30090   0.31511   0.31663   0.32006   0.32299

 Mulliken charges:
               1
     1  C   -0.298069
     2  C   -0.299722
     3  C   -0.475752
     4  H    0.149415
     5  H    0.150008
     6  H    0.151180
     7  H    0.152349
     8  H    0.155392
     9  H    0.155247
    10  H    0.160536
    11  C   -0.304853
    12  C   -0.300137
    13  C   -0.484233
    14  H    0.155325
    15  H    0.150096
    16  H    0.151348
    17  H    0.152721
    18  H    0.155607
    19  H    0.162936
    20  H    0.160669
    21  C   -0.306926
    22  C   -0.299003
    23  C   -0.475901
    24  H    0.149971
    25  H    0.157795
    26  H    0.152187
    27  H    0.151255
    28  H    0.155245
    29  H    0.155473
    30  H    0.160367
    31  C   -0.298905
    32  C   -0.307016
    33  C   -0.475646
    34  H    0.150194
    35  H    0.149039
    36  H    0.152337
    37  H    0.158359
    38  H    0.155098
    39  H    0.155315
    40  H    0.160698
 Sum of Mulliken charges =  -0.00000

 Dipole moment (field-independent basis, Debye):
    X=             -0.0024    Y=             -0.0004    Z=              0.0197  Tot=              0.0199
 Quadrupole moment (field-independent basis, Debye-Ang):
   XX=            -83.8232   YY=            -85.7257   ZZ=            -85.0483
   XY=              0.9080   XZ=             -1.0887   YZ=             -0.0617

 Normal termination of Gaussian 16 at Wed May  5 15:11:37 2021.
