 Gaussian 16, Revision A.03,
 Gaussian 16:  EM64L-G16RevA.03 25-Dec-2016

 -------------
 #p 6-31g* mp2
 -------------

 ------------------------------------------------------
 Input file generated by CHIRIPA (05-May-2021 14:55:25)
 ------------------------------------------------------
 Symbolic Z-matrix:
 Charge =  0 Multiplicity = 1

                         Standard orientation:
 ---------------------------------------------------------------------
 Center     Atomic      Atomic             Coordinates (Angstroms)
 Number     Number       Type             X           Y           Z
 ---------------------------------------------------------------------
      1          6           0       -3.886069   -2.003075    0.444991
      2          6           0       -3.834602   -1.084327    1.498449
      3          6           0       -3.298358    0.191771    1.302068
      4          6           0       -2.820427    0.517134    0.033600
      5          6           0       -2.857793   -0.376165   -1.035937
      6          6           0       -3.398360   -1.646690   -0.816616
      7          1           0       -4.304315   -2.992213    0.606454
      8          1           0       -4.212624   -1.358352    2.479292
      9          1           0       -3.246239    0.922511    2.100016
     10          1           0       -2.473179   -0.074047   -2.002485
     11          1           0       -3.437043   -2.358160   -1.636590
     12          7           0       -2.250441    1.865132   -0.186442
     13          8           0       -1.835953    2.127331   -1.313424
     14          8           0       -2.228967    2.633969    0.772237
     15          6           0        4.323078   -0.401836    0.391782
     16          6           0        5.566795    0.309914   -0.141664
     17          6           0        6.744042    0.252724    0.832305
     18          1           0        4.031229    0.051475    1.349006
     19          1           0        4.572607   -1.450350    0.605668
     20          1           0        5.314635    1.356423   -0.355784
     21          1           0        5.855605   -0.145018   -1.097823
     22          1           0        7.023749   -0.785566    1.038016
     23          1           0        6.479705    0.724406    1.784273
     24          1           0        7.622509    0.767586    0.430964
     25          6           0        3.137702   -0.353282   -0.570639
     26          6           0        1.893985   -1.065033   -0.037194
     27          6           0        0.716737   -1.007843   -1.011161
     28          1           0        2.888172    0.695233   -0.784525
     29          1           0        3.429550   -0.806593   -1.527863
     30          1           0        1.605175   -0.610099    0.918966
     31          1           0        2.146145   -2.111542    0.176927
     32          1           0        0.981075   -1.479525   -1.963129
     33          1           0        0.437031    0.030448   -1.216874
     34          1           0       -0.161728   -1.522704   -0.609821
 ---------------------------------------------------------------------

 SCF Done:  E(RHF) =  -669.535510869     A.U. after   15 cycles
 E2 =    -0.2092573510D+01 EUMP2 =    -0.67162808437848D+03

 The electronic state is 1-A.
 Alpha  occ. eigenvalues --  -20.60877 -20.60865 -15.85897 -11.31184 -11.27797
 Alpha  occ. eigenvalues --  -11.27766 -11.27544 -11.26781 -11.26767 -11.21395
 Alpha  occ. eigenvalues --  -11.21343 -11.21137 -11.21061 -11.20854 -11.20804
 Alpha  occ. eigenvalues --   -1.59930  -1.39487  -1.19392  -1.08794  -1.08174
 Alpha  occ. eigenvalues --   -1.04793  -1.03298  -0.95772  -0.95620  -0.86791
 Alpha  occ. eigenvalues --   -0.86176  -0.82471  -0.79376  -0.77985  -0.77517
 Alpha  occ. eigenvalues --   -0.72123  -0.71244  -0.70505  -0.65047  -0.64811
 Alpha  occ. eigenvalues --   -0.64775  -0.62136  -0.60694  -0.59158  -0.57376
 Alpha  occ. eigenvalues --   -0.55305  -0.55037  -0.53349  -0.52882  -0.52266
 Alpha  occ. eigenvalues --   -0.52117  -0.49696  -0.48881  -0.48877  -0.47679
 Alpha  occ. eigenvalues --   -0.46407  -0.45536  -0.45453  -0.44838  -0.43563
 Alpha  occ. eigenvalues --   -0.37363  -0.36317
 Alpha virt. eigenvalues --    0.04993   0.11248   0.16454   0.21349   0.23117
 Alpha virt. eigenvalues --    0.24500   0.26859   0.27043   0.27707   0.27987
 Alpha virt. eigenvalues --    0.28615   0.30564   0.31641   0.31808   0.32155

 Mulliken charges:
               1
     1  C   -0.170518
     2  C   -0.219145
     3  C   -0.170710
     4  C    0.159900
     5  C   -0.167157
     6  C   -0.220335
     7  H    0.225866
     8  H    0.223449
     9  H    0.275529
    10  H    0.276987
    11  H    0.224050
    12  N    0.488260
    13  O   -0.460333
    14  O   -0.459636
    15  C   -0.298240
    16  C   -0.299810
    17  C   -0.475627
    18  H    0.150292
    19  H    0.147424
    20  H    0.154178
    21  H    0.151142
    22  H    0.153913
    23  H    0.155439
    24  H    0.160036
    25  C   -0.299320
    26  C   -0.298259
    27  C   -0.489602
    28  H    0.155540
    29  H    0.148180
    30  H    0.152278
    31  H    0.148598
    32  H    0.151283
    33  H    0.166762
    34  H    0.159588
 Sum of Mulliken charges =  -0.00000

 Dipole moment (field-independent basis, Debye):
    X=             -2.1041    Y=             -4.6474    Z=              0.7664  Tot=              5.1588
 Quadrupole moment (field-independent basis, Debye-Ang):
   XX=            -84.9113   YY=            -99.4221   ZZ=            -90.3820
   XY=             12.2605   XZ=             -3.9746   YZ=              1.8239

 Normal termination of Gaussian 16 at Wed May  5 20:51:24 2021.
