 Gaussian 16, Revision A.03,
 Gaussian 16:  EM64L-G16RevA.03 25-Dec-2016

 -------------
 #p 6-31g* mp2
 -------------

 ------------------------------------------------------
 Input file generated by CHIRIPA (05-May-2021 14:55:24)
 ------------------------------------------------------
 Symbolic Z-matrix:
 Charge =  0 Multiplicity = 1

                         Standard orientation:
 ---------------------------------------------------------------------
 Center     Atomic      Atomic             Coordinates (Angstroms)
 Number     Number       Type             X           Y           Z
 ---------------------------------------------------------------------
      1          6           0        4.912910   -1.947099   -0.392402
      2          6           0        5.039473   -0.772695   -1.141586
      3          6           0        4.252935    0.345150   -0.847770
      4          6           0        3.345892    0.253286    0.206803
      5          6           0        3.196590   -0.902587    0.971626
      6          6           0        3.993493   -2.008189    0.659958
      7          1           0        5.527938   -2.810713   -0.627579
      8          1           0        5.752673   -0.722384   -1.959425
      9          1           0        4.330442    1.266877   -1.411535
     10          1           0        2.476871   -0.922530    1.780963
     11          1           0        3.893056   -2.918932    1.243486
     12          7           0        2.507732    1.430218    0.527302
     13          8           0        1.716026    1.323782    1.461385
     14          8           0        2.658359    2.436849   -0.161642
     15          6           0       -3.884532    0.197317   -0.619134
     16          6           0       -2.522941    0.088288    0.068010
     17          6           0       -1.382598    0.639041   -0.788775
     18          1           0       -3.849518   -0.341608   -1.575837
     19          1           0       -4.082128    1.250835   -0.860896
     20          1           0       -2.328588   -0.964544    0.309648
     21          1           0       -2.561259    0.627372    1.023277
     22          1           0       -1.549626    1.696261   -1.018964
     23          1           0       -1.315633    0.095300   -1.736648
     24          1           0       -0.418409    0.551173   -0.278403
     25          6           0       -5.034586   -0.349160    0.224945
     26          6           0       -6.396176   -0.240131   -0.462200
     27          6           0       -7.536520   -0.790884    0.394586
     28          1           0       -4.836990   -1.402679    0.466707
     29          1           0       -5.069599    0.189764    1.181647
     30          1           0       -6.357859   -0.779216   -1.417467
     31          1           0       -6.590530    0.812700   -0.703838
     32          1           0       -7.603485   -0.247144    1.342458
     33          1           0       -7.369492   -1.848105    0.624774
     34          1           0       -8.500709   -0.703016   -0.115787
 ---------------------------------------------------------------------

 SCF Done:  E(RHF) =  -669.536033781     A.U. after   15 cycles
 E2 =    -0.2091060355D+01 EUMP2 =    -0.67162709413609D+03

 The electronic state is 1-A.
 Alpha  occ. eigenvalues --  -20.60912 -20.60904 -15.85928 -11.31255 -11.27820
 Alpha  occ. eigenvalues --  -11.27816 -11.27560 -11.26829 -11.26820 -11.21240
 Alpha  occ. eigenvalues --  -11.20939 -11.20875 -11.20792 -11.20776 -11.20122
 Alpha  occ. eigenvalues --   -1.59967  -1.39524  -1.19425  -1.08830  -1.07903
 Alpha  occ. eigenvalues --   -1.04822  -1.02958  -0.95672  -0.95402  -0.86423
 Alpha  occ. eigenvalues --   -0.86223  -0.82505  -0.79040  -0.77708  -0.77559
 Alpha  occ. eigenvalues --   -0.72155  -0.71292  -0.70535  -0.65081  -0.64826
 Alpha  occ. eigenvalues --   -0.64538  -0.62170  -0.60358  -0.58785  -0.57002
 Alpha  occ. eigenvalues --   -0.55328  -0.54696  -0.53154  -0.52915  -0.52085
 Alpha  occ. eigenvalues --   -0.51831  -0.49359  -0.48921  -0.48907  -0.47357
 Alpha  occ. eigenvalues --   -0.46084  -0.45255  -0.45174  -0.44910  -0.43181
 Alpha  occ. eigenvalues --   -0.37404  -0.36422
 Alpha virt. eigenvalues --    0.04955   0.11223   0.16421   0.21354   0.23368
 Alpha virt. eigenvalues --    0.24884   0.27155   0.27269   0.27954   0.28136
 Alpha virt. eigenvalues --    0.28643   0.30731   0.31956   0.32108   0.32313

 Mulliken charges:
               1
     1  C   -0.170590
     2  C   -0.218580
     3  C   -0.170589
     4  C    0.158064
     5  C   -0.171231
     6  C   -0.218524
     7  H    0.225855
     8  H    0.223721
     9  H    0.275881
    10  H    0.275900
    11  H    0.223723
    12  N    0.487570
    13  O   -0.458798
    14  O   -0.457705
    15  C   -0.297971
    16  C   -0.298666
    17  C   -0.478806
    18  H    0.146978
    19  H    0.150282
    20  H    0.146064
    21  H    0.156872
    22  H    0.159258
    23  H    0.146990
    24  H    0.167657
    25  C   -0.297797
    26  C   -0.299241
    27  C   -0.475402
    28  H    0.147401
    29  H    0.150292
    30  H    0.150725
    31  H    0.152197
    32  H    0.155290
    33  H    0.154032
    34  H    0.159151
 Sum of Mulliken charges =  -0.00000

 Dipole moment (field-independent basis, Debye):
    X=              3.1576    Y=             -4.0524    Z=             -1.0757  Tot=              5.2488
 Quadrupole moment (field-independent basis, Debye-Ang):
   XX=            -75.9674   YY=            -95.2008   ZZ=            -93.0242
   XY=            -12.8078   XZ=             -4.9269   YZ=             -2.7991

 Normal termination of Gaussian 16 at Thu May  6 04:46:23 2021.
