 Gaussian 16, Revision A.03,
 Gaussian 16:  EM64L-G16RevA.03 25-Dec-2016

 -------------
 #p 6-31g* mp2
 -------------

 ------------------------------------------------------
 Input file generated by CHIRIPA (05-May-2021 14:55:24)
 ------------------------------------------------------
 Symbolic Z-matrix:
 Charge =  0 Multiplicity = 1

                         Standard orientation:
 ---------------------------------------------------------------------
 Center     Atomic      Atomic             Coordinates (Angstroms)
 Number     Number       Type             X           Y           Z
 ---------------------------------------------------------------------
      1          6           0       -5.117237    1.830966    0.252847
      2          6           0       -5.439499    0.746676   -0.569943
      3          6           0       -4.506154   -0.266875   -0.806858
      4          6           0       -3.254344   -0.163743   -0.202188
      5          6           0       -2.903347    0.903943    0.622517
      6          6           0       -3.852419    1.906007    0.845406
      7          1           0       -5.848390    2.613855    0.431441
      8          1           0       -6.421000    0.685775   -1.031454
      9          1           0       -4.729240   -1.117430   -1.439477
     10          1           0       -1.916792    0.937007    1.068648
     11          1           0       -3.599379    2.746913    1.484853
     12          7           0       -2.257929   -1.230663   -0.445575
     13          8           0       -1.161960   -1.116463    0.098895
     14          8           0       -2.591774   -2.160913   -1.176205
     15          6           0        4.760576    0.612771    0.005851
     16          6           0        6.081765    0.313220   -0.703173
     17          6           0        6.840070    1.580143   -1.100255
     18          1           0        4.130628    1.228199   -0.650927
     19          1           0        4.961839    1.216654    0.901515
     20          1           0        5.878208   -0.291086   -1.596478
     21          1           0        6.708563   -0.301728   -0.044705
     22          1           0        7.071998    2.183245   -0.216469
     23          1           0        6.236925    2.193947   -1.777058
     24          1           0        7.781430    1.342820   -1.605606
     25          6           0        3.990951   -0.643743    0.409062
     26          6           0        2.669763   -0.344193    1.118085
     27          6           0        1.911457   -1.611116    1.515167
     28          1           0        3.789688   -1.247626   -0.486602
     29          1           0        4.620900   -1.259172    1.065840
     30          1           0        2.042964    0.270754    0.459617
     31          1           0        2.873320    0.260113    2.011390
     32          1           0        2.514602   -2.224920    2.191970
     33          1           0        1.679529   -2.214219    0.631381
     34          1           0        0.970096   -1.373793    2.020518
 ---------------------------------------------------------------------

 SCF Done:  E(RHF) =  -669.535657682     A.U. after   15 cycles
 E2 =    -0.2091140362D+01 EUMP2 =    -0.67162679804318D+03

 The electronic state is 1-A.
 Alpha  occ. eigenvalues --  -20.60898 -20.60891 -15.85934 -11.31275 -11.27842
 Alpha  occ. eigenvalues --  -11.27838 -11.27581 -11.26853 -11.26843 -11.21089
 Alpha  occ. eigenvalues --  -11.20760 -11.20676 -11.20557 -11.20497 -11.19512
 Alpha  occ. eigenvalues --   -1.59965  -1.39521  -1.19447  -1.08848  -1.07663
 Alpha  occ. eigenvalues --   -1.04846  -1.02672  -0.95695  -0.95090  -0.86248
 Alpha  occ. eigenvalues --   -0.86112  -0.82519  -0.78781  -0.77570  -0.77454
 Alpha  occ. eigenvalues --   -0.72167  -0.71282  -0.70556  -0.65105  -0.64849
 Alpha  occ. eigenvalues --   -0.64293  -0.62193  -0.60055  -0.58526  -0.56704
 Alpha  occ. eigenvalues --   -0.55349  -0.54374  -0.53177  -0.52937  -0.51764
 Alpha  occ. eigenvalues --   -0.51534  -0.49169  -0.48911  -0.48772  -0.47079
 Alpha  occ. eigenvalues --   -0.45821  -0.45018  -0.44940  -0.44858  -0.42920
 Alpha  occ. eigenvalues --   -0.37427  -0.36448
 Alpha virt. eigenvalues --    0.04949   0.11206   0.16437   0.21224   0.23560
 Alpha virt. eigenvalues --    0.24949   0.27056   0.27400   0.27832   0.28366
 Alpha virt. eigenvalues --    0.29121   0.30814   0.31882   0.32371   0.32532

 Mulliken charges:
               1
     1  C   -0.170674
     2  C   -0.218561
     3  C   -0.170728
     4  C    0.157613
     5  C   -0.170975
     6  C   -0.218532
     7  H    0.225935
     8  H    0.223742
     9  H    0.275805
    10  H    0.275710
    11  H    0.223875
    12  N    0.494055
    13  O   -0.464559
    14  O   -0.459593
    15  C   -0.297409
    16  C   -0.299135
    17  C   -0.475212
    18  H    0.148189
    19  H    0.146719
    20  H    0.152348
    21  H    0.151171
    22  H    0.153772
    23  H    0.154171
    24  H    0.158907
    25  C   -0.297971
    26  C   -0.300730
    27  C   -0.469644
    28  H    0.151782
    29  H    0.147331
    30  H    0.153473
    31  H    0.143482
    32  H    0.143853
    33  H    0.167711
    34  H    0.164079
 Sum of Mulliken charges =  -0.00000

 Dipole moment (field-independent basis, Debye):
    X=             -3.8111    Y=              3.6746    Z=              0.7758  Tot=              5.3506
 Quadrupole moment (field-independent basis, Debye-Ang):
   XX=            -71.3966   YY=            -96.0555   ZZ=            -93.6016
   XY=            -10.8626   XZ=              0.5220   YZ=              1.1980

 Normal termination of Gaussian 16 at Thu May  6 04:44:27 2021.
