 Gaussian 16, Revision A.03,
 Gaussian 16:  EM64L-G16RevA.03 25-Dec-2016

 -------------
 #p 6-31g* mp2
 -------------

 ------------------------------------------------------
 Input file generated by CHIRIPA (05-May-2021 14:51:12)
 ------------------------------------------------------
 Symbolic Z-matrix:
 Charge =  0 Multiplicity = 1

                         Standard orientation:
 ---------------------------------------------------------------------
 Center     Atomic      Atomic             Coordinates (Angstroms)
 Number     Number       Type             X           Y           Z
 ---------------------------------------------------------------------
      1          6           0        2.815478   -0.195338    0.039813
      2          6           0        2.966456    0.149028   -1.442281
      3          6           0        4.143397    1.086314   -1.714489
      4          1           0        2.687629    0.732448    0.614106
      5          1           0        3.745094   -0.659006    0.397896
      6          1           0        2.036334    0.610647   -1.797804
      7          1           0        3.093769   -0.779699   -2.013134
      8          1           0        5.083074    0.629953   -1.386859
      9          1           0        4.019631    2.028199   -1.170306
     10          1           0        4.232866    1.319397   -2.780101
     11          6           0        1.643186   -1.131544    0.327871
     12          6           0        1.492209   -1.475910    1.809966
     13          6           0        0.315268   -2.413196    2.082174
     14          1           0        0.713571   -0.667877   -0.030211
     15          1           0        1.771036   -2.059330   -0.246421
     16          1           0        1.364896   -0.547183    2.380819
     17          1           0        2.422331   -1.937530    2.165489
     18          1           0        0.439033   -3.355081    1.537990
     19          1           0       -0.624410   -1.956835    1.754544
     20          1           0        0.225798   -2.646279    3.147785
     21          6           0       -1.650801    1.019995    0.164874
     22          6           0       -2.010627    2.422667    0.655817
     23          6           0       -0.842994    3.123189    1.351299
     24          1           0       -1.313929    0.415079    1.017833
     25          1           0       -0.798932    1.088141   -0.525827
     26          1           0       -2.862450    2.352042    1.344314
     27          1           0       -2.346865    3.024256   -0.198378
     28          1           0        0.007718    3.222996    0.669443
     29          1           0       -0.510796    2.546963    2.220901
     30          1           0       -1.122190    4.124340    1.694231
     31          6           0       -2.807863    0.306886   -0.532559
     32          6           0       -2.448037   -1.095784   -1.023502
     33          6           0       -3.615671   -1.796306   -1.718984
     34          1           0       -3.659733    0.238740    0.158142
     35          1           0       -3.144735    0.911803   -1.385517
     36          1           0       -2.111799   -1.697374   -0.169306
     37          1           0       -1.596216   -1.025160   -1.711999
     38          1           0       -3.947870   -1.220081   -2.588586
     39          1           0       -4.466384   -1.896114   -1.037128
     40          1           0       -3.336474   -2.797459   -2.061916
 ---------------------------------------------------------------------

 SCF Done:  E(RHF) =  -470.731724044     A.U. after   11 cycles
 E2 =    -0.1585998310D+01 EUMP2 =    -0.47231772235365D+03

 The electronic state is 1-A.
 Alpha  occ. eigenvalues --  -11.21697 -11.21622 -11.21589 -11.21541 -11.21507
 Alpha  occ. eigenvalues --  -11.21436 -11.21299 -11.21175 -11.21142 -11.21090
 Alpha  occ. eigenvalues --  -11.21059 -11.21051  -1.08564  -1.08324  -1.03602
 Alpha  occ. eigenvalues --   -1.03494  -0.96064  -0.95933  -0.87082  -0.86950
 Alpha  occ. eigenvalues --   -0.79686  -0.79566  -0.78603  -0.77941  -0.65196
 Alpha  occ. eigenvalues --   -0.64988  -0.61004  -0.60907  -0.59446  -0.59282
 Alpha  occ. eigenvalues --   -0.57706  -0.57522  -0.55399  -0.55192  -0.52752
 Alpha  occ. eigenvalues --   -0.52642  -0.52519  -0.52352  -0.50004  -0.49909
 Alpha  occ. eigenvalues --   -0.48058  -0.47875  -0.46873  -0.46642  -0.46421
 Alpha  occ. eigenvalues --   -0.45732  -0.45628  -0.44789  -0.43847  -0.43715
 Alpha virt. eigenvalues --    0.20214   0.22068   0.23202   0.24108   0.25111
 Alpha virt. eigenvalues --    0.26253   0.26681   0.28585   0.28804   0.30131
 Alpha virt. eigenvalues --    0.30623   0.31199   0.31564   0.31819   0.32238

 Mulliken charges:
               1
     1  C   -0.298228
     2  C   -0.300506
     3  C   -0.475588
     4  H    0.149771
     5  H    0.149081
     6  H    0.150777
     7  H    0.152056
     8  H    0.155438
     9  H    0.155071
    10  H    0.159931
    11  C   -0.309042
    12  C   -0.299546
    13  C   -0.482846
    14  H    0.164822
    15  H    0.148031
    16  H    0.151041
    17  H    0.151852
    18  H    0.155473
    19  H    0.160471
    20  H    0.159902
    21  C   -0.308451
    22  C   -0.298455
    23  C   -0.476410
    24  H    0.155352
    25  H    0.152062
    26  H    0.152415
    27  H    0.152383
    28  H    0.154909
    29  H    0.155172
    30  H    0.161046
    31  C   -0.297342
    32  C   -0.307394
    33  C   -0.475315
    34  H    0.149563
    35  H    0.149848
    36  H    0.158539
    37  H    0.153134
    38  H    0.155105
    39  H    0.155161
    40  H    0.160719
 Sum of Mulliken charges =  -0.00000

 Dipole moment (field-independent basis, Debye):
    X=             -0.0687    Y=              0.0196    Z=             -0.0119  Tot=              0.0724
 Quadrupole moment (field-independent basis, Debye-Ang):
   XX=            -85.5983   YY=            -84.8429   ZZ=            -84.4440
   XY=             -1.3837   XZ=             -0.4670   YZ=             -0.2700

 Normal termination of Gaussian 16 at Thu May  6 07:05:19 2021.
