 Gaussian 16, Revision A.03,
 Gaussian 16:  EM64L-G16RevA.03 25-Dec-2016

 -------------
 #p 6-31g* mp2
 -------------

 ------------------------------------------------------
 Input file generated by CHIRIPA (05-May-2021 14:57:27)
 ------------------------------------------------------
 Symbolic Z-matrix:
 Charge =  0 Multiplicity = 1

                         Standard orientation:
 ---------------------------------------------------------------------
 Center     Atomic      Atomic             Coordinates (Angstroms)
 Number     Number       Type             X           Y           Z
 ---------------------------------------------------------------------
      1          6           0       -2.034305   -2.111220    0.077468
      2          6           0       -2.911461   -1.802281    1.122301
      3          6           0       -3.656198   -0.619355    1.097828
      4          6           0       -3.498392    0.235680    0.008194
      5          6           0       -2.632617   -0.044143   -1.047942
      6          6           0       -1.897923   -1.232714   -1.002415
      7          1           0       -1.459676   -3.032338    0.104657
      8          1           0       -3.019405   -2.482669    1.962221
      9          1           0       -4.342461   -0.355496    1.893341
     10          1           0       -2.546382    0.653829   -1.871846
     11          1           0       -1.217467   -1.470052   -1.815246
     12          7           0       -4.281496    1.490979   -0.028859
     13          8           0       -4.124428    2.227610   -1.000117
     14          8           0       -5.037532    1.714482    0.914057
     15          6           0        5.050895    1.730857    0.650447
     16          6           0        4.698204    1.572006   -0.693762
     17          6           0        3.767600    0.600275   -1.073581
     18          6           0        3.206759   -0.198908   -0.078566
     19          6           0        3.537661   -0.064941    1.268968
     20          6           0        4.470521    0.913318    1.625802
     21          1           0        5.774687    2.488256    0.936572
     22          1           0        5.147321    2.205498   -1.453385
     23          1           0        3.476476    0.455856   -2.106929
     24          1           0        3.073003   -0.711398    2.003544
     25          1           0        4.742530    1.034436    2.670496
     26          7           0        2.220376   -1.231091   -0.468497
     27          8           0        1.740591   -1.922541    0.427237
     28          8           0        1.945712   -1.329123   -1.662476
 ---------------------------------------------------------------------

 SCF Done:  E(RHF) =  -868.341158452     A.U. after   16 cycles
 E2 =    -0.2598800558D+01 EUMP2 =    -0.87093995900945D+03

 The electronic state is 1-A.
 Alpha  occ. eigenvalues --  -20.61768 -20.61748 -20.60040 -20.60035 -15.86759
 Alpha  occ. eigenvalues --  -15.85083 -11.31778 -11.30166 -11.28306 -11.28303
 Alpha  occ. eigenvalues --  -11.27980 -11.27241 -11.27231 -11.26750 -11.26661
 Alpha  occ. eigenvalues --  -11.26208 -11.25652 -11.25414  -1.60808  -1.59124
 Alpha  occ. eigenvalues --   -1.40371  -1.38685  -1.19917  -1.18289  -1.09378
 Alpha  occ. eigenvalues --   -1.07689  -1.05268  -1.03648  -0.96273  -0.94584
 Alpha  occ. eigenvalues --   -0.86683  -0.85027  -0.83121  -0.81437  -0.78203
 Alpha  occ. eigenvalues --   -0.76556  -0.73011  -0.72091  -0.71307  -0.71022
 Alpha  occ. eigenvalues --   -0.70447  -0.69300  -0.65575  -0.65270  -0.63911
 Alpha  occ. eigenvalues --   -0.63591  -0.62622  -0.60999  -0.55782  -0.54019
 Alpha  occ. eigenvalues --   -0.53612  -0.53357  -0.52003  -0.51705  -0.49768
 Alpha  occ. eigenvalues --   -0.49732  -0.48080  -0.48031  -0.45842  -0.44156
 Alpha  occ. eigenvalues --   -0.37874  -0.36852  -0.36168  -0.35274
 Alpha virt. eigenvalues --    0.04288   0.05970   0.10808   0.12397   0.15856
 Alpha virt. eigenvalues --    0.17572   0.20973   0.22765   0.26905   0.27824
 Alpha virt. eigenvalues --    0.28602   0.29617   0.30587   0.31950   0.32445

 Mulliken charges:
               1
     1  C   -0.164074
     2  C   -0.221153
     3  C   -0.173499
     4  C    0.156783
     5  C   -0.175363
     6  C   -0.224393
     7  H    0.236164
     8  H    0.219717
     9  H    0.270990
    10  H    0.271661
    11  H    0.239526
    12  N    0.488233
    13  O   -0.463820
    14  O   -0.464110
    15  C   -0.169316
    16  C   -0.218274
    17  C   -0.170170
    18  C    0.158427
    19  C   -0.169740
    20  C   -0.218338
    21  H    0.228206
    22  H    0.225746
    23  H    0.275382
    24  H    0.275297
    25  H    0.225479
    26  N    0.490626
    27  O   -0.463542
    28  O   -0.466447
 Sum of Mulliken charges =  -0.00000

 Dipole moment (field-independent basis, Debye):
    X=              6.7864    Y=             -0.9124    Z=              1.4776  Tot=              7.0051
 Quadrupole moment (field-independent basis, Debye-Ang):
   XX=           -102.8656   YY=           -108.7334   ZZ=            -96.8327
   XY=             29.0225   XZ=              1.5310   YZ=             -3.1178

 Normal termination of Gaussian 16 at Thu May  6 22:58:31 2021.
