 Gaussian 16, Revision A.03,
 Gaussian 16:  EM64L-G16RevA.03 25-Dec-2016

 -------------
 #p 6-31g* mp2
 -------------

 ------------------------------------------------------
 Input file generated by CHIRIPA (05-May-2021 14:53:15)
 ------------------------------------------------------
 Symbolic Z-matrix:
 Charge =  0 Multiplicity = 1

                         Standard orientation:
 ---------------------------------------------------------------------
 Center     Atomic      Atomic             Coordinates (Angstroms)
 Number     Number       Type             X           Y           Z
 ---------------------------------------------------------------------
      1          6           0        2.828745   -0.402877   -0.119641
      2          6           0        3.804531   -1.574117   -0.238061
      3          6           0        3.105408   -2.933086   -0.190895
      4          1           0        2.267043   -0.495437    0.819969
      5          1           0        2.091477   -0.465361   -0.931999
      6          1           0        4.540571   -1.508667    0.573467
      7          1           0        4.364112   -1.478654   -1.177408
      8          1           0        2.383945   -3.023766   -1.009350
      9          1           0        2.561407   -3.053949    0.751472
     10          1           0        3.821573   -3.756204   -0.277182
     11          6           0        3.512646    0.962383   -0.165165
     12          6           0        2.536860    2.133623   -0.046745
     13          6           0        3.235983    3.492592   -0.093911
     14          1           0        4.249915    1.024867    0.647193
     15          1           0        4.074349    1.054943   -1.104775
     16          1           0        1.977280    2.038160    0.892602
     17          1           0        1.800820    2.068172   -0.858273
     18          1           0        3.779984    3.613455   -1.036278
     19          1           0        3.957446    3.583272    0.724544
     20          1           0        2.519819    4.315710   -0.007624
     21          6           0       -1.189321   -2.364960    0.428246
     22          6           0       -0.755368   -1.189845    1.050588
     23          6           0       -1.461070    0.005188    0.881986
     24          6           0       -2.601604   -0.011051    0.080607
     25          6           0       -3.059220   -1.165537   -0.552669
     26          6           0       -2.337837   -2.349084   -0.369990
     27          1           0       -0.635024   -3.288830    0.564688
     28          1           0        0.136238   -1.199210    1.671069
     29          1           0       -1.147405    0.929314    1.352116
     30          1           0       -3.951682   -1.124960   -1.165273
     31          1           0       -2.677187   -3.260185   -0.854532
     32          7           0       -3.357000    1.247997   -0.105337
     33          8           0       -4.358717    1.207315   -0.816353
     34          8           0       -2.933058    2.251682    0.463458
 ---------------------------------------------------------------------

 SCF Done:  E(RHF) =  -669.535165890     A.U. after   15 cycles
 E2 =    -0.2092550599D+01 EUMP2 =    -0.67162771648853D+03

 The electronic state is 1-A.
 Alpha  occ. eigenvalues --  -20.60724 -20.60719 -15.85776 -11.31128 -11.27690
 Alpha  occ. eigenvalues --  -11.27677 -11.27410 -11.26710 -11.26674 -11.22324
 Alpha  occ. eigenvalues --  -11.22066 -11.22018 -11.21958 -11.21836 -11.21241
 Alpha  occ. eigenvalues --   -1.59800  -1.39353  -1.19295  -1.09012  -1.08688
 Alpha  occ. eigenvalues --   -1.04696  -1.04078  -0.96540  -0.95527  -0.87560
 Alpha  occ. eigenvalues --   -0.86097  -0.82366  -0.80161  -0.78825  -0.77401
 Alpha  occ. eigenvalues --   -0.71995  -0.71123  -0.70391  -0.65679  -0.64945
 Alpha  occ. eigenvalues --   -0.64691  -0.62056  -0.61468  -0.59914  -0.58140
 Alpha  occ. eigenvalues --   -0.55851  -0.55187  -0.53230  -0.53064  -0.52983
 Alpha  occ. eigenvalues --   -0.52738  -0.50491  -0.48760  -0.48750  -0.48458
 Alpha  occ. eigenvalues --   -0.47189  -0.46344  -0.46233  -0.44762  -0.44326
 Alpha  occ. eigenvalues --   -0.37259  -0.36264
 Alpha virt. eigenvalues --    0.05102   0.11301   0.16539   0.19377   0.22799
 Alpha virt. eigenvalues --    0.23349   0.24839   0.26344   0.26537   0.28303
 Alpha virt. eigenvalues --    0.29932   0.30121   0.31187   0.31299   0.31714

 Mulliken charges:
               1
     1  C   -0.299266
     2  C   -0.299799
     3  C   -0.476679
     4  H    0.139686
     5  H    0.154797
     6  H    0.153554
     7  H    0.155801
     8  H    0.156032
     9  H    0.145463
    10  H    0.164099
    11  C   -0.298763
    12  C   -0.299584
    13  C   -0.476551
    14  H    0.149832
    15  H    0.152173
    16  H    0.146285
    17  H    0.156332
    18  H    0.156189
    19  H    0.154745
    20  H    0.165376
    21  C   -0.173031
    22  C   -0.214731
    23  C   -0.172619
    24  C    0.158187
    25  C   -0.171321
    26  C   -0.218946
    27  H    0.227150
    28  H    0.224632
    29  H    0.275830
    30  H    0.275214
    31  H    0.223141
    32  N    0.488060
    33  O   -0.460752
    34  O   -0.460536
 Sum of Mulliken charges =  -0.00000

 Dipole moment (field-independent basis, Debye):
    X=              2.7972    Y=             -4.3512    Z=              0.5376  Tot=              5.2006
 Quadrupole moment (field-independent basis, Debye-Ang):
   XX=           -106.7601   YY=            -94.8835   ZZ=            -92.4828
   XY=             13.1542   XZ=              0.5261   YZ=              1.2997

 Normal termination of Gaussian 16 at Thu May  6 05:52:01 2021.
