 Gaussian 16, Revision A.03,
 Gaussian 16:  EM64L-G16RevA.03 25-Dec-2016

 -------------
 #p 6-31g* mp2
 -------------

 ------------------------------------------------------
 Input file generated by CHIRIPA (05-May-2021 14:53:15)
 ------------------------------------------------------
 Symbolic Z-matrix:
 Charge =  0 Multiplicity = 1

                         Standard orientation:
 ---------------------------------------------------------------------
 Center     Atomic      Atomic             Coordinates (Angstroms)
 Number     Number       Type             X           Y           Z
 ---------------------------------------------------------------------
      1          6           0       -1.796458   -1.013418   -0.222133
      2          6           0       -1.410233   -2.023024   -1.303572
      3          6           0        0.043041   -2.484349   -1.189697
      4          1           0       -1.128148   -0.143794   -0.285843
      5          1           0       -1.630109   -1.463717    0.766277
      6          1           0       -1.578568   -1.571447   -2.289654
      7          1           0       -2.079663   -2.890261   -1.237403
      8          1           0        0.221601   -2.959163   -0.219507
      9          1           0        0.725543   -1.632855   -1.277737
     10          1           0        0.297781   -3.205665   -1.972431
     11          6           0       -3.246328   -0.542799   -0.322740
     12          6           0       -3.632554    0.466806    0.758700
     13          6           0       -5.085828    0.928132    0.644825
     14          1           0       -3.412677   -0.092500   -1.311149
     15          1           0       -3.914639   -1.412424   -0.259029
     16          1           0       -2.963123    1.334044    0.692531
     17          1           0       -3.464218    0.015229    1.744782
     18          1           0       -5.768329    0.076638    0.732865
     19          1           0       -5.264387    1.402946   -0.325366
     20          1           0       -5.340567    1.649448    1.427558
     21          6           0        1.026787    2.668723   -0.896023
     22          6           0        0.520108    2.242886    0.336236
     23          6           0        1.035025    1.102460    0.959803
     24          6           0        2.061009    0.408664    0.320041
     25          6           0        2.586888    0.807734   -0.907755
     26          6           0        2.056745    1.951052   -1.512997
     27          1           0        0.620872    3.555756   -1.373307
     28          1           0       -0.279753    2.798275    0.817704
     29          1           0        0.661357    0.750556    1.913717
     30          1           0        3.384413    0.233399   -1.363290
     31          1           0        2.452186    2.279431   -2.469992
     32          7           0        2.614189   -0.800185    0.970484
     33          8           0        3.517927   -1.393946    0.386239
     34          8           0        2.133558   -1.131030    2.052230
 ---------------------------------------------------------------------

 SCF Done:  E(RHF) =  -669.533896342     A.U. after   15 cycles
 E2 =    -0.2096192867D+01 EUMP2 =    -0.67163008920895D+03

 The electronic state is 1-A.
 Alpha  occ. eigenvalues --  -20.60812 -20.60806 -15.85846 -11.31226 -11.27843
 Alpha  occ. eigenvalues --  -11.27811 -11.27607 -11.26869 -11.26845 -11.21970
 Alpha  occ. eigenvalues --  -11.21503 -11.21429 -11.21395 -11.21195 -11.20695
 Alpha  occ. eigenvalues --   -1.59871  -1.39426  -1.19467  -1.08839  -1.08485
 Alpha  occ. eigenvalues --   -1.04872  -1.03576  -0.95999  -0.95661  -0.87024
 Alpha  occ. eigenvalues --   -0.86248  -0.82495  -0.79681  -0.78323  -0.77516
 Alpha  occ. eigenvalues --   -0.72077  -0.71195  -0.70551  -0.65176  -0.65074
 Alpha  occ. eigenvalues --   -0.64846  -0.62203  -0.60992  -0.59402  -0.57622
 Alpha  occ. eigenvalues --   -0.55378  -0.55277  -0.53329  -0.52948  -0.52684
 Alpha  occ. eigenvalues --   -0.52426  -0.49972  -0.48841  -0.48830  -0.47965
 Alpha  occ. eigenvalues --   -0.46731  -0.45792  -0.45674  -0.44800  -0.43799
 Alpha  occ. eigenvalues --   -0.37394  -0.36345
 Alpha virt. eigenvalues --    0.04986   0.11037   0.16376   0.20669   0.22994
 Alpha virt. eigenvalues --    0.24111   0.25739   0.26473   0.27739   0.28195
 Alpha virt. eigenvalues --    0.29092   0.30041   0.31596   0.31697   0.32095

 Mulliken charges:
               1
     1  C   -0.310292
     2  C   -0.297890
     3  C   -0.483142
     4  H    0.157333
     5  H    0.152364
     6  H    0.148280
     7  H    0.152030
     8  H    0.165937
     9  H    0.151651
    10  H    0.161229
    11  C   -0.296603
    12  C   -0.299515
    13  C   -0.475446
    14  H    0.147471
    15  H    0.151261
    16  H    0.141771
    17  H    0.153652
    18  H    0.157955
    19  H    0.154391
    20  H    0.159084
    21  C   -0.171054
    22  C   -0.219540
    23  C   -0.172154
    24  C    0.160684
    25  C   -0.173466
    26  C   -0.217776
    27  H    0.226218
    28  H    0.225601
    29  H    0.277150
    30  H    0.276456
    31  H    0.224069
    32  N    0.492575
    33  O   -0.459624
    34  O   -0.460661
 Sum of Mulliken charges =  -0.00000

 Dipole moment (field-independent basis, Debye):
    X=             -1.8274    Y=              4.2083    Z=             -2.2324  Tot=              5.1022
 Quadrupole moment (field-independent basis, Debye-Ang):
   XX=           -102.3204   YY=            -91.2684   ZZ=            -93.3439
   XY=              8.3733   XZ=             -8.3872   YZ=              0.2599

 Normal termination of Gaussian 16 at Thu May  6 17:08:54 2021.
