 Gaussian 16, Revision A.03,
 Gaussian 16:  EM64L-G16RevA.03 25-Dec-2016

 -------------
 #p 6-31g* mp2
 -------------

 ------------------------------------------------------
 Input file generated by CHIRIPA (05-May-2021 14:51:09)
 ------------------------------------------------------
 Symbolic Z-matrix:
 Charge =  0 Multiplicity = 1

                         Standard orientation:
 ---------------------------------------------------------------------
 Center     Atomic      Atomic             Coordinates (Angstroms)
 Number     Number       Type             X           Y           Z
 ---------------------------------------------------------------------
      1          6           0        2.016793    1.249289   -0.106129
      2          6           0        2.063482    2.716521    0.321699
      3          6           0        0.732193    3.437371    0.107599
      4          1           0        1.733387    1.191844   -1.166000
      5          1           0        1.225707    0.735308    0.457255
      6          1           0        2.855167    3.227260   -0.241326
      7          1           0        2.346996    2.770489    1.380624
      8          1           0       -0.064474    2.953824    0.682146
      9          1           0        0.446584    3.413191   -0.949020
     10          1           0        0.788010    4.484802    0.420063
     11          6           0        3.340280    0.515209    0.101800
     12          6           0        3.293591   -0.952023   -0.326028
     13          6           0        4.624880   -1.672873   -0.111929
     14          1           0        4.131366    1.029190   -0.461585
     15          1           0        3.623686    0.572654    1.161671
     16          1           0        3.010077   -1.005991   -1.384954
     17          1           0        2.501906   -1.462762    0.236997
     18          1           0        4.910490   -1.648693    0.944690
     19          1           0        5.421548   -1.189326   -0.686476
     20          1           0        4.569064   -2.720304   -0.424392
     21          6           0       -2.054708   -1.243007   -0.251062
     22          6           0       -1.717665   -2.503556    0.546061
     23          6           0       -0.467134   -3.214203    0.027459
     24          1           0       -2.195062   -1.511272   -1.307129
     25          1           0       -1.198955   -0.554717   -0.214474
     26          1           0       -2.574324   -3.188674    0.509133
     27          1           0       -1.578286   -2.232289    1.600386
     28          1           0        0.402462   -2.551144    0.079976
     29          1           0       -0.599237   -3.512963   -1.017477
     30          1           0       -0.244539   -4.112569    0.611624
     31          6           0       -3.302365   -0.521491    0.255391
     32          6           0       -3.639408    0.739057   -0.541731
     33          6           0       -4.889939    1.449705   -0.023130
     34          1           0       -4.158118   -1.209781    0.218804
     35          1           0       -3.162011   -0.253226    1.311459
     36          1           0       -3.778788    0.467791   -1.596057
     37          1           0       -2.782748    1.424176   -0.504805
     38          1           0       -4.757836    1.748465    1.021807
     39          1           0       -5.759534    0.786646   -0.075647
     40          1           0       -5.112534    2.348071   -0.607295
 ---------------------------------------------------------------------

 SCF Done:  E(RHF) =  -470.733329717     A.U. after   11 cycles
 E2 =    -0.1583617537D+01 EUMP2 =    -0.47231694725398D+03

 The electronic state is 1-A.
 Alpha  occ. eigenvalues --  -11.21669 -11.21628 -11.21571 -11.21559 -11.21473
 Alpha  occ. eigenvalues --  -11.21407 -11.21365 -11.21303 -11.21144 -11.21085
 Alpha  occ. eigenvalues --  -11.21038 -11.21005  -1.08494  -1.08390  -1.03584
 Alpha  occ. eigenvalues --   -1.03489  -0.96030  -0.95940  -0.87055  -0.86950
 Alpha  occ. eigenvalues --   -0.79679  -0.79527  -0.78365  -0.78147  -0.65188
 Alpha  occ. eigenvalues --   -0.64966  -0.61046  -0.60839  -0.59407  -0.59302
 Alpha  occ. eigenvalues --   -0.57673  -0.57520  -0.55353  -0.55203  -0.52722
 Alpha  occ. eigenvalues --   -0.52635  -0.52502  -0.52320  -0.50064  -0.49817
 Alpha  occ. eigenvalues --   -0.48074  -0.47778  -0.46787  -0.46539  -0.46105
 Alpha  occ. eigenvalues --   -0.45788  -0.45723  -0.45253  -0.43834  -0.43746
 Alpha virt. eigenvalues --    0.20257   0.22618   0.23582   0.24398   0.25360
 Alpha virt. eigenvalues --    0.26853   0.27124   0.27411   0.27678   0.29720
 Alpha virt. eigenvalues --    0.31065   0.31548   0.31675   0.31743   0.31940

 Mulliken charges:
               1
     1  C   -0.302191
     2  C   -0.299613
     3  C   -0.476842
     4  H    0.150572
     5  H    0.151653
     6  H    0.152507
     7  H    0.152069
     8  H    0.155130
     9  H    0.155826
    10  H    0.160809
    11  C   -0.297725
    12  C   -0.307099
    13  C   -0.475220
    14  H    0.149950
    15  H    0.149546
    16  H    0.152534
    17  H    0.158679
    18  H    0.155037
    19  H    0.155219
    20  H    0.160940
    21  C   -0.302954
    22  C   -0.298915
    23  C   -0.483518
    24  H    0.149625
    25  H    0.154018
    26  H    0.151841
    27  H    0.150951
    28  H    0.162648
    29  H    0.155249
    30  H    0.159702
    31  C   -0.297950
    32  C   -0.301027
    33  C   -0.475564
    34  H    0.149444
    35  H    0.148974
    36  H    0.151817
    37  H    0.153576
    38  H    0.154971
    39  H    0.155004
    40  H    0.160327
 Sum of Mulliken charges =  -0.00000

 Dipole moment (field-independent basis, Debye):
    X=              0.0548    Y=              0.0253    Z=             -0.0202  Tot=              0.0636
 Quadrupole moment (field-independent basis, Debye-Ang):
   XX=            -85.9270   YY=            -85.2393   ZZ=            -83.5422
   XY=              1.5171   XZ=              0.2470   YZ=              0.0225

 Normal termination of Gaussian 16 at Wed May  5 18:09:25 2021.
