 Gaussian 16, Revision A.03,
 Gaussian 16:  EM64L-G16RevA.03 25-Dec-2016

 -------------
 #p 6-31g* mp2
 -------------

 ------------------------------------------------------
 Input file generated by CHIRIPA (05-May-2021 14:57:24)
 ------------------------------------------------------
 Symbolic Z-matrix:
 Charge =  0 Multiplicity = 1

                         Standard orientation:
 ---------------------------------------------------------------------
 Center     Atomic      Atomic             Coordinates (Angstroms)
 Number     Number       Type             X           Y           Z
 ---------------------------------------------------------------------
      1          6           0       -4.698922    1.390117    1.398298
      2          6           0       -4.673053    0.034926    1.743711
      3          6           0       -3.921234   -0.874636    0.994036
      4          6           0       -3.203969   -0.392405   -0.099707
      5          6           0       -3.209598    0.951775   -0.469080
      6          6           0       -3.968400    1.843417    0.294950
      7          1           0       -5.285666    2.089726    1.986239
      8          1           0       -5.239409   -0.319943    2.600072
      9          1           0       -3.883432   -1.929100    1.239181
     10          1           0       -2.634723    1.275708   -1.328152
     11          1           0       -3.986627    2.895318    0.024365
     12          7           0       -2.404355   -1.345832   -0.900953
     13          8           0       -1.781143   -0.895811   -1.859975
     14          8           0       -2.415971   -2.525096   -0.554775
     15          6           0        1.828428    1.472500   -1.633332
     16          6           0        2.589666    2.181955   -0.698608
     17          6           0        3.428253    1.506855    0.193335
     18          6           0        3.481477    0.115658    0.122429
     19          6           0        2.735359   -0.619430   -0.797486
     20          6           0        1.903571    0.076532   -1.679706
     21          1           0        1.179634    2.005037   -2.322438
     22          1           0        2.533310    3.266114   -0.660308
     23          1           0        4.028452    2.031174    0.927003
     24          1           0        2.812631   -1.699823   -0.811590
     25          1           0        1.313523   -0.477052   -2.404573
     26          7           0        4.365654   -0.610083    1.061542
     27          8           0        4.394736   -1.836026    0.978750
     28          8           0        5.012845    0.060767    1.862629
 ---------------------------------------------------------------------

 SCF Done:  E(RHF) =  -868.339378413     A.U. after   16 cycles
 E2 =    -0.2598880662D+01 EUMP2 =    -0.87093825907543D+03

 The electronic state is 1-A.
 Alpha  occ. eigenvalues --  -20.61520 -20.61467 -20.60279 -20.60262 -15.86532
 Alpha  occ. eigenvalues --  -15.85318 -11.31724 -11.30586 -11.28320 -11.28237
 Alpha  occ. eigenvalues --  -11.27972 -11.27272 -11.27215 -11.27174 -11.27010
 Alpha  occ. eigenvalues --  -11.26838 -11.26228 -11.25917  -1.60554  -1.59351
 Alpha  occ. eigenvalues --   -1.40117  -1.38906  -1.19877  -1.18728  -1.09301
 Alpha  occ. eigenvalues --   -1.08148  -1.05260  -1.04089  -0.96169  -0.95005
 Alpha  occ. eigenvalues --   -0.86665  -0.85491  -0.83014  -0.81821  -0.78084
 Alpha  occ. eigenvalues --   -0.76878  -0.72771  -0.71855  -0.71539  -0.70988
 Alpha  occ. eigenvalues --   -0.70672  -0.69853  -0.65539  -0.65264  -0.64369
 Alpha  occ. eigenvalues --   -0.64050  -0.62617  -0.61413  -0.55760  -0.54626
 Alpha  occ. eigenvalues --   -0.53588  -0.53354  -0.52460  -0.52148  -0.49534
 Alpha  occ. eigenvalues --   -0.49490  -0.48301  -0.48286  -0.45555  -0.44333
 Alpha  occ. eigenvalues --   -0.37837  -0.36853  -0.36728  -0.35681
 Alpha virt. eigenvalues --    0.04439   0.05610   0.10806   0.11957   0.15964
 Alpha virt. eigenvalues --    0.17137   0.20843   0.22139   0.26727   0.27527
 Alpha virt. eigenvalues --    0.28285   0.28932   0.30622   0.31544   0.32349

 Mulliken charges:
               1
     1  C   -0.169939
     2  C   -0.218200
     3  C   -0.169843
     4  C    0.159183
     5  C   -0.169509
     6  C   -0.218203
     7  H    0.227438
     8  H    0.225890
     9  H    0.277558
    10  H    0.269941
    11  H    0.223108
    12  N    0.490275
    13  O   -0.470693
    14  O   -0.455527
    15  C   -0.174426
    16  C   -0.219175
    17  C   -0.173419
    18  C    0.158157
    19  C   -0.173559
    20  C   -0.217280
    21  H    0.222192
    22  H    0.218520
    23  H    0.272452
    24  H    0.278073
    25  H    0.242199
    26  N    0.487945
    27  O   -0.459682
    28  O   -0.463474
 Sum of Mulliken charges =  -0.00000

 Dipole moment (field-independent basis, Debye):
    X=             -6.2635    Y=              5.7048    Z=             -0.4815  Tot=              8.4857
 Quadrupole moment (field-independent basis, Debye-Ang):
   XX=           -109.1333   YY=           -100.7959   ZZ=           -104.5465
   XY=              1.0796   XZ=            -21.9568   YZ=             -1.9138

 Normal termination of Gaussian 16 at Thu May  6 09:49:39 2021.
