 Gaussian 16, Revision A.03,
 Gaussian 16:  EM64L-G16RevA.03 25-Dec-2016

 -------------
 #p 6-31g* mp2
 -------------

 ------------------------------------------------------
 Input file generated by CHIRIPA (05-May-2021 14:55:21)
 ------------------------------------------------------
 Symbolic Z-matrix:
 Charge =  0 Multiplicity = 1

                         Standard orientation:
 ---------------------------------------------------------------------
 Center     Atomic      Atomic             Coordinates (Angstroms)
 Number     Number       Type             X           Y           Z
 ---------------------------------------------------------------------
      1          6           0        1.267076   -0.403907   -0.350747
      2          6           0        2.040653   -1.551710   -0.149134
      3          6           0        3.424993   -1.454231    0.020122
      4          6           0        4.005455   -0.187385   -0.018049
      5          6           0        3.261756    0.974760   -0.217098
      6          6           0        1.879018    0.853448   -0.384027
      7          1           0        0.192309   -0.488888   -0.481325
      8          1           0        1.568115   -2.529493   -0.122825
      9          1           0        4.047726   -2.326444    0.177813
     10          1           0        3.761294    1.935710   -0.238439
     11          1           0        1.280748    1.746563   -0.540434
     12          7           0        5.470146   -0.071574    0.159903
     13          8           0        5.957482    1.056130    0.122149
     14          8           0        6.103101   -1.110697    0.333767
     15          6           0       -5.573977    0.261460    0.169777
     16          6           0       -6.224339   -1.090310   -0.126420
     17          6           0       -7.736948   -1.080096    0.096528
     18          1           0       -5.791031    0.545869    1.208500
     19          1           0       -6.034256    1.029394   -0.467259
     20          1           0       -5.762011   -1.855710    0.510000
     21          1           0       -6.005551   -1.371624   -1.164500
     22          1           0       -8.216513   -0.337354   -0.549191
     23          1           0       -7.971589   -0.824190    1.134823
     24          1           0       -8.181419   -2.056297   -0.121041
     25          6           0       -4.062006    0.267110   -0.048491
     26          6           0       -3.411645    1.618881    0.247707
     27          6           0       -1.899036    1.608665    0.024759
     28          1           0       -3.601727   -0.500824    0.588546
     29          1           0       -3.844953   -0.017300   -1.087213
     30          1           0       -3.630433    1.900195    1.285786
     31          1           0       -3.873974    2.384281   -0.388713
     32          1           0       -1.664395    1.352761   -1.013536
     33          1           0       -1.419471    0.865924    0.670477
     34          1           0       -1.454564    2.584867    0.242328
 ---------------------------------------------------------------------

 SCF Done:  E(RHF) =  -669.535186772     A.U. after   15 cycles
 E2 =    -0.2091674016D+01 EUMP2 =    -0.67162686078842D+03

 The electronic state is 1-A.
 Alpha  occ. eigenvalues --  -20.60676 -20.60671 -15.85729 -11.31066 -11.27634
 Alpha  occ. eigenvalues --  -11.27623 -11.27276 -11.26630 -11.26590 -11.22669
 Alpha  occ. eigenvalues --  -11.22521 -11.22344 -11.22242 -11.22111 -11.21591
 Alpha  occ. eigenvalues --   -1.59753  -1.39307  -1.19229  -1.09309  -1.08621
 Alpha  occ. eigenvalues --   -1.04632  -1.04436  -0.96932  -0.95461  -0.87964
 Alpha  occ. eigenvalues --   -0.86016  -0.82305  -0.80533  -0.79083  -0.77356
 Alpha  occ. eigenvalues --   -0.71946  -0.71076  -0.70339  -0.65928  -0.64875
 Alpha  occ. eigenvalues --   -0.64632  -0.61984  -0.61827  -0.60315  -0.58529
 Alpha  occ. eigenvalues --   -0.56231  -0.55168  -0.53632  -0.53265  -0.52949
 Alpha  occ. eigenvalues --   -0.52690  -0.50857  -0.48814  -0.48703  -0.48692
 Alpha  occ. eigenvalues --   -0.47526  -0.46630  -0.46521  -0.44719  -0.44671
 Alpha  occ. eigenvalues --   -0.37189  -0.36239
 Alpha virt. eigenvalues --    0.05156   0.11388   0.16609   0.20373   0.22200
 Alpha virt. eigenvalues --    0.23732   0.25617   0.25921   0.26346   0.27589
 Alpha virt. eigenvalues --    0.29495   0.30272   0.30389   0.31606   0.31696

 Mulliken charges:
               1
     1  C   -0.174589
     2  C   -0.219399
     3  C   -0.171137
     4  C    0.158351
     5  C   -0.171430
     6  C   -0.221771
     7  H    0.231086
     8  H    0.222783
     9  H    0.274970
    10  H    0.275040
    11  H    0.227549
    12  N    0.488066
    13  O   -0.460809
    14  O   -0.460834
    15  C   -0.298837
    16  C   -0.300244
    17  C   -0.476192
    18  H    0.151678
    19  H    0.151483
    20  H    0.151929
    21  H    0.152172
    22  H    0.156237
    23  H    0.156271
    24  H    0.161860
    25  C   -0.299876
    26  C   -0.299877
    27  C   -0.485813
    28  H    0.147901
    29  H    0.148963
    30  H    0.156629
    31  H    0.156006
    32  H    0.152462
    33  H    0.155986
    34  H    0.163384
 Sum of Mulliken charges =  -0.00000

 Dipole moment (field-independent basis, Debye):
    X=             -5.4852    Y=             -0.3446    Z=             -0.5940  Tot=              5.5280
 Quadrupole moment (field-independent basis, Debye-Ang):
   XX=           -137.0287   YY=            -89.4743   ZZ=            -94.6435
   XY=             -1.3801   XZ=             -2.2356   YZ=             -0.6512

 Normal termination of Gaussian 16 at Thu May  6 09:21:06 2021.
