 Gaussian 16, Revision A.03,
 Gaussian 16:  EM64L-G16RevA.03 25-Dec-2016

 -------------
 #p 6-31g* mp2
 -------------

 ------------------------------------------------------
 Input file generated by CHIRIPA (05-May-2021 14:53:17)
 ------------------------------------------------------
 Symbolic Z-matrix:
 Charge =  0 Multiplicity = 1

                         Standard orientation:
 ---------------------------------------------------------------------
 Center     Atomic      Atomic             Coordinates (Angstroms)
 Number     Number       Type             X           Y           Z
 ---------------------------------------------------------------------
      1          6           0       -4.086695    0.182563   -0.259177
      2          6           0       -5.570799   -0.022035   -0.565054
      3          6           0       -6.191127    1.164221   -1.303827
      4          1           0       -3.964909    1.094553    0.341145
      5          1           0       -3.545657    0.353226   -1.200212
      6          1           0       -6.108661   -0.193635    0.376155
      7          1           0       -5.689086   -0.933748   -1.164556
      8          1           0       -5.680534    1.333970   -2.257284
      9          1           0       -6.102492    2.078288   -0.707819
     10          1           0       -7.252409    0.996796   -1.512415
     11          6           0       -3.452391   -0.994834    0.479147
     12          6           0       -1.968288   -0.790236    0.785024
     13          6           0       -1.347960   -1.976491    1.523797
     14          1           0       -3.993429   -1.165496    1.420183
     15          1           0       -3.574178   -1.906824   -0.121175
     16          1           0       -1.850001    0.121478    1.384526
     17          1           0       -1.430426   -0.618635   -0.156185
     18          1           0       -1.436594   -2.890558    0.927789
     19          1           0       -1.858553   -2.146241    2.477254
     20          1           0       -0.286678   -1.809066    1.732386
     21          6           0        4.420182   -1.512034   -1.004180
     22          6           0        4.937964   -0.227558   -0.807860
     23          6           0        4.129749    0.793745   -0.299648
     24          6           0        2.802337    0.494146    0.002848
     25          6           0        2.257242   -0.775554   -0.181612
     26          6           0        3.083830   -1.781458   -0.690982
     27          1           0        5.055159   -2.299425   -1.399422
     28          1           0        5.975421   -0.015437   -1.050210
     29          1           0        4.504821    1.797017   -0.137834
     30          1           0        1.219128   -0.956633    0.069284
     31          1           0        2.679011   -2.778069   -0.842417
     32          7           0        1.936991    1.567202    0.541482
     33          8           0        0.770852    1.277612    0.800121
     34          8           0        2.441257    2.677535    0.694825
 ---------------------------------------------------------------------

 SCF Done:  E(RHF) =  -669.535177568     A.U. after   15 cycles
 E2 =    -0.2092590009D+01 EUMP2 =    -0.67162776757626D+03

 The electronic state is 1-A.
 Alpha  occ. eigenvalues --  -20.60829 -20.60821 -15.85867 -11.31204 -11.27777
 Alpha  occ. eigenvalues --  -11.27730 -11.27517 -11.26792 -11.26774 -11.21193
 Alpha  occ. eigenvalues --  -11.20954 -11.20916 -11.20874 -11.20829 -11.20688
 Alpha  occ. eigenvalues --   -1.59900  -1.39454  -1.19378  -1.08782  -1.07945
 Alpha  occ. eigenvalues --   -1.04778  -1.03112  -0.95685  -0.95555  -0.86636
 Alpha  occ. eigenvalues --   -0.86174  -0.82461  -0.79141  -0.77808  -0.77408
 Alpha  occ. eigenvalues --   -0.72091  -0.71217  -0.70499  -0.65033  -0.64822
 Alpha  occ. eigenvalues --   -0.64564  -0.62189  -0.60501  -0.58942  -0.57193
 Alpha  occ. eigenvalues --   -0.55283  -0.54911  -0.53112  -0.52910  -0.52277
 Alpha  occ. eigenvalues --   -0.51998  -0.49552  -0.48874  -0.48850  -0.47433
 Alpha  occ. eigenvalues --   -0.46155  -0.45283  -0.45185  -0.44822  -0.43360
 Alpha  occ. eigenvalues --   -0.37363  -0.36376
 Alpha virt. eigenvalues --    0.04994   0.11225   0.16516   0.20686   0.23302
 Alpha virt. eigenvalues --    0.24166   0.26805   0.27266   0.27678   0.28200
 Alpha virt. eigenvalues --    0.29589   0.30856   0.31595   0.31685   0.32061

 Mulliken charges:
               1
     1  C   -0.297886
     2  C   -0.299298
     3  C   -0.475425
     4  H    0.154675
     5  H    0.149331
     6  H    0.151149
     7  H    0.149490
     8  H    0.154707
     9  H    0.156586
    10  H    0.158476
    11  C   -0.299209
    12  C   -0.298210
    13  C   -0.482762
    14  H    0.148150
    15  H    0.144229
    16  H    0.173053
    17  H    0.148257
    18  H    0.148005
    19  H    0.158730
    20  H    0.155328
    21  C   -0.170246
    22  C   -0.219015
    23  C   -0.169846
    24  C    0.155095
    25  C   -0.179243
    26  C   -0.222715
    27  H    0.225693
    28  H    0.223489
    29  H    0.275563
    30  H    0.293207
    31  H    0.224336
    32  N    0.492162
    33  O   -0.465863
    34  O   -0.459991
 Sum of Mulliken charges =  -0.00000

 Dipole moment (field-independent basis, Debye):
    X=              3.1040    Y=             -3.5823    Z=             -1.8257  Tot=              5.0794
 Quadrupole moment (field-independent basis, Debye-Ang):
   XX=            -75.6664   YY=            -97.6435   ZZ=            -95.0479
   XY=             -6.4886   XZ=             -6.5135   YZ=             -0.1095

 Normal termination of Gaussian 16 at Thu May  6 13:58:04 2021.
