 Gaussian 16, Revision A.03,
 Gaussian 16:  EM64L-G16RevA.03 25-Dec-2016

 -------------
 #p 6-31g* mp2
 -------------

 ------------------------------------------------------
 Input file generated by CHIRIPA (05-May-2021 14:55:20)
 ------------------------------------------------------
 Symbolic Z-matrix:
 Charge =  0 Multiplicity = 1

                         Standard orientation:
 ---------------------------------------------------------------------
 Center     Atomic      Atomic             Coordinates (Angstroms)
 Number     Number       Type             X           Y           Z
 ---------------------------------------------------------------------
      1          6           0        3.359032   -2.353075    0.316914
      2          6           0        4.243304   -1.533098    1.025590
      3          6           0        4.188447   -0.143012    0.887025
      4          6           0        3.232485    0.395818    0.027323
      5          6           0        2.337715   -0.394596   -0.692346
      6          6           0        2.410731   -1.782213   -0.538284
      7          1           0        3.408699   -3.431968    0.430573
      8          1           0        4.980798   -1.973668    1.690455
      9          1           0        4.860891    0.515213    1.423660
     10          1           0        1.613408    0.073758   -1.347664
     11          1           0        1.722722   -2.416562   -1.089909
     12          7           0        3.164798    1.866133   -0.127572
     13          8           0        2.313422    2.316214   -0.891263
     14          8           0        3.964402    2.540644    0.517644
     15          6           0       -3.506549   -0.579298    0.075350
     16          6           0       -2.476561   -0.473207   -1.049752
     17          6           0       -1.190980   -1.244308   -0.748954
     18          1           0       -3.061965   -0.204374    1.007402
     19          1           0       -3.744585   -1.638287    0.246454
     20          1           0       -2.241572    0.585349   -1.219619
     21          1           0       -2.923713   -0.848250   -1.979274
     22          1           0       -1.405347   -2.307579   -0.600288
     23          1           0       -0.719331   -0.865834    0.163683
     24          1           0       -0.468633   -1.154902   -1.566317
     25          6           0       -4.797169    0.186359   -0.210650
     26          6           0       -5.827159    0.080266    0.914451
     27          6           0       -7.112740    0.851367    0.613654
     28          1           0       -4.559134    1.245348   -0.381753
     29          1           0       -5.241755   -0.188567   -1.142702
     30          1           0       -5.380007    0.455311    1.843976
     31          1           0       -6.062147   -0.978290    1.084319
     32          1           0       -7.584389    0.472893   -0.298983
     33          1           0       -6.898372    1.914639    0.464989
     34          1           0       -7.835086    0.761961    1.431017
 ---------------------------------------------------------------------

 SCF Done:  E(RHF) =  -669.534472024     A.U. after   15 cycles
 E2 =    -0.2092185837D+01 EUMP2 =    -0.67162665786019D+03

 The electronic state is 1-A.
 Alpha  occ. eigenvalues --  -20.60726 -20.60720 -15.85777 -11.31103 -11.27677
 Alpha  occ. eigenvalues --  -11.27630 -11.27410 -11.26692 -11.26632 -11.21946
 Alpha  occ. eigenvalues --  -11.21784 -11.21686 -11.21623 -11.21488 -11.21109
 Alpha  occ. eigenvalues --   -1.59801  -1.39356  -1.19280  -1.08683  -1.08645
 Alpha  occ. eigenvalues --   -1.04691  -1.03799  -0.96300  -0.95519  -0.87335
 Alpha  occ. eigenvalues --   -0.86074  -0.82360  -0.79881  -0.78429  -0.77396
 Alpha  occ. eigenvalues --   -0.71997  -0.71125  -0.70402  -0.65272  -0.64936
 Alpha  occ. eigenvalues --   -0.64679  -0.62147  -0.61178  -0.59622  -0.57875
 Alpha  occ. eigenvalues --   -0.55578  -0.55184  -0.53215  -0.52841  -0.52815
 Alpha  occ. eigenvalues --   -0.52610  -0.50192  -0.48752  -0.48751  -0.48186
 Alpha  occ. eigenvalues --   -0.46864  -0.45982  -0.45876  -0.44769  -0.44060
 Alpha  occ. eigenvalues --   -0.37268  -0.36224
 Alpha virt. eigenvalues --    0.05115   0.11351   0.16570   0.20610   0.22768
 Alpha virt. eigenvalues --    0.23955   0.26189   0.26474   0.27203   0.28087
 Alpha virt. eigenvalues --    0.28901   0.30254   0.31167   0.31497   0.32270

 Mulliken charges:
               1
     1  C   -0.171678
     2  C   -0.218840
     3  C   -0.171375
     4  C    0.157757
     5  C   -0.171861
     6  C   -0.217635
     7  H    0.225223
     8  H    0.222993
     9  H    0.275125
    10  H    0.277733
    11  H    0.226008
    12  N    0.488401
    13  O   -0.461080
    14  O   -0.460702
    15  C   -0.299320
    16  C   -0.301184
    17  C   -0.479523
    18  H    0.151713
    19  H    0.148256
    20  H    0.159258
    21  H    0.152415
    22  H    0.153550
    23  H    0.163022
    24  H    0.148419
    25  C   -0.299027
    26  C   -0.299903
    27  C   -0.475957
    28  H    0.152551
    29  H    0.149582
    30  H    0.152846
    31  H    0.151089
    32  H    0.155046
    33  H    0.156590
    34  H    0.160509
 Sum of Mulliken charges =  -0.00000

 Dipole moment (field-independent basis, Debye):
    X=              0.0923    Y=             -5.1354    Z=              0.5859  Tot=              5.1696
 Quadrupole moment (field-independent basis, Debye-Ang):
   XX=            -91.3275   YY=            -99.1117   ZZ=            -93.0716
   XY=            -15.7719   XZ=              4.7236   YZ=              0.7790

 Normal termination of Gaussian 16 at Wed May  5 17:25:16 2021.
