 Gaussian 16, Revision A.03,
 Gaussian 16:  EM64L-G16RevA.03 25-Dec-2016

 -------------
 #p 6-31g* mp2
 -------------

 ------------------------------------------------------
 Input file generated by CHIRIPA (05-May-2021 14:55:18)
 ------------------------------------------------------
 Symbolic Z-matrix:
 Charge =  0 Multiplicity = 1

                         Standard orientation:
 ---------------------------------------------------------------------
 Center     Atomic      Atomic             Coordinates (Angstroms)
 Number     Number       Type             X           Y           Z
 ---------------------------------------------------------------------
      1          6           0        5.221638   -2.007863   -0.246663
      2          6           0        5.544658   -0.863043   -0.982576
      3          6           0        4.763073    0.291499   -0.879109
      4          6           0        3.660600    0.266101   -0.026349
      5          6           0        3.312977   -0.858886    0.719876
      6          6           0        4.108790   -2.002141    0.600720
      7          1           0        5.834318   -2.900355   -0.333133
      8          1           0        6.408329   -0.864611   -1.641450
      9          1           0        4.990387    1.191567   -1.437341
     10          1           0        2.445901   -0.827015    1.368400
     11          1           0        3.855543   -2.889777    1.173443
     12          7           0        2.825639    1.482388    0.091491
     13          8           0        1.859531    1.434425    0.849759
     14          8           0        3.153116    2.460647   -0.576645
     15          6           0       -4.315974   -0.062059    0.592553
     16          6           0       -2.950863    0.359001    0.047422
     17          6           0       -1.869460    0.398217    1.127620
     18          1           0       -4.616015    0.632954    1.388717
     19          1           0       -4.226841   -1.052675    1.059598
     20          1           0       -3.042848    1.347926   -0.419677
     21          1           0       -2.654124   -0.336983   -0.747667
     22          1           0       -1.748515   -0.587868    1.587628
     23          1           0       -2.139449    1.106614    1.917481
     24          1           0       -0.901752    0.701589    0.716077
     25          6           0       -5.407447   -0.105986   -0.475380
     26          6           0       -6.772558   -0.527046    0.069751
     27          6           0       -7.853961   -0.566262   -1.010446
     28          1           0       -5.496581    0.884631   -0.942424
     29          1           0       -5.107407   -0.800998   -1.271544
     30          1           0       -7.069297    0.168938    0.864840
     31          1           0       -6.680573   -1.515970    0.536851
     32          1           0       -7.583973   -1.274657   -1.800308
     33          1           0       -7.974906    0.419823   -1.470455
     34          1           0       -8.821669   -0.869632   -0.598904
 ---------------------------------------------------------------------

 SCF Done:  E(RHF) =  -669.536151607     A.U. after   15 cycles
 E2 =    -0.2090638659D+01 EUMP2 =    -0.67162679026532D+03

 The electronic state is 1-A.
 Alpha  occ. eigenvalues --  -20.60923 -20.60909 -15.85950 -11.31266 -11.27832
 Alpha  occ. eigenvalues --  -11.27823 -11.27572 -11.26839 -11.26829 -11.21255
 Alpha  occ. eigenvalues --  -11.20944 -11.20864 -11.20796 -11.20785 -11.19992
 Alpha  occ. eigenvalues --   -1.59980  -1.39536  -1.19436  -1.08843  -1.07905
 Alpha  occ. eigenvalues --   -1.04832  -1.02944  -0.95687  -0.95374  -0.86391
 Alpha  occ. eigenvalues --   -0.86232  -0.82518  -0.79025  -0.77714  -0.77568
 Alpha  occ. eigenvalues --   -0.72175  -0.71293  -0.70546  -0.65093  -0.64835
 Alpha  occ. eigenvalues --   -0.64546  -0.62178  -0.60355  -0.58750  -0.56970
 Alpha  occ. eigenvalues --   -0.55339  -0.54685  -0.53166  -0.52924  -0.52014
 Alpha  occ. eigenvalues --   -0.51804  -0.49349  -0.48932  -0.48924  -0.47332
 Alpha  occ. eigenvalues --   -0.46087  -0.45252  -0.45184  -0.44945  -0.43147
 Alpha  occ. eigenvalues --   -0.37417  -0.36433
 Alpha virt. eigenvalues --    0.04922   0.11221   0.16390   0.21307   0.23352
 Alpha virt. eigenvalues --    0.24899   0.27100   0.27223   0.27883   0.27989
 Alpha virt. eigenvalues --    0.28898   0.30817   0.31905   0.32090   0.32361

 Mulliken charges:
               1
     1  C   -0.170600
     2  C   -0.218612
     3  C   -0.170809
     4  C    0.157878
     5  C   -0.170919
     6  C   -0.218618
     7  H    0.225893
     8  H    0.223703
     9  H    0.275750
    10  H    0.276715
    11  H    0.223843
    12  N    0.490452
    13  O   -0.461952
    14  O   -0.458924
    15  C   -0.297337
    16  C   -0.299395
    17  C   -0.484616
    18  H    0.149475
    19  H    0.146513
    20  H    0.153689
    21  H    0.147619
    22  H    0.144599
    23  H    0.154827
    24  H    0.184152
    25  C   -0.297722
    26  C   -0.299150
    27  C   -0.475391
    28  H    0.149874
    29  H    0.148039
    30  H    0.151854
    31  H    0.150553
    32  H    0.154281
    33  H    0.155287
    34  H    0.159050
 Sum of Mulliken charges =  -0.00000

 Dipole moment (field-independent basis, Debye):
    X=              3.2024    Y=             -4.1961    Z=             -0.4296  Tot=              5.2960
 Quadrupole moment (field-independent basis, Debye-Ang):
   XX=            -73.3802   YY=            -95.4166   ZZ=            -93.6457
   XY=            -14.1244   XZ=             -4.5545   YZ=             -1.6176

 Normal termination of Gaussian 16 at Thu May  6 14:00:39 2021.
