 Gaussian 16, Revision A.03,
 Gaussian 16:  EM64L-G16RevA.03 25-Dec-2016

 -------------
 #p 6-31g* mp2
 -------------

 ------------------------------------------------------
 Input file generated by CHIRIPA (05-May-2021 14:55:25)
 ------------------------------------------------------
 Symbolic Z-matrix:
 Charge =  0 Multiplicity = 1

                         Standard orientation:
 ---------------------------------------------------------------------
 Center     Atomic      Atomic             Coordinates (Angstroms)
 Number     Number       Type             X           Y           Z
 ---------------------------------------------------------------------
      1          6           0        3.040400    2.648035   -0.599240
      2          6           0        2.441103    2.380589    0.636008
      3          6           0        2.275279    1.063438    1.074371
      4          6           0        2.722366    0.033327    0.248371
      5          6           0        3.323241    0.267575   -0.987496
      6          6           0        3.478783    1.592535   -1.405628
      7          1           0        3.165223    3.674263   -0.931913
      8          1           0        2.099695    3.198315    1.264347
      9          1           0        1.814660    0.827964    2.026106
     10          1           0        3.653520   -0.568538   -1.591854
     11          1           0        3.944554    1.797258   -2.365415
     12          7           0        2.552258   -1.365216    0.701738
     13          8           0        2.954630   -2.255046   -0.044543
     14          8           0        2.019776   -1.545082    1.794783
     15          6           0       -4.168180    0.013099   -0.424527
     16          6           0       -4.729704    0.925624    0.666332
     17          6           0       -6.025529    1.620324    0.246781
     18          1           0       -3.991192    0.604558   -1.333260
     19          1           0       -4.922460   -0.742231   -0.685168
     20          1           0       -3.974071    1.678155    0.925817
     21          1           0       -4.905195    0.331962    1.572635
     22          1           0       -6.798059    0.882497    0.007178
     23          1           0       -5.861645    2.236339   -0.643314
     24          1           0       -6.409456    2.267670    1.041390
     25          6           0       -2.872850   -0.688488   -0.020021
     26          6           0       -2.311325   -1.601013   -1.110878
     27          6           0       -1.015501   -2.295714   -0.691328
     28          1           0       -2.118570    0.066842    0.240621
     29          1           0       -3.049837   -1.279948    0.888713
     30          1           0       -2.135834   -1.007351   -2.017181
     31          1           0       -3.066959   -2.353544   -1.370364
     32          1           0       -1.179386   -2.911729    0.198767
     33          1           0       -0.242970   -1.557887   -0.451725
     34          1           0       -0.631573   -2.943059   -1.485937
 ---------------------------------------------------------------------

 SCF Done:  E(RHF) =  -669.535509098     A.U. after   15 cycles
 E2 =    -0.2091481695D+01 EUMP2 =    -0.67162699079288D+03

 The electronic state is 1-A.
 Alpha  occ. eigenvalues --  -20.60766 -20.60760 -15.85812 -11.31224 -11.27794
 Alpha  occ. eigenvalues --  -11.27789 -11.27540 -11.26813 -11.26803 -11.21511
 Alpha  occ. eigenvalues --  -11.21207 -11.21176 -11.21061 -11.21026 -11.20381
 Alpha  occ. eigenvalues --   -1.59839  -1.39390  -1.19397  -1.08787  -1.08177
 Alpha  occ. eigenvalues --   -1.04802  -1.03233  -0.95662  -0.95614  -0.86670
 Alpha  occ. eigenvalues --   -0.86198  -0.82442  -0.79306  -0.77980  -0.77484
 Alpha  occ. eigenvalues --   -0.72035  -0.71181  -0.70499  -0.65047  -0.64815
 Alpha  occ. eigenvalues --   -0.64802  -0.62146  -0.60637  -0.59051  -0.57269
 Alpha  occ. eigenvalues --   -0.55301  -0.54954  -0.53132  -0.52892  -0.52338
 Alpha  occ. eigenvalues --   -0.52074  -0.49611  -0.48798  -0.48787  -0.47607
 Alpha  occ. eigenvalues --   -0.46360  -0.45515  -0.45451  -0.44778  -0.43483
 Alpha  occ. eigenvalues --   -0.37379  -0.36406
 Alpha virt. eigenvalues --    0.05043   0.11240   0.16511   0.21386   0.23062
 Alpha virt. eigenvalues --    0.24536   0.26784   0.27296   0.27629   0.28103
 Alpha virt. eigenvalues --    0.28365   0.30776   0.31578   0.32034   0.32396

 Mulliken charges:
               1
     1  C   -0.170793
     2  C   -0.218661
     3  C   -0.171883
     4  C    0.155515
     5  C   -0.171023
     6  C   -0.218615
     7  H    0.225714
     8  H    0.223602
     9  H    0.276177
    10  H    0.276052
    11  H    0.223605
    12  N    0.490160
    13  O   -0.459089
    14  O   -0.459382
    15  C   -0.297898
    16  C   -0.298983
    17  C   -0.475448
    18  H    0.147686
    19  H    0.149851
    20  H    0.149124
    21  H    0.152985
    22  H    0.155772
    23  H    0.153988
    24  H    0.159315
    25  C   -0.297080
    26  C   -0.300996
    27  C   -0.470135
    28  H    0.146268
    29  H    0.152221
    30  H    0.148056
    31  H    0.151193
    32  H    0.162926
    33  H    0.147318
    34  H    0.162457
 Sum of Mulliken charges =  -0.00000

 Dipole moment (field-independent basis, Debye):
    X=              0.6817    Y=              4.8181    Z=             -1.5608  Tot=              5.1103
 Quadrupole moment (field-independent basis, Debye-Ang):
   XX=            -92.1425   YY=            -93.8542   ZZ=            -92.1722
   XY=             13.9770   XZ=             -6.8890   YZ=              2.4550

 Normal termination of Gaussian 16 at Thu May  6 11:06:05 2021.
