 Gaussian 16, Revision A.03,
 Gaussian 16:  EM64L-G16RevA.03 25-Dec-2016

 -------------
 #p 6-31g* mp2
 -------------

 ------------------------------------------------------
 Input file generated by CHIRIPA (05-May-2021 14:55:21)
 ------------------------------------------------------
 Symbolic Z-matrix:
 Charge =  0 Multiplicity = 1

                         Standard orientation:
 ---------------------------------------------------------------------
 Center     Atomic      Atomic             Coordinates (Angstroms)
 Number     Number       Type             X           Y           Z
 ---------------------------------------------------------------------
      1          6           0       -2.502324   -2.415219    1.155774
      2          6           0       -1.305412   -1.835548    0.722294
      3          6           0       -1.316571   -0.635396    0.005316
      4          6           0       -2.548113   -0.039391   -0.261841
      5          6           0       -3.757513   -0.592232    0.156498
      6          6           0       -3.722403   -1.792808    0.871993
      7          1           0       -2.484352   -3.347691    1.712164
      8          1           0       -0.356407   -2.316690    0.941242
      9          1           0       -0.404863   -0.164841   -0.342223
     10          1           0       -4.687987   -0.089101   -0.076944
     11          1           0       -4.653503   -2.240704    1.207386
     12          7           0       -2.572604    1.231381   -1.020088
     13          8           0       -3.670714    1.736618   -1.242635
     14          8           0       -1.493227    1.698113   -1.377499
     15          6           0        3.245552   -0.289176   -0.287450
     16          6           0        4.601946   -0.984856   -0.406650
     17          6           0        4.564143   -2.198691   -1.335611
     18          1           0        2.501832   -1.010028    0.078881
     19          1           0        2.912350    0.023057   -1.286891
     20          1           0        4.933133   -1.294455    0.592890
     21          1           0        5.342563   -0.262214   -0.772556
     22          1           0        4.258145   -1.902531   -2.344201
     23          1           0        3.846388   -2.940638   -0.970997
     24          1           0        5.544142   -2.680846   -1.406253
     25          6           0        3.267284    0.926180    0.637844
     26          6           0        1.910890    1.621860    0.757044
     27          6           0        1.948692    2.835694    1.686006
     28          1           0        3.600485    0.613947    1.637285
     29          1           0        4.011003    1.647032    0.271513
     30          1           0        1.170272    0.899217    1.122951
     31          1           0        1.579702    1.931458   -0.242496
     32          1           0        2.666447    3.577640    1.321391
     33          1           0        2.254690    2.539534    2.694596
     34          1           0        0.968693    3.317849    1.756647
 ---------------------------------------------------------------------

 SCF Done:  E(RHF) =  -669.535584364     A.U. after   15 cycles
 E2 =    -0.2092487742D+01 EUMP2 =    -0.67162807210612D+03

 The electronic state is 1-A.
 Alpha  occ. eigenvalues --  -20.60768 -20.60762 -15.85815 -11.31141 -11.27735
 Alpha  occ. eigenvalues --  -11.27651 -11.27479 -11.26744 -11.26729 -11.21912
 Alpha  occ. eigenvalues --  -11.21786 -11.21578 -11.21507 -11.21379 -11.20913
 Alpha  occ. eigenvalues --   -1.59838  -1.39391  -1.19326  -1.08730  -1.08654
 Alpha  occ. eigenvalues --   -1.04727  -1.03662  -0.96121  -0.95567  -0.87138
 Alpha  occ. eigenvalues --   -0.86126  -0.82401  -0.79761  -0.78527  -0.77408
 Alpha  occ. eigenvalues --   -0.72034  -0.71157  -0.70439  -0.65298  -0.64972
 Alpha  occ. eigenvalues --   -0.64734  -0.62090  -0.61046  -0.59483  -0.57722
 Alpha  occ. eigenvalues --   -0.55419  -0.55240  -0.53064  -0.52893  -0.52728
 Alpha  occ. eigenvalues --   -0.52525  -0.50068  -0.48800  -0.48791  -0.48038
 Alpha  occ. eigenvalues --   -0.46784  -0.46016  -0.45882  -0.44794  -0.43940
 Alpha  occ. eigenvalues --   -0.37314  -0.36314
 Alpha virt. eigenvalues --    0.05049   0.11288   0.16523   0.19818   0.22903
 Alpha virt. eigenvalues --    0.24196   0.24768   0.26022   0.27770   0.28094
 Alpha virt. eigenvalues --    0.30078   0.30774   0.31181   0.31661   0.32108

 Mulliken charges:
               1
     1  C   -0.170278
     2  C   -0.222645
     3  C   -0.174348
     4  C    0.156267
     5  C   -0.170411
     6  C   -0.218911
     7  H    0.225431
     8  H    0.223742
     9  H    0.286175
    10  H    0.275385
    11  H    0.223284
    12  N    0.488467
    13  O   -0.460423
    14  O   -0.461640
    15  C   -0.299836
    16  C   -0.299618
    17  C   -0.475603
    18  H    0.136830
    19  H    0.154994
    20  H    0.151612
    21  H    0.155238
    22  H    0.157575
    23  H    0.151087
    24  H    0.161672
    25  C   -0.297734
    26  C   -0.308278
    27  C   -0.475526
    28  H    0.147902
    29  H    0.152873
    30  H    0.142300
    31  H    0.169529
    32  H    0.156656
    33  H    0.151831
    34  H    0.166401
 Sum of Mulliken charges =  -0.00000

 Dipole moment (field-independent basis, Debye):
    X=              0.1555    Y=             -4.3064    Z=              2.5807  Tot=              5.0229
 Quadrupole moment (field-independent basis, Debye-Ang):
   XX=            -89.7954   YY=            -95.2394   ZZ=            -96.8141
   XY=             11.9988   XZ=             -7.6795   YZ=             -0.0861

 Normal termination of Gaussian 16 at Thu May  6 07:48:23 2021.
