 Gaussian 16, Revision A.03,
 Gaussian 16:  EM64L-G16RevA.03 25-Dec-2016

 -------------
 #p 6-31g* mp2
 -------------

 ------------------------------------------------------
 Input file generated by CHIRIPA (05-May-2021 14:53:13)
 ------------------------------------------------------
 Symbolic Z-matrix:
 Charge =  0 Multiplicity = 1

                         Standard orientation:
 ---------------------------------------------------------------------
 Center     Atomic      Atomic             Coordinates (Angstroms)
 Number     Number       Type             X           Y           Z
 ---------------------------------------------------------------------
      1          6           0        2.665598   -0.476408   -0.058252
      2          6           0        3.533847   -1.545916   -0.721787
      3          6           0        2.981018   -2.958563   -0.530471
      4          1           0        2.580396   -0.696146    1.014782
      5          1           0        1.648539   -0.532074   -0.470427
      6          1           0        4.549322   -1.487340   -0.309481
      7          1           0        3.617150   -1.323499   -1.793331
      8          1           0        1.976539   -3.040354   -0.958178
      9          1           0        2.914008   -3.205125    0.534103
     10          1           0        3.617108   -3.707335   -1.012747
     11          6           0        3.205260    0.941048   -0.240764
     12          6           0        2.337010    2.010556    0.422771
     13          6           0        2.889839    3.423204    0.231456
     14          1           0        4.222318    0.996714    0.171411
     15          1           0        3.290461    1.160787   -1.313798
     16          1           0        2.253707    1.788139    1.494316
     17          1           0        1.321535    1.951980    0.010465
     18          1           0        2.956849    3.669766   -0.833118
     19          1           0        3.894318    3.504994    0.659163
     20          1           0        2.253749    4.171975    0.713731
     21          6           0       -1.337429   -2.418116    0.787456
     22          6           0       -0.674300   -1.238710    1.142116
     23          6           0       -1.194736    0.006103    0.775875
     24          6           0       -2.385714    0.034728    0.051967
     25          6           0       -3.069787   -1.122735   -0.316291
     26          6           0       -2.530952   -2.356473    0.060666
     27          1           0       -0.925995   -3.380815    1.076124
     28          1           0        0.252777   -1.283550    1.706532
     29          1           0       -0.701994    0.934695    1.037292
     30          1           0       -3.992148   -1.046079   -0.879133
     31          1           0       -3.048110   -3.270786   -0.216145
     32          7           0       -2.946416    1.346693   -0.341429
     33          8           0       -3.997183    1.344931   -0.979019
     34          8           0       -2.324509    2.351932   -0.004732
 ---------------------------------------------------------------------

 SCF Done:  E(RHF) =  -669.534433232     A.U. after   15 cycles
 E2 =    -0.2094257486D+01 EUMP2 =    -0.67162869071758D+03

 The electronic state is 1-A.
 Alpha  occ. eigenvalues --  -20.60769 -20.60763 -15.85815 -11.31155 -11.27700
 Alpha  occ. eigenvalues --  -11.27642 -11.27418 -11.26737 -11.26647 -11.22188
 Alpha  occ. eigenvalues --  -11.21985 -11.21976 -11.21802 -11.21784 -11.21166
 Alpha  occ. eigenvalues --   -1.59841  -1.39396  -1.19318  -1.08958  -1.08711
 Alpha  occ. eigenvalues --   -1.04710  -1.03993  -0.96439  -0.95555  -0.87462
 Alpha  occ. eigenvalues --   -0.86107  -0.82399  -0.80093  -0.78871  -0.77379
 Alpha  occ. eigenvalues --   -0.72033  -0.71164  -0.70412  -0.65589  -0.64959
 Alpha  occ. eigenvalues --   -0.64705  -0.62078  -0.61363  -0.59814  -0.58062
 Alpha  occ. eigenvalues --   -0.55733  -0.55206  -0.53190  -0.53096  -0.52973
 Alpha  occ. eigenvalues --   -0.52604  -0.50379  -0.48794  -0.48791  -0.48368
 Alpha  occ. eigenvalues --   -0.47114  -0.46301  -0.46206  -0.44799  -0.44244
 Alpha  occ. eigenvalues --   -0.37293  -0.36214
 Alpha virt. eigenvalues --    0.05035   0.11235   0.16502   0.20260   0.22841
 Alpha virt. eigenvalues --    0.23435   0.24781   0.26036   0.27109   0.28666
 Alpha virt. eigenvalues --    0.29570   0.30373   0.31030   0.31433   0.31944

 Mulliken charges:
               1
     1  C   -0.307116
     2  C   -0.298430
     3  C   -0.478160
     4  H    0.139093
     5  H    0.158789
     6  H    0.153577
     7  H    0.155742
     8  H    0.155516
     9  H    0.148855
    10  H    0.163530
    11  C   -0.296913
    12  C   -0.308541
    13  C   -0.475140
    14  H    0.150446
    15  H    0.153563
    16  H    0.145820
    17  H    0.159297
    18  H    0.158338
    19  H    0.154337
    20  H    0.165987
    21  C   -0.173778
    22  C   -0.217652
    23  C   -0.177719
    24  C    0.158188
    25  C   -0.171688
    26  C   -0.218498
    27  H    0.226357
    28  H    0.229260
    29  H    0.282046
    30  H    0.275183
    31  H    0.223270
    32  N    0.488125
    33  O   -0.460262
    34  O   -0.461421
 Sum of Mulliken charges =  -0.00000

 Dipole moment (field-independent basis, Debye):
    X=              2.0563    Y=             -4.5137    Z=              1.2698  Tot=              5.1200
 Quadrupole moment (field-independent basis, Debye-Ang):
   XX=           -101.3062   YY=            -95.3211   ZZ=            -93.5392
   XY=             13.1280   XZ=             -1.1585   YZ=              0.9580

 Normal termination of Gaussian 16 at Thu May  6 04:12:05 2021.
