 Gaussian 16, Revision A.03,
 Gaussian 16:  EM64L-G16RevA.03 25-Dec-2016

 -------------
 #p 6-31g* mp2
 -------------

 ------------------------------------------------------
 Input file generated by CHIRIPA (05-May-2021 14:55:22)
 ------------------------------------------------------
 Symbolic Z-matrix:
 Charge =  0 Multiplicity = 1

                         Standard orientation:
 ---------------------------------------------------------------------
 Center     Atomic      Atomic             Coordinates (Angstroms)
 Number     Number       Type             X           Y           Z
 ---------------------------------------------------------------------
      1          6           0       -2.020876    2.130710    1.116317
      2          6           0       -1.578955    1.799262   -0.168739
      3          6           0       -2.001510    0.615915   -0.781670
      4          6           0       -2.870103   -0.216582   -0.077551
      5          6           0       -3.328047    0.085968    1.203871
      6          6           0       -2.892476    1.274515    1.797320
      7          1           0       -1.687569    3.051982    1.584889
      8          1           0       -0.902041    2.462294   -0.699984
      9          1           0       -1.674960    0.334896   -1.775557
     10          1           0       -4.002636   -0.595004    1.708475
     11          1           0       -3.237310    1.529362    2.795412
     12          7           0       -3.324334   -1.472091   -0.716121
     13          8           0       -4.089727   -2.188613   -0.074711
     14          8           0       -2.906365   -1.715864   -1.845950
     15          6           0        3.967985   -0.631384   -0.165296
     16          6           0        3.822726   -1.664373    0.952656
     17          6           0        4.608863   -2.946778    0.678388
     18          1           0        3.630084   -1.074943   -1.111881
     19          1           0        5.031911   -0.389575   -0.295626
     20          1           0        2.759269   -1.903131    1.081773
     21          1           0        4.160833   -1.218240    1.896723
     22          1           0        5.676296   -2.728676    0.570590
     23          1           0        4.266769   -3.417459   -0.248991
     24          1           0        4.490927   -3.671344    1.490148
     25          6           0        3.187831    0.656112    0.094401
     26          6           0        3.333091    1.689102   -1.023551
     27          6           0        2.546953    2.971505   -0.749283
     28          1           0        2.123905    0.414302    0.224730
     29          1           0        3.525731    1.099671    1.040986
     30          1           0        2.994983    1.242968   -1.967619
     31          1           0        4.396547    1.927859   -1.152668
     32          1           0        2.889047    3.442186    0.178095
     33          1           0        1.479520    2.753403   -0.641486
     34          1           0        2.664889    3.696072   -1.561044
 ---------------------------------------------------------------------

 SCF Done:  E(RHF) =  -669.535630550     A.U. after   15 cycles
 E2 =    -0.2091180490D+01 EUMP2 =    -0.67162681104030D+03

 The electronic state is 1-A.
 Alpha  occ. eigenvalues --  -20.60796 -20.60791 -15.85851 -11.31222 -11.27803
 Alpha  occ. eigenvalues --  -11.27797 -11.27535 -11.26803 -11.26793 -11.22153
 Alpha  occ. eigenvalues --  -11.21910 -11.21778 -11.21744 -11.21604 -11.21128
 Alpha  occ. eigenvalues --   -1.59872  -1.39426  -1.19399  -1.08794  -1.08774
 Alpha  occ. eigenvalues --   -1.04805  -1.03909  -0.96375  -0.95622  -0.87399
 Alpha  occ. eigenvalues --   -0.86199  -0.82456  -0.79984  -0.78557  -0.77504
 Alpha  occ. eigenvalues --   -0.72068  -0.71196  -0.70499  -0.65432  -0.65049
 Alpha  occ. eigenvalues --   -0.64813  -0.62191  -0.61283  -0.59752  -0.57964
 Alpha  occ. eigenvalues --   -0.55703  -0.55280  -0.53134  -0.53087  -0.52988
 Alpha  occ. eigenvalues --   -0.52692  -0.50312  -0.48829  -0.48823  -0.48288
 Alpha  occ. eigenvalues --   -0.47003  -0.46108  -0.46005  -0.44830  -0.44143
 Alpha  occ. eigenvalues --   -0.37370  -0.36400
 Alpha virt. eigenvalues --    0.05030   0.11154   0.16457   0.20253   0.22735
 Alpha virt. eigenvalues --    0.23952   0.25621   0.26608   0.27365   0.28232
 Alpha virt. eigenvalues --    0.28616   0.30183   0.31210   0.31737   0.32058

 Mulliken charges:
               1
     1  C   -0.171501
     2  C   -0.222400
     3  C   -0.172526
     4  C    0.158508
     5  C   -0.170643
     6  C   -0.218636
     7  H    0.226482
     8  H    0.229895
     9  H    0.275723
    10  H    0.275796
    11  H    0.223678
    12  N    0.488076
    13  O   -0.460305
    14  O   -0.460510
    15  C   -0.298829
    16  C   -0.300175
    17  C   -0.476096
    18  H    0.151718
    19  H    0.149825
    20  H    0.153831
    21  H    0.150967
    22  H    0.154755
    23  H    0.157245
    24  H    0.161310
    25  C   -0.299647
    26  C   -0.299536
    27  C   -0.479462
    28  H    0.150274
    29  H    0.149147
    30  H    0.153006
    31  H    0.154823
    32  H    0.157083
    33  H    0.145882
    34  H    0.162244
 Sum of Mulliken charges =  -0.00000

 Dipole moment (field-independent basis, Debye):
    X=              1.6727    Y=              4.3664    Z=              2.2748  Tot=              5.1998
 Quadrupole moment (field-independent basis, Debye-Ang):
   XX=           -102.2862   YY=            -97.9121   ZZ=            -91.8039
   XY=            -11.7195   XZ=             -8.9120   YZ=             -1.5966

 Normal termination of Gaussian 16 at Thu May  6 01:27:09 2021.
