 Gaussian 16, Revision A.03,
 Gaussian 16:  EM64L-G16RevA.03 25-Dec-2016

 -------------
 #p 6-31g* mp2
 -------------

 ------------------------------------------------------
 Input file generated by CHIRIPA (05-May-2021 14:55:19)
 ------------------------------------------------------
 Symbolic Z-matrix:
 Charge =  0 Multiplicity = 1

                         Standard orientation:
 ---------------------------------------------------------------------
 Center     Atomic      Atomic             Coordinates (Angstroms)
 Number     Number       Type             X           Y           Z
 ---------------------------------------------------------------------
      1          6           0        3.537504    1.979303    0.770890
      2          6           0        2.940455    1.097575    1.677867
      3          6           0        2.315452   -0.069011    1.227318
      4          6           0        2.306062   -0.323804   -0.143186
      5          6           0        2.892144    0.535085   -1.071683
      6          6           0        3.511489    1.695744   -0.598577
      7          1           0        4.020824    2.883234    1.129648
      8          1           0        2.959130    1.315227    2.741975
      9          1           0        1.845495   -0.768909    1.907541
     10          1           0        2.857419    0.291099   -2.126521
     11          1           0        3.974354    2.378693   -1.305246
     12          7           0        1.647394   -1.555680   -0.632102
     13          8           0        1.652723   -1.757342   -1.844514
     14          8           0        1.138274   -2.296237    0.206354
     15          6           0       -3.347910   -0.557254    0.182868
     16          6           0       -2.232752   -1.577310    0.415023
     17          6           0       -2.763080   -2.996812    0.618883
     18          1           0       -4.035478   -0.573824    1.039559
     19          1           0       -3.935180   -0.859887   -0.695154
     20          1           0       -1.646911   -1.272100    1.291523
     21          1           0       -1.547652   -1.558173   -0.442232
     22          1           0       -3.330526   -3.325656   -0.257740
     23          1           0       -3.430349   -3.037958    1.485867
     24          1           0       -1.949087   -3.709763    0.783123
     25          6           0       -2.833514    0.866442   -0.022595
     26          6           0       -3.948671    1.886497   -0.254750
     27          6           0       -3.418344    3.306000   -0.458610
     28          1           0       -2.246245    1.169074    0.855427
     29          1           0       -2.145945    0.883012   -0.879287
     30          1           0       -4.633772    1.867361    0.602505
     31          1           0       -4.534513    1.581287   -1.131251
     32          1           0       -2.751075    3.347145   -1.325594
     33          1           0       -2.850898    3.634844    0.418013
     34          1           0       -4.232337    4.018951   -0.622851
 ---------------------------------------------------------------------

 SCF Done:  E(RHF) =  -669.535924360     A.U. after   15 cycles
 E2 =    -0.2092093094D+01 EUMP2 =    -0.67162801745452D+03

 The electronic state is 1-A.
 Alpha  occ. eigenvalues --  -20.60929 -20.60902 -15.85931 -11.31259 -11.27823
 Alpha  occ. eigenvalues --  -11.27819 -11.27560 -11.26830 -11.26820 -11.21311
 Alpha  occ. eigenvalues --  -11.20966 -11.20928 -11.20662 -11.20482 -11.19926
 Alpha  occ. eigenvalues --   -1.59973  -1.39528  -1.19425  -1.08831  -1.07836
 Alpha  occ. eigenvalues --   -1.04823  -1.02856  -0.95677  -0.95337  -0.86370
 Alpha  occ. eigenvalues --   -0.86224  -0.82512  -0.78980  -0.77649  -0.77511
 Alpha  occ. eigenvalues --   -0.72161  -0.71282  -0.70537  -0.65083  -0.64830
 Alpha  occ. eigenvalues --   -0.64477  -0.62173  -0.60263  -0.58745  -0.56894
 Alpha  occ. eigenvalues --   -0.55329  -0.54661  -0.53150  -0.52917  -0.52013
 Alpha  occ. eigenvalues --   -0.51766  -0.49333  -0.48930  -0.48922  -0.47300
 Alpha  occ. eigenvalues --   -0.46033  -0.45388  -0.45033  -0.44610  -0.43113
 Alpha  occ. eigenvalues --   -0.37400  -0.36422
 Alpha virt. eigenvalues --    0.04939   0.11219   0.16427   0.21293   0.23344
 Alpha virt. eigenvalues --    0.24923   0.26833   0.27365   0.27666   0.28467
 Alpha virt. eigenvalues --    0.28693   0.30780   0.31667   0.32138   0.32672

 Mulliken charges:
               1
     1  C   -0.170443
     2  C   -0.218571
     3  C   -0.170493
     4  C    0.159074
     5  C   -0.170917
     6  C   -0.218456
     7  H    0.225915
     8  H    0.223629
     9  H    0.275745
    10  H    0.275582
    11  H    0.223712
    12  N    0.487749
    13  O   -0.460451
    14  O   -0.457620
    15  C   -0.298883
    16  C   -0.295234
    17  C   -0.477666
    18  H    0.145839
    19  H    0.148864
    20  H    0.146057
    21  H    0.161968
    22  H    0.152355
    23  H    0.147411
    24  H    0.172534
    25  C   -0.297196
    26  C   -0.298832
    27  C   -0.475059
    28  H    0.144949
    29  H    0.148934
    30  H    0.151088
    31  H    0.152605
    32  H    0.154167
    33  H    0.152471
    34  H    0.159176
 Sum of Mulliken charges =  -0.00000

 Dipole moment (field-independent basis, Debye):
    X=              2.5387    Y=              4.2004    Z=              1.6731  Tot=              5.1853
 Quadrupole moment (field-independent basis, Debye-Ang):
   XX=            -85.2640   YY=            -98.9800   ZZ=            -89.9778
   XY=              9.7389   XZ=              2.6180   YZ=             -2.0829

 Normal termination of Gaussian 16 at Wed May  5 15:51:14 2021.
