 Gaussian 16, Revision A.03,
 Gaussian 16:  EM64L-G16RevA.03 25-Dec-2016

 -------------
 #p 6-31g* mp2
 -------------

 ------------------------------------------------------
 Input file generated by CHIRIPA (05-May-2021 14:55:20)
 ------------------------------------------------------
 Symbolic Z-matrix:
 Charge =  0 Multiplicity = 1

                         Standard orientation:
 ---------------------------------------------------------------------
 Center     Atomic      Atomic             Coordinates (Angstroms)
 Number     Number       Type             X           Y           Z
 ---------------------------------------------------------------------
      1          6           0       -3.362209   -0.849481   -2.086448
      2          6           0       -1.981201   -0.800873   -1.869716
      3          6           0       -1.471015   -0.437999   -0.619684
      4          6           0       -2.374606   -0.128638    0.395751
      5          6           0       -3.755759   -0.167844    0.210903
      6          6           0       -4.243527   -0.533369   -1.047279
      7          1           0       -3.749827   -1.132399   -3.060669
      8          1           0       -1.294398   -1.045852   -2.674907
      9          1           0       -0.406490   -0.392231   -0.424466
     10          1           0       -4.415535    0.081810    1.032966
     11          1           0       -5.316520   -0.570265   -1.212721
     12          7           0       -1.846362    0.256923    1.723419
     13          8           0       -2.663418    0.524873    2.601632
     14          8           0       -0.625269    0.283876    1.860691
     15          6           0        3.739626   -0.213427   -0.065835
     16          6           0        3.334001   -1.675696    0.121844
     17          6           0        4.522607   -2.582378    0.442682
     18          1           0        4.482207   -0.146186   -0.872679
     19          1           0        4.237085    0.141919    0.847214
     20          1           0        2.836220   -2.027768   -0.790776
     21          1           0        2.592158   -1.739439    0.928206
     22          1           0        5.016375   -2.258497    1.364581
     23          1           0        5.261824   -2.548464   -0.364168
     24          1           0        4.209994   -3.623140    0.572867
     25          6           0        2.562242    0.705415   -0.387120
     26          6           0        2.967867    2.167684   -0.574799
     27          6           0        1.779261    3.074366   -0.895638
     28          1           0        2.064783    0.350070   -1.300169
     29          1           0        1.819662    0.638174    0.419724
     30          1           0        3.709711    2.231428   -1.381161
     31          1           0        3.465648    2.519756    0.337821
     32          1           0        1.040043    3.040453   -0.088787
     33          1           0        1.285493    2.750486   -1.817537
     34          1           0        2.091874    4.115128   -1.025822
 ---------------------------------------------------------------------

 SCF Done:  E(RHF) =  -669.536320820     A.U. after   15 cycles
 E2 =    -0.2092478672D+01 EUMP2 =    -0.67162879949180D+03

 The electronic state is 1-A.
 Alpha  occ. eigenvalues --  -20.60903 -20.60885 -15.85933 -11.31181 -11.27765
 Alpha  occ. eigenvalues --  -11.27691 -11.27500 -11.26761 -11.26737 -11.21452
 Alpha  occ. eigenvalues --  -11.21372 -11.21193 -11.21126 -11.20924 -11.20835
 Alpha  occ. eigenvalues --   -1.59959  -1.39518  -1.19357  -1.08779  -1.08237
 Alpha  occ. eigenvalues --   -1.04744  -1.03334  -0.95791  -0.95624  -0.86806
 Alpha  occ. eigenvalues --   -0.86151  -0.82467  -0.79410  -0.78167  -0.77450
 Alpha  occ. eigenvalues --   -0.72162  -0.71270  -0.70471  -0.65044  -0.64824
 Alpha  occ. eigenvalues --   -0.64744  -0.62099  -0.60716  -0.59157  -0.57408
 Alpha  occ. eigenvalues --   -0.55265  -0.55058  -0.53084  -0.52869  -0.52479
 Alpha  occ. eigenvalues --   -0.52200  -0.49726  -0.48933  -0.48901  -0.47724
 Alpha  occ. eigenvalues --   -0.46425  -0.45631  -0.45449  -0.44899  -0.43590
 Alpha  occ. eigenvalues --   -0.37345  -0.36342
 Alpha virt. eigenvalues --    0.04988   0.11295   0.16488   0.20766   0.23215
 Alpha virt. eigenvalues --    0.24503   0.25441   0.26494   0.27900   0.28115
 Alpha virt. eigenvalues --    0.29823   0.31092   0.31631   0.31862   0.32098

 Mulliken charges:
               1
     1  C   -0.170089
     2  C   -0.222093
     3  C   -0.174241
     4  C    0.155414
     5  C   -0.170081
     6  C   -0.219234
     7  H    0.225577
     8  H    0.223626
     9  H    0.287647
    10  H    0.275327
    11  H    0.223355
    12  N    0.491979
    13  O   -0.459208
    14  O   -0.467186
    15  C   -0.295946
    16  C   -0.303072
    17  C   -0.475325
    18  H    0.147055
    19  H    0.153376
    20  H    0.143564
    21  H    0.161102
    22  H    0.157538
    23  H    0.153608
    24  H    0.159541
    25  C   -0.318593
    26  C   -0.297236
    27  C   -0.478486
    28  H    0.134781
    29  H    0.180354
    30  H    0.149054
    31  H    0.155677
    32  H    0.163749
    33  H    0.148465
    34  H    0.160002
 Sum of Mulliken charges =  -0.00000

 Dipole moment (field-independent basis, Debye):
    X=             -1.8963    Y=             -1.3083    Z=             -4.4484  Tot=              5.0096
 Quadrupole moment (field-independent basis, Debye-Ang):
   XX=            -82.1414   YY=            -95.8539   ZZ=            -97.6607
   XY=              3.6185   XZ=              8.9837   YZ=              0.8403

 Normal termination of Gaussian 16 at Thu May  6 17:26:42 2021.
