 Gaussian 16, Revision A.03,
 Gaussian 16:  EM64L-G16RevA.03 25-Dec-2016

 -------------
 #p 6-31g* mp2
 -------------

 ------------------------------------------------------
 Input file generated by CHIRIPA (05-May-2021 14:57:24)
 ------------------------------------------------------
 Symbolic Z-matrix:
 Charge =  0 Multiplicity = 1

                         Standard orientation:
 ---------------------------------------------------------------------
 Center     Atomic      Atomic             Coordinates (Angstroms)
 Number     Number       Type             X           Y           Z
 ---------------------------------------------------------------------
      1          6           0        4.353980   -2.019261    0.186312
      2          6           0        3.398306   -1.670140    1.146168
      3          6           0        2.820538   -0.397066    1.142539
      4          6           0        3.223564    0.506163    0.160175
      5          6           0        4.173209    0.188206   -0.809550
      6          6           0        4.737705   -1.090611   -0.786768
      7          1           0        4.797649   -3.010447    0.196570
      8          1           0        3.098385   -2.389307    1.903064
      9          1           0        2.078467   -0.100421    1.873806
     10          1           0        4.452001    0.926557   -1.551529
     11          1           0        5.479661   -1.358979   -1.533444
     12          7           0        2.618932    1.856950    0.146196
     13          8           0        2.991039    2.634586   -0.729850
     14          8           0        1.784364    2.112483    1.011548
     15          6           0       -1.095124   -1.370189   -0.632293
     16          6           0       -1.207210    0.024066   -0.629429
     17          6           0       -2.436747    0.636993   -0.370376
     18          6           0       -3.538618   -0.178483   -0.117060
     19          6           0       -3.458922   -1.570216   -0.112887
     20          6           0       -2.219356   -2.161486   -0.374467
     21          1           0       -0.136095   -1.837913   -0.834513
     22          1           0       -0.335804    0.641103   -0.829331
     23          1           0       -2.551738    1.714084   -0.361961
     24          1           0       -4.345349   -2.158910    0.089856
     25          1           0       -2.135266   -3.244524   -0.376041
     26          7           0       -4.845582    0.458931    0.158526
     27          8           0       -5.801333   -0.281792    0.378768
     28          8           0       -4.889483    1.687190    0.149070
 ---------------------------------------------------------------------

 SCF Done:  E(RHF) =  -868.338464636     A.U. after   16 cycles
 E2 =    -0.2599879892D+01 EUMP2 =    -0.87093834452774D+03

 The electronic state is 1-A.
 Alpha  occ. eigenvalues --  -20.61788 -20.61783 -20.60462 -20.60444 -15.86821
 Alpha  occ. eigenvalues --  -15.85507 -11.32160 -11.30873 -11.28712 -11.28693
 Alpha  occ. eigenvalues --  -11.28422 -11.27703 -11.27673 -11.27484 -11.27356
 Alpha  occ. eigenvalues --  -11.27225 -11.26544 -11.26381  -1.60873  -1.59531
 Alpha  occ. eigenvalues --   -1.40417  -1.39084  -1.20328  -1.19050  -1.09723
 Alpha  occ. eigenvalues --   -1.08463  -1.05702  -1.04435  -0.96556  -0.95291
 Alpha  occ. eigenvalues --   -0.87095  -0.85850  -0.83370  -0.82106  -0.78431
 Alpha  occ. eigenvalues --   -0.77144  -0.73018  -0.72228  -0.71726  -0.71390
 Alpha  occ. eigenvalues --   -0.70854  -0.70181  -0.65957  -0.65673  -0.64702
 Alpha  occ. eigenvalues --   -0.64438  -0.63025  -0.61768  -0.56180  -0.55001
 Alpha  occ. eigenvalues --   -0.54055  -0.53765  -0.52791  -0.52525  -0.49794
 Alpha  occ. eigenvalues --   -0.49783  -0.48491  -0.48477  -0.45804  -0.44488
 Alpha  occ. eigenvalues --   -0.38316  -0.37357  -0.37034  -0.36028
 Alpha virt. eigenvalues --    0.04059   0.05370   0.10297   0.11618   0.15544
 Alpha virt. eigenvalues --    0.16861   0.20589   0.21555   0.26531   0.27137
 Alpha virt. eigenvalues --    0.27610   0.28490   0.30121   0.31090   0.31746

 Mulliken charges:
               1
     1  C   -0.171342
     2  C   -0.221671
     3  C   -0.174986
     4  C    0.152489
     5  C   -0.171257
     6  C   -0.218944
     7  H    0.228526
     8  H    0.226372
     9  H    0.279484
    10  H    0.278068
    11  H    0.226720
    12  N    0.485031
    13  O   -0.456382
    14  O   -0.458811
    15  C   -0.175149
    16  C   -0.217926
    17  C   -0.170418
    18  C    0.158070
    19  C   -0.171978
    20  C   -0.219119
    21  H    0.222213
    22  H    0.228926
    23  H    0.281095
    24  H    0.274065
    25  H    0.219658
    26  N    0.487967
    27  O   -0.462432
    28  O   -0.458271
 Sum of Mulliken charges =  -0.00000

 Dipole moment (field-independent basis, Debye):
    X=              6.9887    Y=             -6.8489    Z=             -0.8969  Tot=              9.8262
 Quadrupole moment (field-independent basis, Debye-Ang):
   XX=           -121.7192   YY=           -105.1182   ZZ=           -102.3727
   XY=             -4.8963   XZ=              0.5493   YZ=             -2.0704

 Normal termination of Gaussian 16 at Fri May  7 01:54:03 2021.
