 Gaussian 16, Revision A.03,
 Gaussian 16:  EM64L-G16RevA.03 25-Dec-2016

 -------------
 #p 6-31g* mp2
 -------------

 ------------------------------------------------------
 Input file generated by CHIRIPA (05-May-2021 14:55:24)
 ------------------------------------------------------
 Symbolic Z-matrix:
 Charge =  0 Multiplicity = 1

                         Standard orientation:
 ---------------------------------------------------------------------
 Center     Atomic      Atomic             Coordinates (Angstroms)
 Number     Number       Type             X           Y           Z
 ---------------------------------------------------------------------
      1          6           0        5.116979   -1.202002   -0.733768
      2          6           0        5.388338    0.015213   -0.100307
      3          6           0        4.347334    0.877510    0.256489
      4          6           0        3.040944    0.489223   -0.036543
      5          6           0        2.738433   -0.716866   -0.666722
      6          6           0        3.795223   -1.563519   -1.014459
      7          1           0        5.931787   -1.865779   -1.007417
      8          1           0        6.413859    0.298570    0.118919
      9          1           0        4.529044    1.825706    0.747736
     10          1           0        1.705902   -0.971947   -0.872225
     11          1           0        3.581509   -2.508209   -1.506326
     12          7           0        1.930524    1.393818    0.336386
     13          8           0        0.788238    1.028618    0.067222
     14          8           0        2.223489    2.450911    0.890790
     15          6           0       -3.798759   -0.907894    0.628076
     16          6           0       -2.301869   -1.105806    0.386957
     17          6           0       -1.660074   -2.053700    1.400560
     18          1           0       -3.951739   -0.518830    1.644034
     19          1           0       -4.301700   -1.884036    0.588164
     20          1           0       -1.802104   -0.129420    0.425938
     21          1           0       -2.152424   -1.494263   -0.628612
     22          1           0       -2.132077   -3.040600    1.357617
     23          1           0       -1.779768   -1.668001    2.418159
     24          1           0       -0.589917   -2.180861    1.209632
     25          6           0       -4.454564    0.037148   -0.377181
     26          6           0       -5.951454    0.235060   -0.136063
     27          6           0       -6.593250    1.182955   -1.149665
     28          1           0       -3.951623    1.013290   -0.337270
     29          1           0       -4.301585   -0.351916   -1.393139
     30          1           0       -6.100901    0.623518    0.879507
     31          1           0       -6.451220   -0.741325   -0.175043
     32          1           0       -6.473556    0.797254   -2.167265
     33          1           0       -6.121246    2.169853   -1.106723
     34          1           0       -7.663407    1.310115   -0.958737
 ---------------------------------------------------------------------

 SCF Done:  E(RHF) =  -669.536115709     A.U. after   15 cycles
 E2 =    -0.2091100745D+01 EUMP2 =    -0.67162721645459D+03

 The electronic state is 1-A.
 Alpha  occ. eigenvalues --  -20.60910 -20.60904 -15.85951 -11.31270 -11.27834
 Alpha  occ. eigenvalues --  -11.27828 -11.27572 -11.26843 -11.26833 -11.21016
 Alpha  occ. eigenvalues --  -11.20672 -11.20618 -11.20566 -11.20553 -11.20435
 Alpha  occ. eigenvalues --   -1.59975  -1.39530  -1.19439  -1.08844  -1.07691
 Alpha  occ. eigenvalues --   -1.04835  -1.02826  -0.95687  -0.95319  -0.86341
 Alpha  occ. eigenvalues --   -0.86235  -0.82523  -0.78883  -0.77610  -0.77441
 Alpha  occ. eigenvalues --   -0.72178  -0.71289  -0.70547  -0.65097  -0.64839
 Alpha  occ. eigenvalues --   -0.64314  -0.62183  -0.60212  -0.58687  -0.56918
 Alpha  occ. eigenvalues --   -0.55340  -0.54612  -0.53167  -0.52928  -0.52039
 Alpha  occ. eigenvalues --   -0.51743  -0.49266  -0.48931  -0.48927  -0.47203
 Alpha  occ. eigenvalues --   -0.45892  -0.45060  -0.45023  -0.44796  -0.43090
 Alpha  occ. eigenvalues --   -0.37418  -0.36437
 Alpha virt. eigenvalues --    0.04942   0.11200   0.16441   0.21015   0.23507
 Alpha virt. eigenvalues --    0.24366   0.26825   0.27401   0.27643   0.28462
 Alpha virt. eigenvalues --    0.29085   0.30652   0.31573   0.32060   0.32526

 Mulliken charges:
               1
     1  C   -0.170582
     2  C   -0.218565
     3  C   -0.170655
     4  C    0.157780
     5  C   -0.172213
     6  C   -0.218567
     7  H    0.225937
     8  H    0.223731
     9  H    0.275746
    10  H    0.277528
    11  H    0.223952
    12  N    0.494048
    13  O   -0.465955
    14  O   -0.459433
    15  C   -0.297825
    16  C   -0.308661
    17  C   -0.473047
    18  H    0.149427
    19  H    0.144571
    20  H    0.181503
    21  H    0.143264
    22  H    0.149453
    23  H    0.156268
    24  H    0.153232
    25  C   -0.298651
    26  C   -0.299142
    27  C   -0.475426
    28  H    0.155448
    29  H    0.147044
    30  H    0.151768
    31  H    0.149531
    32  H    0.153750
    33  H    0.156511
    34  H    0.158227
 Sum of Mulliken charges =  -0.00000

 Dipole moment (field-independent basis, Debye):
    X=              4.1164    Y=             -3.0006    Z=             -1.3028  Tot=              5.2579
 Quadrupole moment (field-independent basis, Debye-Ang):
   XX=            -70.1414   YY=            -96.3911   ZZ=            -94.8610
   XY=             -5.3658   XZ=             -3.1669   YZ=              2.0629

 Normal termination of Gaussian 16 at Wed May  5 16:06:17 2021.
