 Gaussian 16, Revision A.03,
 Gaussian 16:  EM64L-G16RevA.03 25-Dec-2016

 -------------
 #p 6-31g* mp2
 -------------

 ------------------------------------------------------
 Input file generated by CHIRIPA (05-May-2021 14:53:17)
 ------------------------------------------------------
 Symbolic Z-matrix:
 Charge =  0 Multiplicity = 1

                         Standard orientation:
 ---------------------------------------------------------------------
 Center     Atomic      Atomic             Coordinates (Angstroms)
 Number     Number       Type             X           Y           Z
 ---------------------------------------------------------------------
      1          6           0        3.953195    0.275656   -0.197909
      2          6           0        4.089849   -0.975716    0.670065
      3          6           0        5.363159   -1.767169    0.369933
      4          1           0        3.963527   -0.017317   -1.256685
      5          1           0        4.830730    0.918541   -0.042909
      6          1           0        3.211653   -1.615397    0.514516
      7          1           0        4.078997   -0.679749    1.726901
      8          1           0        6.250432   -1.149708    0.543394
      9          1           0        5.378159   -2.090673   -0.675878
     10          1           0        5.440686   -2.657568    1.001628
     11          6           0        2.685227    1.077431    0.090436
     12          6           0        2.548572    2.328803   -0.777538
     13          6           0        1.275263    3.120256   -0.477406
     14          1           0        1.807691    0.434546   -0.064564
     15          1           0        2.674894    1.370403    1.149211
     16          1           0        2.559424    2.032835   -1.834374
     17          1           0        3.426768    2.968484   -0.621990
     18          1           0        1.260262    3.443759    0.568405
     19          1           0        0.387990    2.502794   -0.650868
     20          1           0        1.197735    4.010655   -1.109102
     21          6           0       -4.662168    0.837500    0.509879
     22          6           0       -4.575773    0.076321   -0.660447
     23          6           0       -3.434184   -0.684374   -0.930013
     24          6           0       -2.393106   -0.660614   -0.003252
     25          6           0       -2.449249    0.087568    1.171636
     26          6           0       -3.600502    0.840688    1.420580
     27          1           0       -5.552736    1.425484    0.711275
     28          1           0       -5.398734    0.071942   -1.369504
     29          1           0       -3.340885   -1.282652   -1.828219
     30          1           0       -1.612617    0.071873    1.859545
     31          1           0       -3.664829    1.430886    2.330291
     32          7           0       -1.179442   -1.461918   -0.277715
     33          8           0       -0.275982   -1.424050    0.554729
     34          8           0       -1.154613   -2.112675   -1.320085
 ---------------------------------------------------------------------

 SCF Done:  E(RHF) =  -669.536588150     A.U. after   15 cycles
 E2 =    -0.2091548742D+01 EUMP2 =    -0.67162813689225D+03

 The electronic state is 1-A.
 Alpha  occ. eigenvalues --  -20.61046 -20.61029 -15.86050 -11.31328 -11.27883
 Alpha  occ. eigenvalues --  -11.27876 -11.27611 -11.26878 -11.26866 -11.20944
 Alpha  occ. eigenvalues --  -11.20708 -11.20435 -11.20378 -11.20300 -11.20129
 Alpha  occ. eigenvalues --   -1.60092  -1.39648  -1.19489  -1.08903  -1.07492
 Alpha  occ. eigenvalues --   -1.04875  -1.02702  -0.95752  -0.95176  -0.86279
 Alpha  occ. eigenvalues --   -0.86205  -0.82586  -0.78756  -0.77654  -0.77251
 Alpha  occ. eigenvalues --   -0.72271  -0.71399  -0.70595  -0.65145  -0.64877
 Alpha  occ. eigenvalues --   -0.64112  -0.62222  -0.60101  -0.58562  -0.56772
 Alpha  occ. eigenvalues --   -0.55383  -0.54476  -0.53209  -0.52966  -0.51915
 Alpha  occ. eigenvalues --   -0.51612  -0.49145  -0.49048  -0.49029  -0.47089
 Alpha  occ. eigenvalues --   -0.45811  -0.45275  -0.44830  -0.44365  -0.42914
 Alpha  occ. eigenvalues --   -0.37464  -0.36471
 Alpha virt. eigenvalues --    0.04844   0.11166   0.16318   0.21297   0.23731
 Alpha virt. eigenvalues --    0.25007   0.27229   0.27508   0.27940   0.28523
 Alpha virt. eigenvalues --    0.28952   0.30954   0.32031   0.32416   0.32429

 Mulliken charges:
               1
     1  C   -0.296942
     2  C   -0.303888
     3  C   -0.475278
     4  H    0.149413
     5  H    0.143836
     6  H    0.170603
     7  H    0.147267
     8  H    0.150593
     9  H    0.154777
    10  H    0.158621
    11  C   -0.307143
    12  C   -0.298888
    13  C   -0.474156
    14  H    0.169893
    15  H    0.143630
    16  H    0.151853
    17  H    0.148950
    18  H    0.151530
    19  H    0.151883
    20  H    0.157399
    21  C   -0.170348
    22  C   -0.218543
    23  C   -0.170754
    24  C    0.157606
    25  C   -0.170503
    26  C   -0.218338
    27  H    0.226226
    28  H    0.223945
    29  H    0.275790
    30  H    0.276712
    31  H    0.224239
    32  N    0.487792
    33  O   -0.459142
    34  O   -0.458634
 Sum of Mulliken charges =  -0.00000

 Dipole moment (field-independent basis, Debye):
    X=             -4.5593    Y=              2.6180    Z=              0.9622  Tot=              5.3448
 Quadrupole moment (field-independent basis, Debye-Ang):
   XX=            -75.4255   YY=            -99.3661   ZZ=            -90.8412
   XY=             -2.8769   XZ=             -0.0272   YZ=              1.3861

 Normal termination of Gaussian 16 at Thu May  6 15:37:45 2021.
