 Gaussian 16, Revision A.03,
 Gaussian 16:  EM64L-G16RevA.03 25-Dec-2016

 -------------
 #p 6-31g* mp2
 -------------

 ------------------------------------------------------
 Input file generated by CHIRIPA (05-May-2021 14:55:19)
 ------------------------------------------------------
 Symbolic Z-matrix:
 Charge =  0 Multiplicity = 1

                         Standard orientation:
 ---------------------------------------------------------------------
 Center     Atomic      Atomic             Coordinates (Angstroms)
 Number     Number       Type             X           Y           Z
 ---------------------------------------------------------------------
      1          6           0        0.718629   -1.047952    2.340031
      2          6           0        1.489549    0.117388    2.275346
      3          6           0        2.158219    0.461848    1.096882
      4          6           0        2.033501   -0.385749   -0.002807
      5          6           0        1.272968   -1.553558    0.030398
      6          6           0        0.612985   -1.878242    1.219326
      7          1           0        0.202564   -1.307855    3.259554
      8          1           0        1.573394    0.764085    3.144137
      9          1           0        2.761706    1.358058    1.019238
     10          1           0        1.208355   -2.178377   -0.852123
     11          1           0        0.014976   -2.783885    1.266672
     12          7           0        2.736793   -0.031553   -1.255932
     13          8           0        2.610903   -0.795037   -2.210857
     14          8           0        3.400607    1.002843   -1.259480
     15          6           0       -1.941507    1.052616    0.032264
     16          6           0       -2.222604    2.515609   -0.312153
     17          6           0       -1.187661    3.471984    0.281169
     18          1           0       -1.917769    0.937736    1.124594
     19          1           0       -0.940523    0.783179   -0.332191
     20          1           0       -3.223314    2.781811    0.051622
     21          1           0       -2.245866    2.626983   -1.403790
     22          1           0       -0.185781    3.234529   -0.090926
     23          1           0       -1.168783    3.390236    1.372756
     24          1           0       -1.407809    4.512443    0.022634
     25          6           0       -2.967522    0.084344   -0.553797
     26          6           0       -2.686425   -1.378649   -0.209379
     27          6           0       -3.721369   -2.335025   -0.802702
     28          1           0       -3.968507    0.353781   -0.189341
     29          1           0       -2.991261    0.199223   -1.646126
     30          1           0       -2.663163   -1.490023    0.882257
     31          1           0       -1.685716   -1.644852   -0.573155
     32          1           0       -3.740247   -2.253277   -1.894289
     33          1           0       -4.723247   -2.097569   -0.430608
     34          1           0       -3.501221   -3.375483   -0.544167
 ---------------------------------------------------------------------

 SCF Done:  E(RHF) =  -669.534285580     A.U. after   15 cycles
 E2 =    -0.2095549145D+01 EUMP2 =    -0.67162983472500D+03

 The electronic state is 1-A.
 Alpha  occ. eigenvalues --  -20.60842 -20.60837 -15.85895 -11.31262 -11.27795
 Alpha  occ. eigenvalues --  -11.27785 -11.27516 -11.26832 -11.26799 -11.21984
 Alpha  occ. eigenvalues --  -11.21669 -11.21600 -11.21457 -11.21438 -11.21172
 Alpha  occ. eigenvalues --   -1.59920  -1.39472  -1.19425  -1.08824  -1.08621
 Alpha  occ. eigenvalues --   -1.04826  -1.03761  -0.96200  -0.95653  -0.87221
 Alpha  occ. eigenvalues --   -0.86214  -0.82490  -0.79858  -0.78452  -0.77521
 Alpha  occ. eigenvalues --   -0.72110  -0.71248  -0.70518  -0.65290  -0.65056
 Alpha  occ. eigenvalues --   -0.64815  -0.62178  -0.61158  -0.59587  -0.57824
 Alpha  occ. eigenvalues --   -0.55483  -0.55310  -0.53360  -0.52914  -0.52811
 Alpha  occ. eigenvalues --   -0.52604  -0.50144  -0.48871  -0.48867  -0.48188
 Alpha  occ. eigenvalues --   -0.46897  -0.45955  -0.45795  -0.44874  -0.43994
 Alpha  occ. eigenvalues --   -0.37353  -0.36302
 Alpha virt. eigenvalues --    0.04951   0.11149   0.16383   0.20756   0.22837
 Alpha virt. eigenvalues --    0.23766   0.25972   0.26644   0.27417   0.28027
 Alpha virt. eigenvalues --    0.28328   0.30446   0.30756   0.31755   0.32365

 Mulliken charges:
               1
     1  C   -0.172001
     2  C   -0.215791
     3  C   -0.172190
     4  C    0.159350
     5  C   -0.175369
     6  C   -0.209239
     7  H    0.225471
     8  H    0.223868
     9  H    0.275889
    10  H    0.275367
    11  H    0.225504
    12  N    0.487449
    13  O   -0.460396
    14  O   -0.460221
    15  C   -0.300032
    16  C   -0.300116
    17  C   -0.475731
    18  H    0.144860
    19  H    0.155076
    20  H    0.150528
    21  H    0.154880
    22  H    0.157790
    23  H    0.149795
    24  H    0.161647
    25  C   -0.298636
    26  C   -0.300005
    27  C   -0.475597
    28  H    0.148858
    29  H    0.152695
    30  H    0.143984
    31  H    0.151617
    32  H    0.158706
    33  H    0.156215
    34  H    0.155775
 Sum of Mulliken charges =  -0.00000

 Dipole moment (field-independent basis, Debye):
    X=             -2.4028    Y=             -1.2330    Z=              4.3948  Tot=              5.1583
 Quadrupole moment (field-independent basis, Debye-Ang):
   XX=           -105.2582   YY=            -91.4562   ZZ=            -93.6707
   XY=             -0.5530   XZ=              9.4703   YZ=             -0.0266

 Normal termination of Gaussian 16 at Thu May  6 12:24:44 2021.
