 Gaussian 16, Revision A.03,
 Gaussian 16:  EM64L-G16RevA.03 25-Dec-2016

 -------------
 #p 6-31g* mp2
 -------------

 ------------------------------------------------------
 Input file generated by CHIRIPA (05-May-2021 14:51:08)
 ------------------------------------------------------
 Symbolic Z-matrix:
 Charge =  0 Multiplicity = 1

                         Standard orientation:
 ---------------------------------------------------------------------
 Center     Atomic      Atomic             Coordinates (Angstroms)
 Number     Number       Type             X           Y           Z
 ---------------------------------------------------------------------
      1          6           0       -2.715042   -1.155745   -0.207456
      2          6           0       -1.285252   -0.696277   -0.494811
      3          6           0       -0.323467   -1.863208   -0.720722
      4          1           0       -2.713167   -1.807681    0.676807
      5          1           0       -3.071488   -1.768652   -1.046912
      6          1           0       -0.932104   -0.083271    0.344312
      7          1           0       -1.290557   -0.045204   -1.378378
      8          1           0       -0.649019   -2.471756   -1.570596
      9          1           0       -0.288529   -2.510039    0.161882
     10          1           0        0.692929   -1.512078   -0.924452
     11          6           0       -3.688306   -0.000547    0.020585
     12          6           0       -5.118097   -0.460015    0.307939
     13          6           0       -6.079881    0.706917    0.533851
     14          1           0       -3.331861    0.612361    0.860041
     15          1           0       -3.690181    0.651389   -0.863678
     16          1           0       -5.112791   -1.111088    1.191507
     17          1           0       -5.471244   -1.073021   -0.531183
     18          1           0       -6.114819    1.353748   -0.348753
     19          1           0       -5.754330    1.315465    1.383725
     20          1           0       -7.096278    0.355786    0.737581
     21          6           0        3.623354    0.105211    0.519993
     22          6           0        4.030675   -1.172864   -0.213898
     23          6           0        4.873865   -2.108887    0.652523
     24          1           0        4.527255    0.630582    0.857475
     25          1           0        3.061526   -0.163338    1.425325
     26          1           0        4.590375   -0.901944   -1.118306
     27          1           0        3.125704   -1.695156   -0.549839
     28          1           0        4.320024   -2.407890    1.548323
     29          1           0        5.793017   -1.610171    0.976626
     30          1           0        5.153967   -3.016167    0.108237
     31          6           0        2.779995    1.051080   -0.333123
     32          6           0        2.372674    2.329156    0.400770
     33          6           0        1.529483    3.265179   -0.465651
     34          1           0        3.341822    1.319630   -1.238455
     35          1           0        1.876094    0.525711   -0.670604
     36          1           0        3.277644    2.851447    0.736711
     37          1           0        1.812974    2.058235    1.305178
     38          1           0        0.610332    2.766463   -0.789755
     39          1           0        2.083324    3.564182   -1.361452
     40          1           0        1.249382    4.172460    0.078633
 ---------------------------------------------------------------------

 SCF Done:  E(RHF) =  -470.732903662     A.U. after   11 cycles
 E2 =    -0.1583813968D+01 EUMP2 =    -0.47231671762991D+03

 The electronic state is 1-A.
 Alpha  occ. eigenvalues --  -11.21704 -11.21635 -11.21579 -11.21573 -11.21465
 Alpha  occ. eigenvalues --  -11.21400 -11.21375 -11.21311 -11.21135 -11.21094
 Alpha  occ. eigenvalues --  -11.21048 -11.21033  -1.08499  -1.08404  -1.03595
 Alpha  occ. eigenvalues --   -1.03503  -0.96051  -0.95944  -0.87060  -0.86969
 Alpha  occ. eigenvalues --   -0.79676  -0.79554  -0.78312  -0.78225  -0.65157
 Alpha  occ. eigenvalues --   -0.65055  -0.60985  -0.60905  -0.59432  -0.59312
 Alpha  occ. eigenvalues --   -0.57714  -0.57521  -0.55323  -0.55232  -0.52807
 Alpha  occ. eigenvalues --   -0.52616  -0.52485  -0.52352  -0.49984  -0.49885
 Alpha  occ. eigenvalues --   -0.48025  -0.47856  -0.46687  -0.46610  -0.45854
 Alpha  occ. eigenvalues --   -0.45771  -0.45732  -0.45640  -0.43807  -0.43734
 Alpha virt. eigenvalues --    0.20337   0.23103   0.23557   0.24438   0.26079
 Alpha virt. eigenvalues --    0.26409   0.26808   0.27454   0.28235   0.29196
 Alpha virt. eigenvalues --    0.30134   0.31198   0.31727   0.31959   0.32658

 Mulliken charges:
               1
     1  C   -0.298684
     2  C   -0.300599
     3  C   -0.486520
     4  H    0.149897
     5  H    0.149975
     6  H    0.152314
     7  H    0.152398
     8  H    0.156103
     9  H    0.155366
    10  H    0.169455
    11  C   -0.298381
    12  C   -0.299704
    13  C   -0.475753
    14  H    0.149626
    15  H    0.149844
    16  H    0.151987
    17  H    0.152034
    18  H    0.155318
    19  H    0.155268
    20  H    0.160371
    21  C   -0.297697
    22  C   -0.305732
    23  C   -0.475273
    24  H    0.149732
    25  H    0.149312
    26  H    0.151795
    27  H    0.157291
    28  H    0.155188
    29  H    0.155063
    30  H    0.160280
    31  C   -0.307062
    32  C   -0.298698
    33  C   -0.477027
    34  H    0.149283
    35  H    0.158306
    36  H    0.151824
    37  H    0.151370
    38  H    0.156790
    39  H    0.154924
    40  H    0.160017
 Sum of Mulliken charges =  -0.00000

 Dipole moment (field-independent basis, Debye):
    X=             -0.0341    Y=             -0.0171    Z=             -0.0112  Tot=              0.0397
 Quadrupole moment (field-independent basis, Debye-Ang):
   XX=            -85.0783   YY=            -85.7595   ZZ=            -83.9338
   XY=              1.4423   XZ=             -0.2343   YZ=              0.0828

 Normal termination of Gaussian 16 at Thu May  6 05:16:36 2021.
