 Gaussian 16, Revision A.03,
 Gaussian 16:  EM64L-G16RevA.03 25-Dec-2016

 -------------
 #p 6-31g* mp2
 -------------

 ------------------------------------------------------
 Input file generated by CHIRIPA (05-May-2021 14:55:21)
 ------------------------------------------------------
 Symbolic Z-matrix:
 Charge =  0 Multiplicity = 1

                         Standard orientation:
 ---------------------------------------------------------------------
 Center     Atomic      Atomic             Coordinates (Angstroms)
 Number     Number       Type             X           Y           Z
 ---------------------------------------------------------------------
      1          6           0       -1.226304    0.411770    2.560323
      2          6           0       -2.134475    1.130923    1.776380
      3          6           0       -2.530333    0.648317    0.525406
      4          6           0       -1.995816   -0.562368    0.087430
      5          6           0       -1.089196   -1.302002    0.845237
      6          6           0       -0.707478   -0.800260    2.093073
      7          1           0       -0.924284    0.794103    3.530890
      8          1           0       -2.539030    2.072489    2.136704
      9          1           0       -3.231832    1.184656   -0.102015
     10          1           0       -0.703066   -2.237572    0.459193
     11          1           0       -0.002015   -1.360902    2.699742
     12          7           0       -2.407408   -1.083410   -1.235259
     13          8           0       -1.922018   -2.152583   -1.598442
     14          8           0       -3.207612   -0.412764   -1.883754
     15          6           0        1.819320    0.977261   -0.223788
     16          6           0        1.506487    2.123664   -1.186015
     17          6           0        0.206068    2.848907   -0.838554
     18          1           0        0.985429    0.262068   -0.232176
     19          1           0        1.881284    1.373152    0.799358
     20          1           0        1.446499    1.725956   -2.207213
     21          1           0        2.341304    2.836114   -1.175479
     22          1           0        0.258760    3.272560    0.169584
     23          1           0       -0.641130    2.156096   -0.868012
     24          1           0        0.001783    3.664614   -1.539090
     25          6           0        3.116309    0.242563   -0.558102
     26          6           0        3.429143   -0.903840    0.404125
     27          6           0        4.729560   -1.629083    0.056665
     28          1           0        3.054345   -0.153327   -1.581247
     29          1           0        3.950199    0.957756   -0.549714
     30          1           0        2.594325   -1.616290    0.393590
     31          1           0        3.489130   -0.506133    1.425324
     32          1           0        5.576759   -0.936272    0.086122
     33          1           0        4.676870   -2.052737   -0.951473
     34          1           0        4.933846   -2.444790    0.757200
 ---------------------------------------------------------------------

 SCF Done:  E(RHF) =  -669.533310504     A.U. after   15 cycles
 E2 =    -0.2096409760D+01 EUMP2 =    -0.67162972026435D+03

 The electronic state is 1-A.
 Alpha  occ. eigenvalues --  -20.60863 -20.60856 -15.85914 -11.31265 -11.27827
 Alpha  occ. eigenvalues --  -11.27818 -11.27566 -11.26848 -11.26831 -11.21926
 Alpha  occ. eigenvalues --  -11.21571 -11.21475 -11.21307 -11.21286 -11.21036
 Alpha  occ. eigenvalues --   -1.59940  -1.39492  -1.19470  -1.08844  -1.08523
 Alpha  occ. eigenvalues --   -1.04869  -1.03647  -0.96081  -0.95684  -0.87109
 Alpha  occ. eigenvalues --   -0.86252  -0.82509  -0.79739  -0.78356  -0.77556
 Alpha  occ. eigenvalues --   -0.72129  -0.71275  -0.70560  -0.65186  -0.65097
 Alpha  occ. eigenvalues --   -0.64837  -0.62205  -0.61065  -0.59470  -0.57720
 Alpha  occ. eigenvalues --   -0.55397  -0.55335  -0.53384  -0.52936  -0.52767
 Alpha  occ. eigenvalues --   -0.52543  -0.50056  -0.48889  -0.48887  -0.48005
 Alpha  occ. eigenvalues --   -0.46772  -0.45837  -0.45670  -0.44889  -0.43878
 Alpha  occ. eigenvalues --   -0.37400  -0.36302
 Alpha virt. eigenvalues --    0.04933   0.11038   0.16379   0.20834   0.22904
 Alpha virt. eigenvalues --    0.23931   0.25908   0.26604   0.27535   0.28355
 Alpha virt. eigenvalues --    0.28648   0.30557   0.31020   0.31778   0.32037

 Mulliken charges:
               1
     1  C   -0.171450
     2  C   -0.211373
     3  C   -0.177621
     4  C    0.165203
     5  C   -0.180222
     6  C   -0.210374
     7  H    0.225931
     8  H    0.224427
     9  H    0.276562
    10  H    0.275686
    11  H    0.224970
    12  N    0.487859
    13  O   -0.460651
    14  O   -0.460341
    15  C   -0.302520
    16  C   -0.300288
    17  C   -0.477520
    18  H    0.158038
    19  H    0.143111
    20  H    0.155680
    21  H    0.150409
    22  H    0.148171
    23  H    0.159292
    24  H    0.160112
    25  C   -0.298273
    26  C   -0.298472
    27  C   -0.475665
    28  H    0.153341
    29  H    0.149188
    30  H    0.146250
    31  H    0.147288
    32  H    0.156035
    33  H    0.158506
    34  H    0.158710
 Sum of Mulliken charges =  -0.00000

 Dipole moment (field-independent basis, Debye):
    X=              1.3509    Y=              1.7918    Z=              4.6660  Tot=              5.1776
 Quadrupole moment (field-independent basis, Debye-Ang):
   XX=            -99.9390   YY=            -94.2465   ZZ=            -93.9887
   XY=             -6.4967   XZ=             -8.6649   YZ=             -2.6531

 Normal termination of Gaussian 16 at Thu May  6 01:25:29 2021.
