 Gaussian 16, Revision A.03,
 Gaussian 16:  EM64L-G16RevA.03 25-Dec-2016

 -------------
 #p 6-31g* mp2
 -------------

 ------------------------------------------------------
 Input file generated by CHIRIPA (05-May-2021 14:53:14)
 ------------------------------------------------------
 Symbolic Z-matrix:
 Charge =  0 Multiplicity = 1

                         Standard orientation:
 ---------------------------------------------------------------------
 Center     Atomic      Atomic             Coordinates (Angstroms)
 Number     Number       Type             X           Y           Z
 ---------------------------------------------------------------------
      1          6           0       -2.907507   -0.343072   -0.022198
      2          6           0       -4.205014   -0.838420    0.617406
      3          6           0       -4.128668   -2.302450    1.051666
      4          1           0       -2.670617   -0.972758   -0.890715
      5          1           0       -2.082338   -0.472147    0.691826
      6          1           0       -5.027729   -0.707168   -0.097107
      7          1           0       -4.438944   -0.207362    1.484388
      8          1           0       -3.327131   -2.445907    1.783485
      9          1           0       -3.919261   -2.948553    0.193004
     10          1           0       -5.066787   -2.635802    1.506274
     11          6           0       -2.968262    1.118772   -0.461571
     12          6           0       -1.670755    1.614120   -1.101174
     13          6           0       -1.747101    3.078150   -1.535434
     14          1           0       -3.793431    1.247847   -1.175595
     15          1           0       -3.205152    1.748458    0.406947
     16          1           0       -1.436825    0.983062   -1.968157
     17          1           0       -0.848040    1.482868   -0.386662
     18          1           0       -1.956508    3.724253   -0.676773
     19          1           0       -2.548638    3.221607   -2.267253
     20          1           0       -0.808982    3.411502   -1.990043
     21          6           0        2.402980    1.805647    1.570234
     22          6           0        1.247433    1.017600    1.584775
     23          6           0        1.176571   -0.152786    0.823380
     24          6           0        2.284805   -0.506865    0.055437
     25          6           0        3.450183    0.257286    0.019983
     26          6           0        3.498735    1.423649    0.789262
     27          1           0        2.449363    2.713268    2.164766
     28          1           0        0.394928    1.311812    2.190350
     29          1           0        0.294406   -0.781396    0.816138
     30          1           0        4.283916   -0.061841   -0.593584
     31          1           0        4.397451    2.033714    0.776030
     32          7           0        2.221596   -1.743770   -0.754791
     33          8           0        3.211531   -2.033897   -1.422991
     34          8           0        1.183313   -2.399709   -0.706306
 ---------------------------------------------------------------------

 SCF Done:  E(RHF) =  -669.534269785     A.U. after   15 cycles
 E2 =    -0.2093885893D+01 EUMP2 =    -0.67162815567805D+03

 The electronic state is 1-A.
 Alpha  occ. eigenvalues --  -20.60771 -20.60765 -15.85824 -11.31195 -11.27789
 Alpha  occ. eigenvalues --  -11.27757 -11.27542 -11.26801 -11.26790 -11.21762
 Alpha  occ. eigenvalues --  -11.21695 -11.21664 -11.21595 -11.21281 -11.21075
 Alpha  occ. eigenvalues --   -1.59845  -1.39398  -1.19396  -1.08782  -1.08649
 Alpha  occ. eigenvalues --   -1.04814  -1.03678  -0.96143  -0.95614  -0.87153
 Alpha  occ. eigenvalues --   -0.86196  -0.82457  -0.79749  -0.78511  -0.77462
 Alpha  occ. eigenvalues --   -0.72044  -0.71169  -0.70505  -0.65351  -0.65019
 Alpha  occ. eigenvalues --   -0.64805  -0.62146  -0.61097  -0.59511  -0.57749
 Alpha  occ. eigenvalues --   -0.55468  -0.55280  -0.53199  -0.52934  -0.52774
 Alpha  occ. eigenvalues --   -0.52524  -0.50081  -0.48805  -0.48796  -0.48054
 Alpha  occ. eigenvalues --   -0.46793  -0.45995  -0.45921  -0.44796  -0.43960
 Alpha  occ. eigenvalues --   -0.37376  -0.36293
 Alpha virt. eigenvalues --    0.05023   0.11204   0.16393   0.20036   0.23047
 Alpha virt. eigenvalues --    0.24019   0.25157   0.26836   0.27705   0.27982
 Alpha virt. eigenvalues --    0.30435   0.30544   0.31496   0.31756   0.32017

 Mulliken charges:
               1
     1  C   -0.300328
     2  C   -0.299531
     3  C   -0.475689
     4  H    0.160988
     5  H    0.137015
     6  H    0.154016
     7  H    0.149117
     8  H    0.153411
     9  H    0.161000
    10  H    0.160331
    11  C   -0.298283
    12  C   -0.308371
    13  C   -0.474842
    14  H    0.152133
    15  H    0.145018
    16  H    0.157149
    17  H    0.154392
    18  H    0.151039
    19  H    0.156732
    20  H    0.160695
    21  C   -0.170815
    22  C   -0.221669
    23  C   -0.175317
    24  C    0.159247
    25  C   -0.170346
    26  C   -0.219117
    27  H    0.225923
    28  H    0.223593
    29  H    0.286039
    30  H    0.275777
    31  H    0.223636
    32  N    0.487549
    33  O   -0.460615
    34  O   -0.459878
 Sum of Mulliken charges =  -0.00000

 Dipole moment (field-independent basis, Debye):
    X=              0.2170    Y=              4.2502    Z=              2.7481  Tot=              5.0659
 Quadrupole moment (field-independent basis, Debye-Ang):
   XX=            -89.1413   YY=           -100.7828   ZZ=            -93.8350
   XY=             11.2805   XZ=              5.5305   YZ=             -0.7339

 Normal termination of Gaussian 16 at Wed May  5 23:26:13 2021.
