 Gaussian 16, Revision A.03,
 Gaussian 16:  EM64L-G16RevA.03 25-Dec-2016

 -------------
 #p 6-31g* mp2
 -------------

 ------------------------------------------------------
 Input file generated by CHIRIPA (05-May-2021 14:57:25)
 ------------------------------------------------------
 Symbolic Z-matrix:
 Charge =  0 Multiplicity = 1

                         Standard orientation:
 ---------------------------------------------------------------------
 Center     Atomic      Atomic             Coordinates (Angstroms)
 Number     Number       Type             X           Y           Z
 ---------------------------------------------------------------------
      1          6           0       -4.559540    1.300409    0.231024
      2          6           0       -4.557545   -0.072315    0.499626
      3          6           0       -3.475377   -0.869487    0.114947
      4          6           0       -2.407013   -0.258210   -0.539444
      5          6           0       -2.379516    1.106747   -0.821271
      6          6           0       -3.472436    1.884529   -0.427406
      7          1           0       -5.404370    1.912140    0.533420
      8          1           0       -5.400440   -0.528660    1.010821
      9          1           0       -3.447816   -1.934605    0.310349
     10          1           0       -1.524907    1.533095   -1.332434
     11          1           0       -3.471259    2.950352   -0.637320
     12          7           0       -1.255679   -1.091878   -0.951549
     13          8           0       -0.326580   -0.529231   -1.526736
     14          8           0       -1.304164   -2.292167   -0.691565
     15          6           0        4.511804    0.703080   -1.064548
     16          6           0        4.176238   -0.636270   -0.840813
     17          6           0        3.117085   -0.970567    0.008296
     18          6           0        2.411628    0.064521    0.620027
     19          6           0        2.721724    1.408388    0.417169
     20          6           0        3.784757    1.719343   -0.435951
     21          1           0        5.336087    0.953704   -1.725715
     22          1           0        4.739123   -1.427600   -1.327643
     23          1           0        2.835917   -1.999118    0.199202
     24          1           0        2.142177    2.175238    0.916652
     25          1           0        4.043119    2.760373   -0.607853
     26          7           0        1.288296   -0.277029    1.521063
     27          8           0        0.682352    0.653447    2.048022
     28          8           0        1.035042   -1.468745    1.683278
 ---------------------------------------------------------------------

 SCF Done:  E(RHF) =  -868.338791685     A.U. after   16 cycles
 E2 =    -0.2601509146D+01 EUMP2 =    -0.87094030083077D+03

 The electronic state is 1-A.
 Alpha  occ. eigenvalues --  -20.60306 -20.60192 -20.60062 -20.59968 -15.85259
 Alpha  occ. eigenvalues --  -15.85033 -11.30491 -11.30202 -11.27112 -11.27040
 Alpha  occ. eigenvalues --  -11.26869 -11.26841 -11.26710 -11.26590 -11.26109
 Alpha  occ. eigenvalues --  -11.26065 -11.25883 -11.25770  -1.59308  -1.59083
 Alpha  occ. eigenvalues --   -1.38864  -1.38644  -1.18663  -1.18382  -1.08100
 Alpha  occ. eigenvalues --   -1.07838  -1.04071  -1.03797  -0.94960  -0.94706
 Alpha  occ. eigenvalues --   -0.85485  -0.85215  -0.81814  -0.81559  -0.76864
 Alpha  occ. eigenvalues --   -0.76613  -0.71537  -0.71305  -0.71096  -0.69826
 Alpha  occ. eigenvalues --   -0.69824  -0.69570  -0.64349  -0.64116  -0.64077
 Alpha  occ. eigenvalues --   -0.63856  -0.61442  -0.61171  -0.54619  -0.54369
 Alpha  occ. eigenvalues --   -0.52379  -0.52197  -0.52082  -0.51931  -0.48295
 Alpha  occ. eigenvalues --   -0.48259  -0.48047  -0.48021  -0.44434  -0.43957
 Alpha  occ. eigenvalues --   -0.36654  -0.36295  -0.35643  -0.35364
 Alpha virt. eigenvalues --    0.05644   0.05999   0.12003   0.12289   0.17118
 Alpha virt. eigenvalues --    0.17515   0.21996   0.22241   0.27874   0.28133
 Alpha virt. eigenvalues --    0.28864   0.29170   0.31414   0.31798   0.33053

 Mulliken charges:
               1
     1  C   -0.169765
     2  C   -0.218191
     3  C   -0.166017
     4  C    0.163746
     5  C   -0.166497
     6  C   -0.217627
     7  H    0.223290
     8  H    0.221918
     9  H    0.276348
    10  H    0.270594
    11  H    0.219887
    12  N    0.488840
    13  O   -0.473774
    14  O   -0.451421
    15  C   -0.170280
    16  C   -0.218528
    17  C   -0.159433
    18  C    0.170167
    19  C   -0.172247
    20  C   -0.219064
    21  H    0.221760
    22  H    0.221510
    23  H    0.278990
    24  H    0.268774
    25  H    0.217876
    26  N    0.484330
    27  O   -0.470939
    28  O   -0.454248
 Sum of Mulliken charges =  -0.00000

 Dipole moment (field-independent basis, Debye):
    X=             -0.2149    Y=              3.7570    Z=             -1.6937  Tot=              4.1267
 Quadrupole moment (field-independent basis, Debye-Ang):
   XX=            -66.8192   YY=            -98.3806   ZZ=           -111.4173
   XY=             -2.1020   XZ=             -8.2116   YZ=             -2.3867

 Normal termination of Gaussian 16 at Fri May  7 09:36:53 2021.
