 Gaussian 16, Revision A.03,
 Gaussian 16:  EM64L-G16RevA.03 25-Dec-2016

 -------------
 #p 6-31g* mp2
 -------------

 ------------------------------------------------------
 Input file generated by CHIRIPA (05-May-2021 14:53:16)
 ------------------------------------------------------
 Symbolic Z-matrix:
 Charge =  0 Multiplicity = 1

                         Standard orientation:
 ---------------------------------------------------------------------
 Center     Atomic      Atomic             Coordinates (Angstroms)
 Number     Number       Type             X           Y           Z
 ---------------------------------------------------------------------
      1          6           0        2.518909    1.332819   -0.109074
      2          6           0        1.806890    2.038453    1.045524
      3          6           0        1.021319    3.269214    0.591764
      4          1           0        3.198268    2.042372   -0.600958
      5          1           0        1.776115    1.037413   -0.862988
      6          1           0        2.550641    2.331211    1.797683
      7          1           0        1.129289    1.327084    1.534837
      8          1           0        0.258275    2.990207   -0.142075
      9          1           0        1.687703    4.000040    0.122265
     10          1           0        0.520257    3.758275    1.432964
     11          6           0        3.308526    0.100512    0.328709
     12          6           0        4.020544   -0.605122   -0.825888
     13          6           0        4.806115   -1.835884   -0.372128
     14          1           0        4.051320    0.395917    1.082624
     15          1           0        2.629166   -0.609041    0.820594
     16          1           0        4.698145    0.106247   -1.315201
     17          1           0        3.276794   -0.897881   -1.578047
     18          1           0        4.139732   -2.566709    0.097370
     19          1           0        5.569159   -1.556876    0.361710
     20          1           0        5.307177   -2.324944   -1.213328
     21          6           0       -3.810110    1.379141   -0.589398
     22          6           0       -4.314773    0.229014    0.026267
     23          6           0       -3.474152   -0.851444    0.310021
     24          6           0       -2.128062   -0.747354   -0.037109
     25          6           0       -1.595338    0.385016   -0.651302
     26          6           0       -2.454394    1.453341   -0.925625
     27          1           0       -4.470285    2.213754   -0.806162
     28          1           0       -5.367211    0.168599    0.288507
     29          1           0       -3.838447   -1.753774    0.785949
     30          1           0       -0.541690    0.415845   -0.900885
     31          1           0       -2.059700    2.345294   -1.403830
     32          7           0       -1.228377   -1.884763    0.258297
     33          8           0       -0.046292   -1.768242   -0.057514
     34          8           0       -1.722323   -2.871249    0.800053
 ---------------------------------------------------------------------

 SCF Done:  E(RHF) =  -669.535662976     A.U. after   15 cycles
 E2 =    -0.2093713589D+01 EUMP2 =    -0.67162937656418D+03

 The electronic state is 1-A.
 Alpha  occ. eigenvalues --  -20.60965 -20.60952 -15.85994 -11.31281 -11.27846
 Alpha  occ. eigenvalues --  -11.27822 -11.27571 -11.26847 -11.26829 -11.21574
 Alpha  occ. eigenvalues --  -11.21410 -11.21230 -11.20875 -11.20641 -11.20279
 Alpha  occ. eigenvalues --   -1.60022  -1.39579  -1.19451  -1.08859  -1.08057
 Alpha  occ. eigenvalues --   -1.04847  -1.03190  -0.95709  -0.95665  -0.86695
 Alpha  occ. eigenvalues --   -0.86239  -0.82546  -0.79315  -0.77800  -0.77598
 Alpha  occ. eigenvalues --   -0.72226  -0.71335  -0.70571  -0.65113  -0.64967
 Alpha  occ. eigenvalues --   -0.64597  -0.62203  -0.60527  -0.59091  -0.57258
 Alpha  occ. eigenvalues --   -0.55343  -0.54998  -0.53157  -0.52949  -0.52387
 Alpha  occ. eigenvalues --   -0.52076  -0.49600  -0.48976  -0.48965  -0.47614
 Alpha  occ. eigenvalues --   -0.46350  -0.45382  -0.45281  -0.44839  -0.43418
 Alpha  occ. eigenvalues --   -0.37424  -0.36419
 Alpha virt. eigenvalues --    0.04876   0.11170   0.16288   0.19574   0.23218
 Alpha virt. eigenvalues --    0.24396   0.25843   0.26534   0.27768   0.28367
 Alpha virt. eigenvalues --    0.29601   0.31079   0.31823   0.32126   0.32427

 Mulliken charges:
               1
     1  C   -0.299375
     2  C   -0.303233
     3  C   -0.474834
     4  H    0.148087
     5  H    0.142782
     6  H    0.154551
     7  H    0.156594
     8  H    0.141681
     9  H    0.156223
    10  H    0.161250
    11  C   -0.303316
    12  C   -0.298950
    13  C   -0.477320
    14  H    0.145303
    15  H    0.171304
    16  H    0.145915
    17  H    0.156500
    18  H    0.164410
    19  H    0.151454
    20  H    0.157531
    21  C   -0.170596
    22  C   -0.219030
    23  C   -0.169760
    24  C    0.154732
    25  C   -0.175477
    26  C   -0.222576
    27  H    0.226299
    28  H    0.223848
    29  H    0.275786
    30  H    0.288937
    31  H    0.225508
    32  N    0.488972
    33  O   -0.464564
    34  O   -0.458635
 Sum of Mulliken charges =  -0.00000

 Dipole moment (field-independent basis, Debye):
    X=             -3.2522    Y=              3.8025    Z=             -0.9311  Tot=              5.0894
 Quadrupole moment (field-independent basis, Debye-Ang):
   XX=            -78.4188   YY=           -100.6472   ZZ=            -94.6605
   XY=             -3.3427   XZ=              0.9264   YZ=             -0.2646

 Normal termination of Gaussian 16 at Thu May  6 05:55:05 2021.
