 Gaussian 16, Revision A.03,
 Gaussian 16:  EM64L-G16RevA.03 25-Dec-2016

 -------------
 #p 6-31g* mp2
 -------------

 ------------------------------------------------------
 Input file generated by CHIRIPA (05-May-2021 14:51:10)
 ------------------------------------------------------
 Symbolic Z-matrix:
 Charge =  0 Multiplicity = 1

                         Standard orientation:
 ---------------------------------------------------------------------
 Center     Atomic      Atomic             Coordinates (Angstroms)
 Number     Number       Type             X           Y           Z
 ---------------------------------------------------------------------
      1          6           0        2.777226   -0.551680    0.829792
      2          6           0        1.819098   -1.741235    0.759534
      3          6           0        1.856588   -2.605747    2.020092
      4          1           0        3.798985   -0.921104    0.992519
      5          1           0        2.524034    0.062964    1.704722
      6          1           0        2.073146   -2.352699   -0.115788
      7          1           0        0.799528   -1.368947    0.596764
      8          1           0        1.581987   -2.015506    2.900326
      9          1           0        2.862841   -3.004847    2.183725
     10          1           0        1.164159   -3.450298    1.948433
     11          6           0        2.751146    0.322032   -0.423074
     12          6           0        3.709274    1.511586   -0.352816
     13          6           0        3.671784    2.376098   -1.613374
     14          1           0        3.004338   -0.292612   -1.298004
     15          1           0        1.729387    0.691455   -0.585801
     16          1           0        4.728844    1.139298   -0.190046
     17          1           0        3.455227    2.123050    0.522506
     18          1           0        2.665531    2.775199   -1.777007
     19          1           0        3.946385    1.785857   -2.493608
     20          1           0        4.364213    3.220650   -1.541715
     21          6           0       -2.728403   -0.272835   -0.860528
     22          6           0       -2.367656   -1.747208   -0.675942
     23          6           0       -2.299943   -2.509438   -1.999654
     24          1           0       -3.695399   -0.200393   -1.376880
     25          1           0       -1.986276    0.199363   -1.519064
     26          1           0       -3.109469   -2.216155   -0.016836
     27          1           0       -1.401499   -1.816150   -0.159798
     28          1           0       -1.546633   -2.068107   -2.660224
     29          1           0       -3.264306   -2.470385   -2.516449
     30          1           0       -2.040592   -3.561337   -1.844395
     31          6           0       -2.799968    0.502484    0.453810
     32          6           0       -3.160715    1.976856    0.269224
     33          6           0       -3.228430    2.739086    1.592935
     34          1           0       -3.542097    0.030286    1.112345
     35          1           0       -1.832974    0.430040    0.970162
     36          1           0       -4.126873    2.045798   -0.246919
     37          1           0       -2.418904    2.445804   -0.389882
     38          1           0       -2.264066    2.700033    2.109731
     39          1           0       -3.981739    2.297756    2.253506
     40          1           0       -3.487780    3.790986    1.437677
 ---------------------------------------------------------------------

 SCF Done:  E(RHF) =  -470.733351558     A.U. after   11 cycles
 E2 =    -0.1583104362D+01 EUMP2 =    -0.47231645591970D+03

 The electronic state is 1-A.
 Alpha  occ. eigenvalues --  -11.21652 -11.21648 -11.21638 -11.21569 -11.21464
 Alpha  occ. eigenvalues --  -11.21436 -11.21404 -11.21370 -11.21112 -11.21108
 Alpha  occ. eigenvalues --  -11.21105 -11.21050  -1.08493  -1.08445  -1.03588
 Alpha  occ. eigenvalues --   -1.03531  -0.96026  -0.95990  -0.87042  -0.87005
 Alpha  occ. eigenvalues --   -0.79697  -0.79562  -0.78347  -0.78218  -0.65231
 Alpha  occ. eigenvalues --   -0.64984  -0.61076  -0.60854  -0.59421  -0.59329
 Alpha  occ. eigenvalues --   -0.57653  -0.57583  -0.55321  -0.55269  -0.52719
 Alpha  occ. eigenvalues --   -0.52681  -0.52451  -0.52413  -0.50002  -0.49912
 Alpha  occ. eigenvalues --   -0.48090  -0.47852  -0.46888  -0.46507  -0.46041
 Alpha  occ. eigenvalues --   -0.45794  -0.45759  -0.45374  -0.43833  -0.43796
 Alpha virt. eigenvalues --    0.20120   0.23394   0.23700   0.24558   0.25483
 Alpha virt. eigenvalues --    0.26934   0.26993   0.27604   0.28153   0.29552
 Alpha virt. eigenvalues --    0.30676   0.31512   0.31608   0.31782   0.32159

 Mulliken charges:
               1
     1  C   -0.297526
     2  C   -0.308168
     3  C   -0.475611
     4  H    0.150047
     5  H    0.149382
     6  H    0.152299
     7  H    0.158728
     8  H    0.155249
     9  H    0.155483
    10  H    0.160778
    11  C   -0.298377
    12  C   -0.299693
    13  C   -0.475723
    14  H    0.149782
    15  H    0.148694
    16  H    0.152222
    17  H    0.152002
    18  H    0.154997
    19  H    0.155296
    20  H    0.160504
    21  C   -0.297963
    22  C   -0.308243
    23  C   -0.475128
    24  H    0.149864
    25  H    0.149373
    26  H    0.151786
    27  H    0.160433
    28  H    0.155455
    29  H    0.154965
    30  H    0.160107
    31  C   -0.299306
    32  C   -0.299606
    33  C   -0.475667
    34  H    0.149931
    35  H    0.149047
    36  H    0.152311
    37  H    0.151650
    38  H    0.154844
    39  H    0.155368
    40  H    0.160415
 Sum of Mulliken charges =  -0.00000

 Dipole moment (field-independent basis, Debye):
    X=              0.0159    Y=             -0.0114    Z=              0.0034  Tot=              0.0198
 Quadrupole moment (field-independent basis, Debye-Ang):
   XX=            -83.1685   YY=            -85.3745   ZZ=            -86.0880
   XY=             -0.2310   XZ=             -0.2581   YZ=              0.2134

 Normal termination of Gaussian 16 at Wed May  5 19:48:07 2021.
