 Gaussian 16, Revision A.03,
 Gaussian 16:  EM64L-G16RevA.03 25-Dec-2016

 -------------
 #p 6-31g* mp2
 -------------

 ------------------------------------------------------
 Input file generated by CHIRIPA (05-May-2021 14:53:16)
 ------------------------------------------------------
 Symbolic Z-matrix:
 Charge =  0 Multiplicity = 1

                         Standard orientation:
 ---------------------------------------------------------------------
 Center     Atomic      Atomic             Coordinates (Angstroms)
 Number     Number       Type             X           Y           Z
 ---------------------------------------------------------------------
      1          6           0       -3.773073    0.765635    0.014312
      2          6           0       -2.789325    1.203456   -1.071293
      3          6           0       -2.197339    2.588548   -0.808869
      4          1           0       -4.582926    1.504521    0.085948
      5          1           0       -3.260684    0.768255    0.986343
      6          1           0       -3.303042    1.198679   -2.041184
      7          1           0       -1.981822    0.463343   -1.140485
      8          1           0       -1.660410    2.603578    0.145113
      9          1           0       -2.989137    3.343093   -0.760703
     10          1           0       -1.496863    2.881674   -1.597077
     11          6           0       -4.373338   -0.617028   -0.233985
     12          6           0       -5.357086   -1.054849    0.851619
     13          6           0       -5.949072   -2.439941    0.589195
     14          1           0       -4.885727   -0.619648   -1.206017
     15          1           0       -3.563486   -1.355914   -0.305622
     16          1           0       -6.164589   -0.314736    0.920811
     17          1           0       -4.843369   -1.050072    1.821510
     18          1           0       -5.157274   -3.194485    0.541029
     19          1           0       -6.486002   -2.454971   -0.364787
     20          1           0       -6.649548   -2.733067    1.377403
     21          6           0        1.514146    1.765479    0.594030
     22          6           0        1.271998    0.866338   -0.449729
     23          6           0        2.189253   -0.147949   -0.740271
     24          6           0        3.343452   -0.234342    0.036677
     25          6           0        3.613080    0.646291    1.083136
     26          6           0        2.681855    1.652785    1.355787
     27          1           0        0.796175    2.550376    0.812780
     28          1           0        0.365992    0.951464   -1.042984
     29          1           0        2.026822   -0.857449   -1.542545
     30          1           0        4.525215    0.536205    1.656990
     31          1           0        2.872535    2.349664    2.166988
     32          7           0        4.321903   -1.303997   -0.261436
     33          8           0        5.331171   -1.358809    0.437858
     34          8           0        4.061019   -2.067326   -1.188747
 ---------------------------------------------------------------------

 SCF Done:  E(RHF) =  -669.535065755     A.U. after   15 cycles
 E2 =    -0.2092122629D+01 EUMP2 =    -0.67162718838409D+03

 The electronic state is 1-A.
 Alpha  occ. eigenvalues --  -20.60724 -20.60719 -15.85776 -11.31128 -11.27698
 Alpha  occ. eigenvalues --  -11.27685 -11.27403 -11.26706 -11.26639 -11.22775
 Alpha  occ. eigenvalues --  -11.22467 -11.22246 -11.22106 -11.22007 -11.21450
 Alpha  occ. eigenvalues --   -1.59799  -1.39353  -1.19295  -1.09250  -1.08689
 Alpha  occ. eigenvalues --   -1.04706  -1.04377  -0.96838  -0.95527  -0.87853
 Alpha  occ. eigenvalues --   -0.86092  -0.82368  -0.80473  -0.78990  -0.77418
 Alpha  occ. eigenvalues --   -0.71995  -0.71123  -0.70418  -0.65965  -0.64943
 Alpha  occ. eigenvalues --   -0.64705  -0.62228  -0.61576  -0.60221  -0.58419
 Alpha  occ. eigenvalues --   -0.56128  -0.55195  -0.53545  -0.53252  -0.53019
 Alpha  occ. eigenvalues --   -0.52750  -0.50769  -0.48775  -0.48752  -0.48746
 Alpha  occ. eigenvalues --   -0.47489  -0.46540  -0.46419  -0.44762  -0.44602
 Alpha  occ. eigenvalues --   -0.37271  -0.36300
 Alpha virt. eigenvalues --    0.05112   0.11290   0.16581   0.19352   0.22633
 Alpha virt. eigenvalues --    0.23954   0.25038   0.25720   0.26583   0.27839
 Alpha virt. eigenvalues --    0.29005   0.30001   0.30885   0.31544   0.31945

 Mulliken charges:
               1
     1  C   -0.298215
     2  C   -0.304913
     3  C   -0.485261
     4  H    0.152243
     5  H    0.150158
     6  H    0.157970
     7  H    0.148324
     8  H    0.150504
     9  H    0.164425
    10  H    0.159678
    11  C   -0.299419
    12  C   -0.300339
    13  C   -0.476313
    14  H    0.151088
    15  H    0.151165
    16  H    0.152545
    17  H    0.152729
    18  H    0.156686
    19  H    0.155941
    20  H    0.161924
    21  C   -0.176252
    22  C   -0.226717
    23  C   -0.172877
    24  C    0.158747
    25  C   -0.171140
    26  C   -0.218627
    27  H    0.229064
    28  H    0.236137
    29  H    0.275459
    30  H    0.275297
    31  H    0.223235
    32  N    0.488026
    33  O   -0.460654
    34  O   -0.460619
 Sum of Mulliken charges =  -0.00000

 Dipole moment (field-independent basis, Debye):
    X=             -3.7269    Y=              3.7578    Z=              1.0451  Tot=              5.3947
 Quadrupole moment (field-independent basis, Debye-Ang):
   XX=           -115.3507   YY=            -97.2968   ZZ=            -91.9743
   XY=             13.7149   XZ=              6.3797   YZ=              0.9929

 Normal termination of Gaussian 16 at Thu May  6 04:19:06 2021.
