 Gaussian 16, Revision A.03,
 Gaussian 16:  EM64L-G16RevA.03 25-Dec-2016

 -------------
 #p 6-31g* mp2
 -------------

 ------------------------------------------------------
 Input file generated by CHIRIPA (05-May-2021 14:57:27)
 ------------------------------------------------------
 Symbolic Z-matrix:
 Charge =  0 Multiplicity = 1

                         Standard orientation:
 ---------------------------------------------------------------------
 Center     Atomic      Atomic             Coordinates (Angstroms)
 Number     Number       Type             X           Y           Z
 ---------------------------------------------------------------------
      1          6           0        6.336757    0.491150    0.079128
      2          6           0        5.927386   -0.800204   -0.269214
      3          6           0        4.568185   -1.121330   -0.332449
      4          6           0        3.641205   -0.122157   -0.039788
      5          6           0        4.017675    1.173584    0.310375
      6          6           0        5.382278    1.472193    0.367302
      7          1           0        7.394715    0.731862    0.125800
      8          1           0        6.666428   -1.564105   -0.493527
      9          1           0        4.223561   -2.112994   -0.599386
     10          1           0        3.257581    1.913896    0.528578
     11          1           0        5.697297    2.475920    0.638116
     12          7           0        2.199420   -0.450200   -0.103393
     13          8           0        1.402489    0.447957    0.159004
     14          8           0        1.893581   -1.599264   -0.414439
     15          6           0       -3.933555   -2.442534    0.273615
     16          6           0       -5.116400   -1.737054    0.029291
     17          6           0       -5.097948   -0.345865   -0.107828
     18          6           0       -3.873537    0.310810    0.005686
     19          6           0       -2.678148   -0.363912    0.248759
     20          6           0       -2.720342   -1.754924    0.382379
     21          1           0       -3.957110   -3.523174    0.378774
     22          1           0       -6.060045   -2.268434   -0.055652
     23          1           0       -5.998764    0.225146   -0.297288
     24          1           0       -1.752736    0.193480    0.328414
     25          1           0       -1.800167   -2.300204    0.572092
     26          7           0       -3.841436    1.783505   -0.137623
     27          8           0       -2.749844    2.338662   -0.033379
     28          8           0       -4.908474    2.354762   -0.351479
 ---------------------------------------------------------------------

 SCF Done:  E(RHF) =  -868.340555982     A.U. after   16 cycles
 E2 =    -0.2598526332D+01 EUMP2 =    -0.87093908231352D+03

 The electronic state is 1-A.
 Alpha  occ. eigenvalues --  -20.61441 -20.61374 -20.59706 -20.59676 -15.86405
 Alpha  occ. eigenvalues --  -15.84738 -11.31514 -11.29940 -11.28074 -11.28017
 Alpha  occ. eigenvalues --  -11.27759 -11.27028 -11.26988 -11.26613 -11.26306
 Alpha  occ. eigenvalues --  -11.26288 -11.25628 -11.25365  -1.60461  -1.58776
 Alpha  occ. eigenvalues --   -1.40016  -1.38328  -1.19664  -1.18123  -1.09113
 Alpha  occ. eigenvalues --   -1.07573  -1.05025  -1.03473  -0.95988  -0.94417
 Alpha  occ. eigenvalues --   -0.86437  -0.84896  -0.82824  -0.81232  -0.77897
 Alpha  occ. eigenvalues --   -0.76275  -0.72637  -0.71750  -0.70964  -0.70770
 Alpha  occ. eigenvalues --   -0.70099  -0.69243  -0.65320  -0.65028  -0.63771
 Alpha  occ. eigenvalues --   -0.63469  -0.62370  -0.60781  -0.55545  -0.54051
 Alpha  occ. eigenvalues --   -0.53372  -0.53113  -0.51866  -0.51545  -0.49407
 Alpha  occ. eigenvalues --   -0.49391  -0.47729  -0.47702  -0.45470  -0.43769
 Alpha  occ. eigenvalues --   -0.37635  -0.36616  -0.36161  -0.35081
 Alpha virt. eigenvalues --    0.04618   0.06206   0.11042   0.12555   0.16162
 Alpha virt. eigenvalues --    0.17708   0.21199   0.22727   0.27139   0.28048
 Alpha virt. eigenvalues --    0.28748   0.29614   0.30807   0.32129   0.32369

 Mulliken charges:
               1
     1  C   -0.169869
     2  C   -0.218751
     3  C   -0.170584
     4  C    0.157290
     5  C   -0.170264
     6  C   -0.218766
     7  H    0.227015
     8  H    0.224077
     9  H    0.274581
    10  H    0.279616
    11  H    0.225846
    12  N    0.490242
    13  O   -0.460449
    14  O   -0.465910
    15  C   -0.171762
    16  C   -0.219864
    17  C   -0.172533
    18  C    0.156088
    19  C   -0.177484
    20  C   -0.222786
    21  H    0.221538
    22  H    0.218325
    23  H    0.271217
    24  H    0.296402
    25  H    0.233523
    26  N    0.487398
    27  O   -0.457681
    28  O   -0.466454
 Sum of Mulliken charges =  -0.00000

 Dipole moment (field-independent basis, Debye):
    X=              5.5803    Y=             -3.9472    Z=              0.7642  Tot=              6.8778
 Quadrupole moment (field-independent basis, Debye-Ang):
   XX=            -63.6813   YY=           -104.8782   ZZ=           -106.1240
   XY=             22.8484   XZ=             -0.8637   YZ=              1.5405

 Normal termination of Gaussian 16 at Fri May  7 09:43:46 2021.
