 Gaussian 16, Revision A.03,
 Gaussian 16:  EM64L-G16RevA.03 25-Dec-2016

 -------------
 #p 6-31g* mp2
 -------------

 ------------------------------------------------------
 Input file generated by CHIRIPA (05-May-2021 14:57:24)
 ------------------------------------------------------
 Symbolic Z-matrix:
 Charge =  0 Multiplicity = 1

                         Standard orientation:
 ---------------------------------------------------------------------
 Center     Atomic      Atomic             Coordinates (Angstroms)
 Number     Number       Type             X           Y           Z
 ---------------------------------------------------------------------
      1          6           0       -5.456468   -0.585882   -0.168380
      2          6           0       -4.817638    0.042686   -1.242307
      3          6           0       -3.460289    0.369336   -1.168461
      4          6           0       -2.769123    0.051476   -0.000324
      5          6           0       -3.377439   -0.574582    1.086549
      6          6           0       -4.735600   -0.891971    0.990577
      7          1           0       -6.511204   -0.836034   -0.234338
      8          1           0       -5.374971    0.281592   -2.143611
      9          1           0       -2.940876    0.856129   -1.984954
     10          1           0       -2.795498   -0.800167    1.971915
     11          1           0       -5.229119   -1.380107    1.826165
     12          7           0       -1.331729    0.392383    0.089564
     13          8           0       -0.745068    0.101737    1.129752
     14          8           0       -0.818977    0.943778   -0.881871
     15          6           0        2.367212    2.391762    0.524870
     16          6           0        2.712703    2.022839   -0.779374
     17          6           0        3.068325    0.703115   -1.073332
     18          6           0        3.067780   -0.226062   -0.034140
     19          6           0        2.728473    0.110625    1.275365
     20          6           0        2.376184    1.436162    1.546277
     21          1           0        2.092251    3.419213    0.744273
     22          1           0        2.706612    2.762851   -1.574604
     23          1           0        3.340126    0.390260   -2.074163
     24          1           0        2.743786   -0.649383    2.047097
     25          1           0        2.108326    1.719817    2.560100
     26          7           0        3.442498   -1.626271   -0.333141
     27          8           0        3.434216   -2.426028    0.600110
     28          8           0        3.737388   -1.897486   -1.495087
 ---------------------------------------------------------------------

 SCF Done:  E(RHF) =  -868.337928741     A.U. after   16 cycles
 E2 =    -0.2601286969D+01 EUMP2 =    -0.87093921571008D+03

 The electronic state is 1-A.
 Alpha  occ. eigenvalues --  -20.61168 -20.61151 -20.59425 -20.59420 -15.86201
 Alpha  occ. eigenvalues --  -15.84463 -11.31460 -11.29405 -11.28020 -11.28013
 Alpha  occ. eigenvalues --  -11.27734 -11.27007 -11.26996 -11.25978 -11.25934
 Alpha  occ. eigenvalues --  -11.25675 -11.24966 -11.24900  -1.60225  -1.58506
 Alpha  occ. eigenvalues --   -1.39787  -1.38073  -1.19621  -1.17531  -1.09035
 Alpha  occ. eigenvalues --   -1.07042  -1.05009  -1.02909  -0.95890  -0.93955
 Alpha  occ. eigenvalues --   -0.86413  -0.84379  -0.82732  -0.80827  -0.77790
 Alpha  occ. eigenvalues --   -0.75905  -0.72435  -0.71544  -0.70730  -0.70711
 Alpha  occ. eigenvalues --   -0.69811  -0.68772  -0.65279  -0.65012  -0.63252
 Alpha  occ. eigenvalues --   -0.63020  -0.62360  -0.60341  -0.55522  -0.53536
 Alpha  occ. eigenvalues --   -0.53342  -0.53101  -0.51490  -0.51100  -0.49190
 Alpha  occ. eigenvalues --   -0.48811  -0.47474  -0.47426  -0.45218  -0.43573
 Alpha  occ. eigenvalues --   -0.37598  -0.36607  -0.35470  -0.34329
 Alpha virt. eigenvalues --    0.04725   0.06651   0.11049   0.13222   0.16261
 Alpha virt. eigenvalues --    0.18230   0.21201   0.22967   0.27109   0.28082
 Alpha virt. eigenvalues --    0.28848   0.29806   0.30766   0.32277   0.32432

 Mulliken charges:
               1
     1  C   -0.170305
     2  C   -0.218375
     3  C   -0.170646
     4  C    0.158507
     5  C   -0.170448
     6  C   -0.218331
     7  H    0.226681
     8  H    0.224181
     9  H    0.274871
    10  H    0.275170
    11  H    0.224476
    12  N    0.488360
    13  O   -0.461539
    14  O   -0.460276
    15  C   -0.166136
    16  C   -0.206862
    17  C   -0.168218
    18  C    0.156738
    19  C   -0.157559
    20  C   -0.201997
    21  H    0.217155
    22  H    0.215536
    23  H    0.268367
    24  H    0.268934
    25  H    0.215833
    26  N    0.487858
    27  O   -0.465565
    28  O   -0.466411
 Sum of Mulliken charges =  -0.00000

 Dipole moment (field-independent basis, Debye):
    X=             -6.7943    Y=              3.7968    Z=              0.8055  Tot=              7.8248
 Quadrupole moment (field-independent basis, Debye-Ang):
   XX=            -87.0862   YY=           -108.0315   ZZ=            -96.3658
   XY=             19.0947   XZ=              3.8402   YZ=             -3.9172

 Normal termination of Gaussian 16 at Thu May  6 05:03:55 2021.
