 Gaussian 16, Revision A.03,
 Gaussian 16:  EM64L-G16RevA.03 25-Dec-2016

 -------------
 #p 6-31g* mp2
 -------------

 ------------------------------------------------------
 Input file generated by CHIRIPA (05-May-2021 14:53:14)
 ------------------------------------------------------
 Symbolic Z-matrix:
 Charge =  0 Multiplicity = 1

                         Standard orientation:
 ---------------------------------------------------------------------
 Center     Atomic      Atomic             Coordinates (Angstroms)
 Number     Number       Type             X           Y           Z
 ---------------------------------------------------------------------
      1          6           0       -3.203267   -0.649142   -0.439135
      2          6           0       -4.381994   -1.412301    0.165991
      3          6           0       -4.300043   -2.919005   -0.080830
      4          1           0       -3.164714   -0.843562   -1.519718
      5          1           0       -2.266960   -1.040301   -0.017569
      6          1           0       -5.315874   -1.018881   -0.255558
      7          1           0       -4.417860   -1.215889    1.245228
      8          1           0       -3.384328   -3.331518    0.354946
      9          1           0       -4.287445   -3.133391   -1.154367
     10          1           0       -5.152491   -3.445019    0.360193
     11          6           0       -3.270986    0.858276   -0.200736
     12          6           0       -2.092260    1.621434   -0.805863
     13          6           0       -2.174210    3.128139   -0.559041
     14          1           0       -4.207293    1.249434   -0.622303
     15          1           0       -3.309539    1.052695    0.879847
     16          1           0       -2.056393    1.425023   -1.885099
     17          1           0       -1.158379    1.228015   -0.384313
     18          1           0       -2.186808    3.342524    0.514495
     19          1           0       -3.089925    3.540652   -0.994818
     20          1           0       -1.321762    3.654152   -1.000065
     21          6           0        1.131438    0.880774    2.117138
     22          6           0        1.281877    1.587586    0.919512
     23          6           0        2.053896    1.063948   -0.121803
     24          6           0        2.664116   -0.174740    0.069437
     25          6           0        2.533201   -0.903029    1.250855
     26          6           0        1.756479   -0.360091    2.278701
     27          1           0        0.529888    1.295045    2.920825
     28          1           0        0.797621    2.551477    0.791241
     29          1           0        2.187099    1.589897   -1.059380
     30          1           0        3.028136   -1.861559    1.349223
     31          1           0        1.641401   -0.911237    3.207701
     32          7           0        3.483909   -0.739309   -1.025827
     33          8           0        4.011210   -1.832557   -0.832440
     34          8           0        3.583637   -0.077879   -2.056944
 ---------------------------------------------------------------------

 SCF Done:  E(RHF) =  -669.534943433     A.U. after   15 cycles
 E2 =    -0.2092862893D+01 EUMP2 =    -0.67162780632612D+03

 The electronic state is 1-A.
 Alpha  occ. eigenvalues --  -20.60811 -20.60806 -15.85865 -11.31263 -11.27824
 Alpha  occ. eigenvalues --  -11.27820 -11.27576 -11.26858 -11.26822 -11.21991
 Alpha  occ. eigenvalues --  -11.21886 -11.21838 -11.21811 -11.21665 -11.21285
 Alpha  occ. eigenvalues --   -1.59885  -1.39438  -1.19444  -1.08858  -1.08790
 Alpha  occ. eigenvalues --   -1.04858  -1.03951  -0.96425  -0.95657  -0.87433
 Alpha  occ. eigenvalues --   -0.86242  -0.82491  -0.80009  -0.78610  -0.77527
 Alpha  occ. eigenvalues --   -0.72083  -0.71208  -0.70538  -0.65512  -0.65091
 Alpha  occ. eigenvalues --   -0.64820  -0.62234  -0.61322  -0.59801  -0.58021
 Alpha  occ. eigenvalues --   -0.55734  -0.55329  -0.53237  -0.53122  -0.52909
 Alpha  occ. eigenvalues --   -0.52814  -0.50355  -0.48844  -0.48836  -0.48323
 Alpha  occ. eigenvalues --   -0.47038  -0.46155  -0.46067  -0.44835  -0.44195
 Alpha  occ. eigenvalues --   -0.37409  -0.36370
 Alpha virt. eigenvalues --    0.04994   0.11143   0.16429   0.20221   0.22781
 Alpha virt. eigenvalues --    0.23836   0.26270   0.26408   0.27117   0.28217
 Alpha virt. eigenvalues --    0.28951   0.30653   0.31087   0.31645   0.31872

 Mulliken charges:
               1
     1  C   -0.299216
     2  C   -0.299712
     3  C   -0.475815
     4  H    0.152352
     5  H    0.150735
     6  H    0.152605
     7  H    0.149748
     8  H    0.155039
     9  H    0.157127
    10  H    0.160573
    11  C   -0.296633
    12  C   -0.310551
    13  C   -0.478102
    14  H    0.150640
    15  H    0.145149
    16  H    0.155531
    17  H    0.159385
    18  H    0.149067
    19  H    0.160854
    20  H    0.155711
    21  C   -0.172303
    22  C   -0.221641
    23  C   -0.170568
    24  C    0.159037
    25  C   -0.171102
    26  C   -0.218524
    27  H    0.226080
    28  H    0.230559
    29  H    0.276412
    30  H    0.275923
    31  H    0.223752
    32  N    0.488110
    33  O   -0.460220
    34  O   -0.460001
 Sum of Mulliken charges =  -0.00000

 Dipole moment (field-independent basis, Debye):
    X=             -2.8749    Y=              1.9173    Z=              3.8174  Tot=              5.1491
 Quadrupole moment (field-independent basis, Debye-Ang):
   XX=           -110.3893   YY=            -93.8386   ZZ=            -92.2757
   XY=              4.9148   XZ=             11.4419   YZ=             -3.3557

 Normal termination of Gaussian 16 at Wed May  5 21:51:47 2021.
