 Gaussian 16, Revision A.03,
 Gaussian 16:  EM64L-G16RevA.03 25-Dec-2016

 -------------
 #p 6-31g* mp2
 -------------

 ------------------------------------------------------
 Input file generated by CHIRIPA (05-May-2021 14:57:22)
 ------------------------------------------------------
 Symbolic Z-matrix:
 Charge =  0 Multiplicity = 1

                         Standard orientation:
 ---------------------------------------------------------------------
 Center     Atomic      Atomic             Coordinates (Angstroms)
 Number     Number       Type             X           Y           Z
 ---------------------------------------------------------------------
      1          6           0       -3.222091    2.642250    0.553146
      2          6           0       -3.267319    1.705053    1.590517
      3          6           0       -3.170964    0.337494    1.316572
      4          6           0       -3.029538   -0.059524   -0.012211
      5          6           0       -2.981222    0.849917   -1.067612
      6          6           0       -3.079439    2.212448   -0.770274
      7          1           0       -3.297665    3.702650    0.775040
      8          1           0       -3.378040    2.035956    2.619249
      9          1           0       -3.203106   -0.409504    2.100396
     10          1           0       -2.870165    0.489646   -2.083136
     11          1           0       -3.044013    2.938039   -1.577930
     12          7           0       -2.926546   -1.504637   -0.314607
     13          8           0       -2.802526   -1.828736   -1.493681
     14          8           0       -2.971790   -2.285853    0.633176
     15          6           0        1.339456   -2.035384    0.028791
     16          6           0        1.110973   -0.902282   -0.758861
     17          6           0        2.049870    0.132632   -0.803285
     18          6           0        3.211543    0.000855   -0.044049
     19          6           0        3.467957   -1.115558    0.750409
     20          6           0        2.515146   -2.138225    0.779589
     21          1           0        0.604693   -2.834573    0.057380
     22          1           0        0.198813   -0.819703   -1.342976
     23          1           0        1.898373    1.020893   -1.404498
     24          1           0        4.386693   -1.169308    1.321771
     25          1           0        2.695249   -3.017048    1.392187
     26          7           0        4.212877    1.089989   -0.083009
     27          8           0        5.228336    0.949773    0.595092
     28          8           0        3.963305    2.063245   -0.790909
 ---------------------------------------------------------------------

 SCF Done:  E(RHF) =  -868.340100267     A.U. after   16 cycles
 E2 =    -0.2599544466D+01 EUMP2 =    -0.87093964473280D+03

 The electronic state is 1-A.
 Alpha  occ. eigenvalues --  -20.61921 -20.61897 -20.60591 -20.60581 -15.86915
 Alpha  occ. eigenvalues --  -15.85638 -11.31982 -11.30854 -11.28523 -11.28476
 Alpha  occ. eigenvalues --  -11.28138 -11.27435 -11.27425 -11.27412 -11.27406
 Alpha  occ. eigenvalues --  -11.26974 -11.26341 -11.26298  -1.60981  -1.59668
 Alpha  occ. eigenvalues --   -1.40537  -1.39226  -1.20113  -1.18999  -1.09558
 Alpha  occ. eigenvalues --   -1.08390  -1.05463  -1.04387  -0.96442  -0.95256
 Alpha  occ. eigenvalues --   -0.86874  -0.85773  -0.83280  -0.82103  -0.78377
 Alpha  occ. eigenvalues --   -0.77202  -0.73129  -0.72316  -0.71854  -0.71195
 Alpha  occ. eigenvalues --   -0.70991  -0.70018  -0.65759  -0.65448  -0.64635
 Alpha  occ. eigenvalues --   -0.64357  -0.62815  -0.61742  -0.55945  -0.54773
 Alpha  occ. eigenvalues --   -0.53811  -0.53541  -0.52718  -0.52459  -0.49914
 Alpha  occ. eigenvalues --   -0.49870  -0.48623  -0.48600  -0.45983  -0.44666
 Alpha  occ. eigenvalues --   -0.38064  -0.37054  -0.36923  -0.36001
 Alpha virt. eigenvalues --    0.04096   0.05339   0.10533   0.11647   0.15670
 Alpha virt. eigenvalues --    0.16887   0.20736   0.21890   0.26511   0.27179
 Alpha virt. eigenvalues --    0.28034   0.28809   0.30408   0.31105   0.32323

 Mulliken charges:
               1
     1  C   -0.168945
     2  C   -0.217604
     3  C   -0.169549
     4  C    0.157499
     5  C   -0.177048
     6  C   -0.217908
     7  H    0.229998
     8  H    0.226925
     9  H    0.276306
    10  H    0.274406
    11  H    0.226881
    12  N    0.486175
    13  O   -0.463867
    14  O   -0.458722
    15  C   -0.173753
    16  C   -0.225775
    17  C   -0.171741
    18  C    0.157582
    19  C   -0.171938
    20  C   -0.219502
    21  H    0.239778
    22  H    0.227922
    23  H    0.271498
    24  H    0.273997
    25  H    0.223832
    26  N    0.488224
    27  O   -0.461361
    28  O   -0.463311
 Sum of Mulliken charges =  -0.00000

 Dipole moment (field-independent basis, Debye):
    X=             -4.2052    Y=              1.2879    Z=              1.3451  Tot=              4.5991
 Quadrupole moment (field-independent basis, Debye-Ang):
   XX=           -125.0154   YY=           -104.2492   ZZ=            -98.5355
   XY=            -30.2796   XZ=             -1.2676   YZ=             -2.9446

 Normal termination of Gaussian 16 at Thu May  6 21:08:07 2021.
