 Gaussian 16, Revision A.03,
 Gaussian 16:  EM64L-G16RevA.03 25-Dec-2016

 -------------
 #p 6-31g* mp2
 -------------

 ------------------------------------------------------
 Input file generated by CHIRIPA (05-May-2021 14:53:14)
 ------------------------------------------------------
 Symbolic Z-matrix:
 Charge =  0 Multiplicity = 1

                         Standard orientation:
 ---------------------------------------------------------------------
 Center     Atomic      Atomic             Coordinates (Angstroms)
 Number     Number       Type             X           Y           Z
 ---------------------------------------------------------------------
      1          6           0       -3.743472    0.862530   -0.332234
      2          6           0       -2.669319    1.585556    0.481040
      3          6           0       -2.105731    2.810087   -0.240547
      4          1           0       -3.319330    0.557439   -1.298654
      5          1           0       -4.558505    1.564620   -0.556257
      6          1           0       -1.857200    0.881937    0.704644
      7          1           0       -3.096013    1.888793    1.445714
      8          1           0       -2.900395    3.533459   -0.449935
      9          1           0       -1.654543    2.520882   -1.195215
     10          1           0       -1.339508    3.311808    0.358651
     11          6           0       -4.316551   -0.363782    0.375908
     12          6           0       -5.390703   -1.086808   -0.437367
     13          6           0       -5.954291   -2.311339    0.284220
     14          1           0       -3.501518   -1.065872    0.599931
     15          1           0       -4.740693   -0.058691    1.342328
     16          1           0       -4.964010   -1.390045   -1.402040
     17          1           0       -6.202823   -0.383189   -0.660971
     18          1           0       -6.405480   -2.022134    1.238888
     19          1           0       -5.159628   -3.034711    0.493608
     20          1           0       -6.720515   -2.813060   -0.314978
     21          6           0        2.525604    2.249702    0.030776
     22          6           0        3.862389    1.864939    0.177355
     23          6           0        4.219031    0.513372    0.152434
     24          6           0        3.208661   -0.431151   -0.021684
     25          6           0        1.867994   -0.079331   -0.170436
     26          6           0        1.534421    1.278051   -0.142346
     27          1           0        2.257517    3.301890    0.051365
     28          1           0        4.634267    2.617357    0.311955
     29          1           0        5.246165    0.187682    0.263519
     30          1           0        1.120797   -0.852336   -0.303020
     31          1           0        0.495443    1.573947   -0.256432
     32          7           0        3.574010   -1.865073   -0.049744
     33          8           0        2.665088   -2.677818   -0.204486
     34          8           0        4.762375   -2.149085    0.083535
 ---------------------------------------------------------------------

 SCF Done:  E(RHF) =  -669.535356467     A.U. after   15 cycles
 E2 =    -0.2091622149D+01 EUMP2 =    -0.67162697861607D+03

 The electronic state is 1-A.
 Alpha  occ. eigenvalues --  -20.60730 -20.60725 -15.85781 -11.31131 -11.27697
 Alpha  occ. eigenvalues --  -11.27684 -11.27421 -11.26713 -11.26617 -11.22603
 Alpha  occ. eigenvalues --  -11.22309 -11.22091 -11.21945 -11.21851 -11.21286
 Alpha  occ. eigenvalues --   -1.59805  -1.39360  -1.19295  -1.09091  -1.08692
 Alpha  occ. eigenvalues --   -1.04701  -1.04219  -0.96680  -0.95533  -0.87699
 Alpha  occ. eigenvalues --   -0.86089  -0.82366  -0.80299  -0.78825  -0.77421
 Alpha  occ. eigenvalues --   -0.72001  -0.71128  -0.70409  -0.65801  -0.64945
 Alpha  occ. eigenvalues --   -0.64704  -0.62220  -0.61449  -0.60071  -0.58246
 Alpha  occ. eigenvalues --   -0.55991  -0.55169  -0.53410  -0.53096  -0.53020
 Alpha  occ. eigenvalues --   -0.52705  -0.50607  -0.48758  -0.48752  -0.48598
 Alpha  occ. eigenvalues --   -0.47342  -0.46375  -0.46266  -0.44769  -0.44448
 Alpha  occ. eigenvalues --   -0.37276  -0.36295
 Alpha virt. eigenvalues --    0.05108   0.11326   0.16577   0.19455   0.22779
 Alpha virt. eigenvalues --    0.23925   0.25525   0.26388   0.26817   0.27890
 Alpha virt. eigenvalues --    0.29199   0.30327   0.30925   0.31432   0.32302

 Mulliken charges:
               1
     1  C   -0.298641
     2  C   -0.303316
     3  C   -0.486887
     4  H    0.149914
     5  H    0.152043
     6  H    0.148172
     7  H    0.157766
     8  H    0.165694
     9  H    0.153017
    10  H    0.155831
    11  C   -0.299147
    12  C   -0.300298
    13  C   -0.476384
    14  H    0.150996
    15  H    0.151058
    16  H    0.153108
    17  H    0.152216
    18  H    0.155498
    19  H    0.157435
    20  H    0.161769
    21  C   -0.174610
    22  C   -0.218314
    23  C   -0.171481
    24  C    0.159132
    25  C   -0.174727
    26  C   -0.229367
    27  H    0.225737
    28  H    0.223115
    29  H    0.275324
    30  H    0.274768
    31  H    0.243933
    32  N    0.488079
    33  O   -0.460797
    34  O   -0.460637
 Sum of Mulliken charges =  -0.00000

 Dipole moment (field-independent basis, Debye):
    X=             -1.5455    Y=              5.0559    Z=              0.1126  Tot=              5.2880
 Quadrupole moment (field-independent basis, Debye-Ang):
   XX=            -97.2247   YY=            -99.7611   ZZ=            -95.5361
   XY=             17.3474   XZ=              0.9265   YZ=              0.6566

 Normal termination of Gaussian 16 at Thu May  6 05:51:01 2021.
