 Gaussian 16, Revision A.03,
 Gaussian 16:  EM64L-G16RevA.03 25-Dec-2016

 -------------
 #p 6-31g* mp2
 -------------

 ------------------------------------------------------
 Input file generated by CHIRIPA (05-May-2021 14:57:24)
 ------------------------------------------------------
 Symbolic Z-matrix:
 Charge =  0 Multiplicity = 1

                         Standard orientation:
 ---------------------------------------------------------------------
 Center     Atomic      Atomic             Coordinates (Angstroms)
 Number     Number       Type             X           Y           Z
 ---------------------------------------------------------------------
      1          6           0       -4.295474    1.202312   -1.682788
      2          6           0       -3.388847    1.779727   -0.787724
      3          6           0       -2.793405    1.009460    0.215614
      4          6           0       -3.128937   -0.341226    0.295335
      5          6           0       -4.028554   -0.945525   -0.581478
      6          6           0       -4.611877   -0.156076   -1.576995
      7          1           0       -4.753320    1.808124   -2.459167
      8          1           0       -3.141248    2.834418   -0.867509
      9          1           0       -2.088280    1.430881    0.921744
     10          1           0       -4.255598   -1.999534   -0.476914
     11          1           0       -5.315635   -0.607187   -2.270729
     12          7           0       -2.504984   -1.166826    1.353384
     13          8           0       -2.817284   -2.354553    1.402486
     14          8           0       -1.715446   -0.610572    2.113547
     15          6           0        1.570764    1.854484    0.820692
     16          6           0        1.137211    0.833619   -0.031593
     17          6           0        2.048688   -0.085829   -0.559203
     18          6           0        3.392352    0.045707   -0.211990
     19          6           0        3.855175    1.051888    0.634581
     20          6           0        2.925973    1.960173    1.150477
     21          1           0        0.855823    2.564397    1.226002
     22          1           0        0.085345    0.749113   -0.289433
     23          1           0        1.740279   -0.885794   -1.221289
     24          1           0        4.910126    1.110560    0.873444
     25          1           0        3.265531    2.751978    1.812133
     26          7           0        4.366674   -0.921764   -0.764347
     27          8           0        5.545042   -0.784296   -0.443117
     28          8           0        3.933531   -1.799217   -1.508054
 ---------------------------------------------------------------------

 SCF Done:  E(RHF) =  -868.336860221     A.U. after   16 cycles
 E2 =    -0.2601281335D+01 EUMP2 =    -0.87093814155637D+03

 The electronic state is 1-A.
 Alpha  occ. eigenvalues --  -20.61580 -20.61567 -20.60454 -20.60448 -15.86624
 Alpha  occ. eigenvalues --  -15.85505 -11.32151 -11.30849 -11.28778 -11.28609
 Alpha  occ. eigenvalues --  -11.28362 -11.27764 -11.27643 -11.27416 -11.27397
 Alpha  occ. eigenvalues --  -11.27222 -11.26464 -11.26421  -1.60646  -1.59528
 Alpha  occ. eigenvalues --   -1.40196  -1.39082  -1.20302  -1.19019  -1.09643
 Alpha  occ. eigenvalues --   -1.08437  -1.05721  -1.04423  -0.96466  -0.95276
 Alpha  occ. eigenvalues --   -0.87104  -0.85839  -0.83289  -0.82110  -0.78349
 Alpha  occ. eigenvalues --   -0.77148  -0.72829  -0.71986  -0.71731  -0.71372
 Alpha  occ. eigenvalues --   -0.70846  -0.70186  -0.65931  -0.65713  -0.64691
 Alpha  occ. eigenvalues --   -0.64477  -0.63048  -0.61771  -0.56145  -0.55004
 Alpha  occ. eigenvalues --   -0.54049  -0.53790  -0.52734  -0.52501  -0.49608
 Alpha  occ. eigenvalues --   -0.49583  -0.48486  -0.48482  -0.45555  -0.44493
 Alpha  occ. eigenvalues --   -0.38241  -0.37318  -0.36998  -0.35991
 Alpha virt. eigenvalues --    0.04166   0.05392   0.10180   0.11635   0.15690
 Alpha virt. eigenvalues --    0.16893   0.19626   0.21871   0.25418   0.27045
 Alpha virt. eigenvalues --    0.27762   0.28972   0.30497   0.30891   0.32139

 Mulliken charges:
               1
     1  C   -0.170577
     2  C   -0.218068
     3  C   -0.183744
     4  C    0.159958
     5  C   -0.170286
     6  C   -0.216822
     7  H    0.229360
     8  H    0.224620
     9  H    0.271381
    10  H    0.279402
    11  H    0.227891
    12  N    0.487729
    13  O   -0.454767
    14  O   -0.461139
    15  C   -0.169794
    16  C   -0.212485
    17  C   -0.171622
    18  C    0.159241
    19  C   -0.171186
    20  C   -0.217848
    21  H    0.218353
    22  H    0.221705
    23  H    0.275334
    24  H    0.274814
    25  H    0.222230
    26  N    0.488162
    27  O   -0.461259
    28  O   -0.460583
 Sum of Mulliken charges =  -0.00000

 Dipole moment (field-independent basis, Debye):
    X=             -5.9456    Y=              6.1439    Z=             -1.8272  Tot=              8.7427
 Quadrupole moment (field-independent basis, Debye-Ang):
   XX=           -109.9693   YY=           -102.9874   ZZ=           -107.1952
   XY=              7.5074   XZ=             22.1410   YZ=              4.1928

 Normal termination of Gaussian 16 at Wed May  5 21:06:54 2021.
