 Gaussian 16, Revision A.03,
 Gaussian 16:  EM64L-G16RevA.03 25-Dec-2016

 -------------
 #p 6-31g* mp2
 -------------

 ------------------------------------------------------
 Input file generated by CHIRIPA (05-May-2021 14:51:13)
 ------------------------------------------------------
 Symbolic Z-matrix:
 Charge =  0 Multiplicity = 1

                         Standard orientation:
 ---------------------------------------------------------------------
 Center     Atomic      Atomic             Coordinates (Angstroms)
 Number     Number       Type             X           Y           Z
 ---------------------------------------------------------------------
      1          6           0       -3.351305    0.192841   -0.038613
      2          6           0       -3.184643    1.667806   -0.405610
      3          6           0       -4.418130    2.247597   -1.098536
      4          1           0       -3.566708   -0.382916   -0.949135
      5          1           0       -4.226880    0.081723    0.615923
      6          1           0       -2.308828    1.776294   -1.058139
      7          1           0       -2.969423    2.240089    0.505865
      8          1           0       -5.296904    2.168590   -0.450373
      9          1           0       -4.632556    1.702160   -2.023264
     10          1           0       -4.277313    3.302954   -1.352018
     11          6           0       -2.126490   -0.401041    0.654829
     12          6           0       -2.293152   -1.876006    1.021826
     13          6           0       -1.059665   -2.455797    1.714752
     14          1           0       -1.250915   -0.289923    0.000293
     15          1           0       -1.911087    0.174715    1.565351
     16          1           0       -2.508373   -2.448289    0.110351
     17          1           0       -3.168967   -1.984494    1.674355
     18          1           0       -0.845239   -1.910360    2.639480
     19          1           0       -0.180891   -2.376791    1.066589
     20          1           0       -1.200483   -3.511154    1.968234
     21          6           0        2.642783    0.856286   -0.216404
     22          6           0        3.690529    1.494665    0.696113
     23          6           0        3.484925    2.999775    0.869797
     24          1           0        2.672913    1.347665   -1.198536
     25          1           0        1.642464    1.045340    0.197133
     26          1           0        4.688656    1.303278    0.281713
     27          1           0        3.658032    1.001581    1.676128
     28          1           0        2.501850    3.206612    1.304976
     29          1           0        3.538330    3.510023   -0.097362
     30          1           0        4.244853    3.435718    1.525787
     31          6           0        2.835012   -0.648086   -0.399812
     32          6           0        1.787267   -1.286464   -1.312330
     33          6           0        1.992870   -2.791575   -1.486013
     34          1           0        3.835332   -0.837140   -0.813349
     35          1           0        2.804882   -1.139464    0.582320
     36          1           0        1.819764   -0.793381   -2.292344
     37          1           0        0.789139   -1.095076   -0.897929
     38          1           0        1.939465   -3.301822   -0.518854
     39          1           0        2.975946   -2.998413   -1.921192
     40          1           0        1.232942   -3.227518   -2.142003
 ---------------------------------------------------------------------

 SCF Done:  E(RHF) =  -470.732945976     A.U. after   11 cycles
 E2 =    -0.1584113218D+01 EUMP2 =    -0.47231705919417D+03

 The electronic state is 1-A.
 Alpha  occ. eigenvalues --  -11.21641 -11.21624 -11.21614 -11.21592 -11.21438
 Alpha  occ. eigenvalues --  -11.21408 -11.21377 -11.21346 -11.21107 -11.21100
 Alpha  occ. eigenvalues --  -11.21079 -11.21059  -1.08486  -1.08422  -1.03592
 Alpha  occ. eigenvalues --   -1.03514  -0.96023  -0.95976  -0.87034  -0.86999
 Alpha  occ. eigenvalues --   -0.79660  -0.79581  -0.78368  -0.78171  -0.65308
 Alpha  occ. eigenvalues --   -0.64904  -0.61216  -0.60706  -0.59396  -0.59331
 Alpha  occ. eigenvalues --   -0.57619  -0.57599  -0.55421  -0.55156  -0.52702
 Alpha  occ. eigenvalues --   -0.52686  -0.52433  -0.52415  -0.50022  -0.49868
 Alpha  occ. eigenvalues --   -0.48083  -0.47845  -0.46863  -0.46545  -0.46132
 Alpha  occ. eigenvalues --   -0.45784  -0.45758  -0.45170  -0.43813  -0.43791
 Alpha virt. eigenvalues --    0.19971   0.23066   0.23636   0.24600   0.25253
 Alpha virt. eigenvalues --    0.26521   0.26970   0.27884   0.28609   0.29741
 Alpha virt. eigenvalues --    0.30721   0.31245   0.31696   0.31757   0.32005

 Mulliken charges:
               1
     1  C   -0.297533
     2  C   -0.299976
     3  C   -0.475734
     4  H    0.149795
     5  H    0.149696
     6  H    0.152488
     7  H    0.151787
     8  H    0.155167
     9  H    0.155257
    10  H    0.160390
    11  C   -0.307993
    12  C   -0.298962
    13  C   -0.482703
    14  H    0.157581
    15  H    0.149426
    16  H    0.152119
    17  H    0.152315
    18  H    0.154835
    19  H    0.161872
    20  H    0.160690
    21  C   -0.299975
    22  C   -0.299668
    23  C   -0.475757
    24  H    0.149324
    25  H    0.151313
    26  H    0.151883
    27  H    0.152178
    28  H    0.155419
    29  H    0.155083
    30  H    0.160187
    31  C   -0.298274
    32  C   -0.311217
    33  C   -0.476899
    34  H    0.149782
    35  H    0.150369
    36  H    0.152376
    37  H    0.160835
    38  H    0.156703
    39  H    0.155730
    40  H    0.160089
 Sum of Mulliken charges =  -0.00000

 Dipole moment (field-independent basis, Debye):
    X=             -0.0026    Y=             -0.0016    Z=             -0.0032  Tot=              0.0044
 Quadrupole moment (field-independent basis, Debye-Ang):
   XX=            -84.9208   YY=            -86.1791   ZZ=            -83.6211
   XY=              0.4605   XZ=             -1.2213   YZ=              0.1550

 Normal termination of Gaussian 16 at Wed May  5 19:58:51 2021.
