 Gaussian 16, Revision A.03,
 Gaussian 16:  EM64L-G16RevA.03 25-Dec-2016

 -------------
 #p 6-31g* mp2
 -------------

 ------------------------------------------------------
 Input file generated by CHIRIPA (05-May-2021 14:53:14)
 ------------------------------------------------------
 Symbolic Z-matrix:
 Charge =  0 Multiplicity = 1

                         Standard orientation:
 ---------------------------------------------------------------------
 Center     Atomic      Atomic             Coordinates (Angstroms)
 Number     Number       Type             X           Y           Z
 ---------------------------------------------------------------------
      1          6           0       -2.344750    0.777311   -0.252165
      2          6           0       -2.053769    1.767177   -1.380651
      3          6           0       -0.834502    2.645130   -1.097137
      4          1           0       -2.500398    1.332535    0.682953
      5          1           0       -1.462481    0.141468   -0.095000
      6          1           0       -2.936821    2.400046   -1.536571
      7          1           0       -1.898985    1.209543   -2.313229
      8          1           0        0.060682    2.029385   -0.962585
      9          1           0       -0.983051    3.226652   -0.181514
     10          1           0       -0.644647    3.345275   -1.916657
     11          6           0       -3.560775   -0.107434   -0.520935
     12          6           0       -3.851756   -1.097300    0.607551
     13          6           0       -5.071023   -1.975254    0.324037
     14          1           0       -4.443044    0.528408   -0.678100
     15          1           0       -3.405127   -0.662659   -1.456053
     16          1           0       -4.006540   -0.539667    1.540129
     17          1           0       -2.968704   -1.730170    0.763471
     18          1           0       -4.922474   -2.556776   -0.591586
     19          1           0       -5.966207   -1.359509    0.189485
     20          1           0       -5.260878   -2.675399    1.143557
     21          6           0        3.154531   -2.057030   -1.254939
     22          6           0        3.467611   -0.715448   -1.497132
     23          6           0        3.003353    0.287693   -0.641139
     24          6           0        2.224895   -0.088102    0.452510
     25          6           0        1.895967   -1.415984    0.720513
     26          6           0        2.371089   -2.402408   -0.148840
     27          1           0        3.519397   -2.829801   -1.925084
     28          1           0        4.075847   -0.444293   -2.355368
     29          1           0        3.230730    1.334040   -0.805078
     30          1           0        1.287598   -1.655405    1.584215
     31          1           0        2.126375   -3.443488    0.041719
     32          7           0        1.727656    0.965030    1.365783
     33          8           0        1.043562    0.607884    2.322391
     34          8           0        2.031428    2.127679    1.107705
 ---------------------------------------------------------------------

 SCF Done:  E(RHF) =  -669.535781566     A.U. after   15 cycles
 E2 =    -0.2092908350D+01 EUMP2 =    -0.67162868991607D+03

 The electronic state is 1-A.
 Alpha  occ. eigenvalues --  -20.60869 -20.60862 -15.85878 -11.31283 -11.27841
 Alpha  occ. eigenvalues --  -11.27834 -11.27579 -11.26860 -11.26850 -11.21323
 Alpha  occ. eigenvalues --  -11.21069 -11.21041 -11.20891 -11.20845 -11.20305
 Alpha  occ. eigenvalues --   -1.59918  -1.39474  -1.19449  -1.08839  -1.08011
 Alpha  occ. eigenvalues --   -1.04848  -1.03104  -0.95671  -0.95534  -0.86548
 Alpha  occ. eigenvalues --   -0.86244  -0.82499  -0.79171  -0.77813  -0.77536
 Alpha  occ. eigenvalues --   -0.72113  -0.71245  -0.70545  -0.65099  -0.64848
 Alpha  occ. eigenvalues --   -0.64648  -0.62192  -0.60508  -0.58929  -0.57146
 Alpha  occ. eigenvalues --   -0.55345  -0.54832  -0.53176  -0.52936  -0.52243
 Alpha  occ. eigenvalues --   -0.51957  -0.49501  -0.48880  -0.48858  -0.47488
 Alpha  occ. eigenvalues --   -0.46229  -0.45341  -0.45270  -0.44759  -0.43358
 Alpha  occ. eigenvalues --   -0.37418  -0.36446
 Alpha virt. eigenvalues --    0.04980   0.11093   0.16440   0.21307   0.23117
 Alpha virt. eigenvalues --    0.24531   0.26619   0.27185   0.27636   0.28346
 Alpha virt. eigenvalues --    0.28519   0.30827   0.31530   0.32152   0.32273

 Mulliken charges:
               1
     1  C   -0.297547
     2  C   -0.300673
     3  C   -0.473976
     4  H    0.157696
     5  H    0.144443
     6  H    0.150456
     7  H    0.146579
     8  H    0.150439
     9  H    0.166116
    10  H    0.155409
    11  C   -0.298152
    12  C   -0.298214
    13  C   -0.475493
    14  H    0.149308
    15  H    0.146165
    16  H    0.155582
    17  H    0.148148
    18  H    0.152847
    19  H    0.155528
    20  H    0.159167
    21  C   -0.170777
    22  C   -0.218369
    23  C   -0.172437
    24  C    0.157388
    25  C   -0.171917
    26  C   -0.218506
    27  H    0.225990
    28  H    0.224029
    29  H    0.276673
    30  H    0.276274
    31  H    0.223886
    32  N    0.489392
    33  O   -0.458463
    34  O   -0.456993
 Sum of Mulliken charges =  -0.00000

 Dipole moment (field-independent basis, Debye):
    X=              1.8741    Y=             -3.6193    Z=             -3.0661  Tot=              5.1002
 Quadrupole moment (field-independent basis, Debye-Ang):
   XX=            -87.0320   YY=            -91.8326   ZZ=            -96.5970
   XY=             -8.0058   XZ=             -8.6341   YZ=             -3.0482

 Normal termination of Gaussian 16 at Thu May  6 18:48:19 2021.
