 Gaussian 16, Revision A.03,
 Gaussian 16:  EM64L-G16RevA.03 25-Dec-2016

 -------------
 #p 6-31g* mp2
 -------------

 ------------------------------------------------------
 Input file generated by CHIRIPA (05-May-2021 14:55:24)
 ------------------------------------------------------
 Symbolic Z-matrix:
 Charge =  0 Multiplicity = 1

                         Standard orientation:
 ---------------------------------------------------------------------
 Center     Atomic      Atomic             Coordinates (Angstroms)
 Number     Number       Type             X           Y           Z
 ---------------------------------------------------------------------
      1          6           0       -1.406901    2.109970    1.133318
      2          6           0       -1.164902    0.749381    1.349544
      3          6           0       -1.960503   -0.220209    0.731918
      4          6           0       -2.994222    0.208152   -0.099479
      5          6           0       -3.260382    1.556149   -0.334750
      6          6           0       -2.452026    2.508310    0.293342
      7          1           0       -0.783904    2.856401    1.617169
      8          1           0       -0.353943    0.437113    2.001373
      9          1           0       -1.795259   -1.280231    0.881808
     10          1           0       -4.076158    1.836748   -0.989877
     11          1           0       -2.642283    3.564259    0.123582
     12          7           0       -3.843241   -0.809083   -0.758872
     13          8           0       -4.747724   -0.405790   -1.486816
     14          8           0       -3.588143   -1.990424   -0.535274
     15          6           0        3.286497   -1.146758    0.062736
     16          6           0        1.965846   -1.029195    0.824342
     17          6           0        1.243357   -2.369329    0.965219
     18          1           0        3.091697   -1.566444   -0.933688
     19          1           0        3.938449   -1.863081    0.581615
     20          1           0        1.317113   -0.312265    0.304946
     21          1           0        2.163787   -0.609561    1.819000
     22          1           0        1.868609   -3.089409    1.502940
     23          1           0        1.017125   -2.790424   -0.019717
     24          1           0        0.301790   -2.262192    1.512789
     25          6           0        4.020494    0.184697   -0.086280
     26          6           0        5.341145    0.067135   -0.847885
     27          6           0        6.063634    1.407269   -0.988762
     28          1           0        3.368542    0.901021   -0.605158
     29          1           0        4.215293    0.604384    0.910145
     30          1           0        5.143203   -0.352499   -1.842542
     31          1           0        5.989878   -0.649796   -0.328488
     32          1           0        6.289866    1.828364   -0.003826
     33          1           0        5.438381    2.127350   -1.526483
     34          1           0        7.005201    1.300132   -1.536332
 ---------------------------------------------------------------------

 SCF Done:  E(RHF) =  -669.534177508     A.U. after   15 cycles
 E2 =    -0.2093283740D+01 EUMP2 =    -0.67162746124791D+03

 The electronic state is 1-A.
 Alpha  occ. eigenvalues --  -20.60741 -20.60736 -15.85792 -11.31150 -11.27716
 Alpha  occ. eigenvalues --  -11.27674 -11.27449 -11.26743 -11.26666 -11.22326
 Alpha  occ. eigenvalues --  -11.22007 -11.21941 -11.21874 -11.21829 -11.21445
 Alpha  occ. eigenvalues --   -1.59816  -1.39369  -1.19325  -1.08997  -1.08717
 Alpha  occ. eigenvalues --   -1.04755  -1.04092  -0.96553  -0.95554  -0.87565
 Alpha  occ. eigenvalues --   -0.86123  -0.82399  -0.80199  -0.78815  -0.77430
 Alpha  occ. eigenvalues --   -0.72011  -0.71139  -0.70440  -0.65616  -0.64977
 Alpha  occ. eigenvalues --   -0.64731  -0.62272  -0.61468  -0.59840  -0.58134
 Alpha  occ. eigenvalues --   -0.55804  -0.55209  -0.53293  -0.53063  -0.53006
 Alpha  occ. eigenvalues --   -0.52755  -0.50451  -0.48785  -0.48765  -0.48461
 Alpha  occ. eigenvalues --   -0.47200  -0.46329  -0.46241  -0.44775  -0.44356
 Alpha  occ. eigenvalues --   -0.37301  -0.36273
 Alpha virt. eigenvalues --    0.05079   0.11287   0.16505   0.20140   0.22550
 Alpha virt. eigenvalues --    0.23874   0.25731   0.26097   0.26670   0.28112
 Alpha virt. eigenvalues --    0.29086   0.29774   0.31065   0.31401   0.32126

 Mulliken charges:
               1
     1  C   -0.173462
     2  C   -0.220239
     3  C   -0.177793
     4  C    0.159830
     5  C   -0.171101
     6  C   -0.218626
     7  H    0.225781
     8  H    0.231425
     9  H    0.280419
    10  H    0.275351
    11  H    0.223266
    12  N    0.488128
    13  O   -0.460655
    14  O   -0.460288
    15  C   -0.297842
    16  C   -0.310446
    17  C   -0.478328
    18  H    0.153753
    19  H    0.151274
    20  H    0.158207
    21  H    0.144989
    22  H    0.160550
    23  H    0.164911
    24  H    0.150258
    25  C   -0.298843
    26  C   -0.300151
    27  C   -0.475993
    28  H    0.149340
    29  H    0.147669
    30  H    0.153948
    31  H    0.153032
    32  H    0.154577
    33  H    0.155051
    34  H    0.162009
 Sum of Mulliken charges =  -0.00000

 Dipole moment (field-independent basis, Debye):
    X=              3.1296    Y=              3.5227    Z=              2.2303  Tot=              5.2133
 Quadrupole moment (field-independent basis, Debye-Ang):
   XX=           -111.7116   YY=            -91.4337   ZZ=            -94.2915
   XY=            -13.2560   XZ=             -5.6128   YZ=             -1.5461

 Normal termination of Gaussian 16 at Thu May  6 06:22:35 2021.
