 Gaussian 16, Revision A.03,
 Gaussian 16:  EM64L-G16RevA.03 25-Dec-2016

 -------------
 #p 6-31g* mp2
 -------------

 ------------------------------------------------------
 Input file generated by CHIRIPA (05-May-2021 14:57:23)
 ------------------------------------------------------
 Symbolic Z-matrix:
 Charge =  0 Multiplicity = 1

                         Standard orientation:
 ---------------------------------------------------------------------
 Center     Atomic      Atomic             Coordinates (Angstroms)
 Number     Number       Type             X           Y           Z
 ---------------------------------------------------------------------
      1          6           0        2.914730    2.487688    0.038638
      2          6           0        3.941144    1.569246    0.282483
      3          6           0        3.706845    0.195719    0.168126
      4          6           0        2.428450   -0.226326   -0.193638
      5          6           0        1.385198    0.664007   -0.443083
      6          6           0        1.642277    2.032939   -0.322729
      7          1           0        3.105587    3.552891    0.129802
      8          1           0        4.930330    1.919539    0.563285
      9          1           0        4.483275   -0.537132    0.351170
     10          1           0        0.409477    0.284574   -0.721320
     11          1           0        0.843244    2.743926   -0.512703
     12          7           0        2.168351   -1.677984   -0.317876
     13          8           0        1.033346   -2.024273   -0.638009
     14          8           0        3.104415   -2.442018   -0.092768
     15          6           0       -2.884082    2.456729   -0.137251
     16          6           0       -2.185994    1.999349    0.985243
     17          6           0       -1.951504    0.633208    1.167509
     18          6           0       -2.431413   -0.251683    0.203171
     19          6           0       -3.130213    0.173097   -0.925780
     20          6           0       -3.353137    1.543752   -1.087506
     21          1           0       -3.061748    3.519734   -0.270862
     22          1           0       -1.820556    2.706090    1.724849
     23          1           0       -1.413959    0.251836    2.027171
     24          1           0       -3.482241   -0.555521   -1.645927
     25          1           0       -3.895585    1.896101   -1.960229
     26          7           0       -2.189291   -1.700345    0.385255
     27          8           0       -2.622441   -2.459586   -0.478789
     28          8           0       -1.570951   -2.049135    1.388568
 ---------------------------------------------------------------------

 SCF Done:  E(RHF) =  -868.335542590     A.U. after   16 cycles
 E2 =    -0.2604676536D+01 EUMP2 =    -0.87094021912657D+03

 The electronic state is 1-A.
 Alpha  occ. eigenvalues --  -20.60365 -20.60297 -20.60277 -20.60265 -15.85383
 Alpha  occ. eigenvalues --  -15.85362 -11.31363 -11.31020 -11.28003 -11.27976
 Alpha  occ. eigenvalues --  -11.27873 -11.27621 -11.27597 -11.27455 -11.27176
 Alpha  occ. eigenvalues --  -11.27113 -11.26721 -11.26705  -1.59391  -1.59305
 Alpha  occ. eigenvalues --   -1.38946  -1.38858  -1.19634  -1.19230  -1.08884
 Alpha  occ. eigenvalues --   -1.08580  -1.05098  -1.04665  -0.95604  -0.95364
 Alpha  occ. eigenvalues --   -0.86452  -0.86060  -0.82430  -0.82196  -0.77355
 Alpha  occ. eigenvalues --   -0.77215  -0.71721  -0.71584  -0.70807  -0.70672
 Alpha  occ. eigenvalues --   -0.70406  -0.70356  -0.65225  -0.65058  -0.64877
 Alpha  occ. eigenvalues --   -0.64688  -0.62393  -0.62049  -0.55554  -0.55225
 Alpha  occ. eigenvalues --   -0.53488  -0.53145  -0.52951  -0.52698  -0.48415
 Alpha  occ. eigenvalues --   -0.48371  -0.48318  -0.48273  -0.44546  -0.43841
 Alpha  occ. eigenvalues --   -0.37670  -0.37232  -0.36983  -0.36021
 Alpha virt. eigenvalues --    0.05004   0.05518   0.10539   0.11666   0.16396
 Alpha virt. eigenvalues --    0.16909   0.20995   0.21479   0.26784   0.27300
 Alpha virt. eigenvalues --    0.28093   0.28217   0.30351   0.31044   0.32212

 Mulliken charges:
               1
     1  C   -0.172168
     2  C   -0.218808
     3  C   -0.170444
     4  C    0.158966
     5  C   -0.173308
     6  C   -0.223302
     7  H    0.222618
     8  H    0.222713
     9  H    0.276477
    10  H    0.278496
    11  H    0.219069
    12  N    0.489973
    13  O   -0.455338
    14  O   -0.460288
    15  C   -0.177564
    16  C   -0.221544
    17  C   -0.176017
    18  C    0.155390
    19  C   -0.173131
    20  C   -0.218647
    21  H    0.224499
    22  H    0.222877
    23  H    0.278893
    24  H    0.279976
    25  H    0.224854
    26  N    0.496378
    27  O   -0.456148
    28  O   -0.454474
 Sum of Mulliken charges =  -0.00000

 Dipole moment (field-independent basis, Debye):
    X=             -0.0606    Y=              9.7316    Z=             -0.1865  Tot=              9.7336
 Quadrupole moment (field-independent basis, Debye-Ang):
   XX=            -91.1389   YY=           -110.7028   ZZ=           -102.2447
   XY=             -0.3391   XZ=              6.1763   YZ=              0.7652

 Normal termination of Gaussian 16 at Wed May  5 19:25:13 2021.
