 Gaussian 16, Revision A.03,
 Gaussian 16:  EM64L-G16RevA.03 25-Dec-2016

 -------------
 #p 6-31g* mp2
 -------------

 ------------------------------------------------------
 Input file generated by CHIRIPA (05-May-2021 14:51:12)
 ------------------------------------------------------
 Symbolic Z-matrix:
 Charge =  0 Multiplicity = 1

                         Standard orientation:
 ---------------------------------------------------------------------
 Center     Atomic      Atomic             Coordinates (Angstroms)
 Number     Number       Type             X           Y           Z
 ---------------------------------------------------------------------
      1          6           0        3.972573   -0.207886   -0.519952
      2          6           0        4.061999   -1.519610    0.260669
      3          6           0        5.369595   -2.270424    0.007160
      4          1           0        4.073272   -0.419715   -1.593234
      5          1           0        4.822892    0.432114   -0.246541
      6          1           0        3.211008   -2.156383   -0.013102
      7          1           0        3.960884   -1.304655    1.332203
      8          1           0        6.228601   -1.657051    0.297820
      9          1           0        5.474464   -2.513618   -1.055130
     10          1           0        5.412452   -3.205074    0.575009
     11          6           0        2.671058    0.554176   -0.276955
     12          6           0        2.581633    1.865900   -1.057576
     13          6           0        1.274037    2.616714   -0.804067
     14          1           0        1.820740   -0.085824   -0.550366
     15          1           0        2.570360    0.766005    0.796327
     16          1           0        2.682748    1.650945   -2.129110
     17          1           0        3.432624    2.502673   -0.783805
     18          1           0        1.169167    2.859908    0.258223
     19          1           0        0.415031    2.003341   -1.094727
     20          1           0        1.231180    3.551364   -1.371916
     21          6           0       -2.851523    0.377173    0.642190
     22          6           0       -1.871669   -0.094623    1.717029
     23          6           0       -0.937452    1.017592    2.194534
     24          1           0       -2.285858    0.774622   -0.211626
     25          1           0       -3.446182    1.211691    1.038870
     26          1           0       -1.279990   -0.928909    1.318911
     27          1           0       -2.439731   -0.491172    2.568306
     28          1           0       -1.511913    1.848372    2.616907
     29          1           0       -0.345583    1.408147    1.360412
     30          1           0       -0.245470    0.658469    2.962682
     31          6           0       -3.792108   -0.723463    0.154717
     32          6           0       -4.771963   -0.251667   -0.920122
     33          6           0       -5.706180   -1.363882   -1.397627
     34          1           0       -3.197450   -1.557981   -0.241963
     35          1           0       -4.357774   -1.120912    1.008533
     36          1           0       -4.203900    0.144881   -1.771399
     37          1           0       -5.363642    0.582619   -0.522004
     38          1           0       -6.298049   -1.754438   -0.563505
     39          1           0       -5.131719   -2.194662   -1.820000
     40          1           0       -6.398161   -1.004759   -2.165775
 ---------------------------------------------------------------------

 SCF Done:  E(RHF) =  -470.732783383     A.U. after   11 cycles
 E2 =    -0.1583427275D+01 EUMP2 =    -0.47231621065826D+03

 The electronic state is 1-A.
 Alpha  occ. eigenvalues --  -11.21653 -11.21623 -11.21585 -11.21524 -11.21438
 Alpha  occ. eigenvalues --  -11.21378 -11.21373 -11.21312 -11.21134 -11.21088
 Alpha  occ. eigenvalues --  -11.21060 -11.20875  -1.08473  -1.08384  -1.03588
 Alpha  occ. eigenvalues --   -1.03460  -0.96041  -0.95909  -0.87067  -0.86921
 Alpha  occ. eigenvalues --   -0.79701  -0.79488  -0.78299  -0.78180  -0.65099
 Alpha  occ. eigenvalues --   -0.65022  -0.60977  -0.60893  -0.59401  -0.59288
 Alpha  occ. eigenvalues --   -0.57748  -0.57447  -0.55353  -0.55177  -0.52716
 Alpha  occ. eigenvalues --   -0.52615  -0.52604  -0.52219  -0.50019  -0.49839
 Alpha  occ. eigenvalues --   -0.48131  -0.47686  -0.46681  -0.46549  -0.45899
 Alpha  occ. eigenvalues --   -0.45738  -0.45694  -0.45494  -0.43823  -0.43733
 Alpha virt. eigenvalues --    0.21000   0.23131   0.23568   0.24961   0.25582
 Alpha virt. eigenvalues --    0.26333   0.26874   0.27708   0.28104   0.29331
 Alpha virt. eigenvalues --    0.30496   0.31396   0.31428   0.31866   0.32061

 Mulliken charges:
               1
     1  C   -0.298338
     2  C   -0.299608
     3  C   -0.475741
     4  H    0.149624
     5  H    0.149701
     6  H    0.151762
     7  H    0.152173
     8  H    0.155255
     9  H    0.155164
    10  H    0.160351
    11  C   -0.299873
    12  C   -0.299453
    13  C   -0.481434
    14  H    0.149023
    15  H    0.151813
    16  H    0.151940
    17  H    0.152304
    18  H    0.159545
    19  H    0.155946
    20  H    0.161405
    21  C   -0.299699
    22  C   -0.299043
    23  C   -0.485251
    24  H    0.150142
    25  H    0.149700
    26  H    0.151437
    27  H    0.151400
    28  H    0.153785
    29  H    0.167740
    30  H    0.158651
    31  C   -0.298205
    32  C   -0.299582
    33  C   -0.475667
    34  H    0.149128
    35  H    0.149757
    36  H    0.151698
    37  H    0.152023
    38  H    0.155201
    39  H    0.155030
    40  H    0.160194
 Sum of Mulliken charges =  -0.00000

 Dipole moment (field-independent basis, Debye):
    X=              0.0522    Y=              0.0349    Z=             -0.0204  Tot=              0.0660
 Quadrupole moment (field-independent basis, Debye-Ang):
   XX=            -85.4819   YY=            -85.3297   ZZ=            -83.9683
   XY=              0.1567   XZ=             -0.3633   YZ=              0.2109

 Normal termination of Gaussian 16 at Wed May  5 19:55:05 2021.
