 Gaussian 16, Revision A.03,
 Gaussian 16:  EM64L-G16RevA.03 25-Dec-2016

 -------------
 #p 6-31g* mp2
 -------------

 ------------------------------------------------------
 Input file generated by CHIRIPA (05-May-2021 14:51:13)
 ------------------------------------------------------
 Symbolic Z-matrix:
 Charge =  0 Multiplicity = 1

                         Standard orientation:
 ---------------------------------------------------------------------
 Center     Atomic      Atomic             Coordinates (Angstroms)
 Number     Number       Type             X           Y           Z
 ---------------------------------------------------------------------
      1          6           0        3.001084    0.345238   -0.336085
      2          6           0        4.165494    1.328212   -0.210011
      3          6           0        4.339461    2.201139   -1.453204
      4          1           0        3.162597   -0.293868   -1.214949
      5          1           0        2.075226    0.906486   -0.523650
      6          1           0        5.088657    0.765364   -0.021362
      7          1           0        4.001286    1.964926    0.668766
      8          1           0        3.434512    2.787762   -1.641728
      9          1           0        4.528061    1.581385   -2.335777
     10          1           0        5.177323    2.896392   -1.341531
     11          6           0        2.814448   -0.534427    0.898859
     12          6           0        1.650037   -1.517402    0.772785
     13          6           0        1.476071   -2.390328    2.015978
     14          1           0        3.740306   -1.095676    1.086424
     15          1           0        2.652935    0.104679    1.777723
     16          1           0        1.814246   -2.154115   -0.105992
     17          1           0        0.726875   -0.954554    0.584136
     18          1           0        1.287471   -1.770574    2.898551
     19          1           0        2.381020   -2.976952    2.204502
     20          1           0        0.638209   -3.085581    1.904305
     21          6           0       -2.511430   -0.558215   -0.267632
     22          6           0       -2.687165   -1.401017   -1.531273
     23          6           0       -1.888084   -2.703881   -1.488753
     24          1           0       -1.445139   -0.331743   -0.130960
     25          1           0       -2.819640   -1.150148    0.605304
     26          1           0       -2.380021   -0.807190   -2.401703
     27          1           0       -3.753183   -1.625347   -1.665058
     28          1           0       -2.199634   -3.319314   -0.638589
     29          1           0       -0.818671   -2.496509   -1.379420
     30          1           0       -2.028239   -3.290783   -2.401858
     31          6           0       -3.304101    0.747404   -0.295142
     32          6           0       -3.128367    1.590206    0.968499
     33          6           0       -3.927448    2.893070    0.925979
     34          1           0       -2.995892    1.339337   -1.168078
     35          1           0       -4.370392    0.520933   -0.431814
     36          1           0       -2.062349    1.814536    1.102283
     37          1           0       -3.435510    0.996380    1.838930
     38          1           0       -4.996862    2.685698    0.816647
     39          1           0       -3.615898    3.508503    0.075815
     40          1           0       -3.787292    3.479974    1.839085
 ---------------------------------------------------------------------

 SCF Done:  E(RHF) =  -470.733202564     A.U. after   11 cycles
 E2 =    -0.1583445344D+01 EUMP2 =    -0.47231664790811D+03

 The electronic state is 1-A.
 Alpha  occ. eigenvalues --  -11.21634 -11.21632 -11.21596 -11.21591 -11.21438
 Alpha  occ. eigenvalues --  -11.21415 -11.21374 -11.21352 -11.21099 -11.21096
 Alpha  occ. eigenvalues --  -11.21053 -11.21023  -1.08471  -1.08429  -1.03565
 Alpha  occ. eigenvalues --   -1.03514  -0.95994  -0.95979  -0.87011  -0.86996
 Alpha  occ. eigenvalues --   -0.79686  -0.79542  -0.78376  -0.78156  -0.65177
 Alpha  occ. eigenvalues --   -0.64997  -0.60989  -0.60898  -0.59428  -0.59283
 Alpha  occ. eigenvalues --   -0.57640  -0.57554  -0.55308  -0.55243  -0.52687
 Alpha  occ. eigenvalues --   -0.52672  -0.52439  -0.52388  -0.49998  -0.49873
 Alpha  occ. eigenvalues --   -0.48109  -0.47813  -0.46788  -0.46595  -0.46094
 Alpha  occ. eigenvalues --   -0.45766  -0.45752  -0.45230  -0.43800  -0.43787
 Alpha virt. eigenvalues --    0.20959   0.23277   0.23415   0.24872   0.25058
 Alpha virt. eigenvalues --    0.26262   0.26988   0.27576   0.28587   0.29361
 Alpha virt. eigenvalues --    0.30546   0.31084   0.31509   0.31954   0.32177

 Mulliken charges:
               1
     1  C   -0.298295
     2  C   -0.299635
     3  C   -0.475723
     4  H    0.149692
     5  H    0.148256
     6  H    0.152193
     7  H    0.152035
     8  H    0.155016
     9  H    0.155242
    10  H    0.160416
    11  C   -0.297660
    12  C   -0.309649
    13  C   -0.475446
    14  H    0.149711
    15  H    0.149640
    16  H    0.152257
    17  H    0.160617
    18  H    0.155064
    19  H    0.155019
    20  H    0.161288
    21  C   -0.306198
    22  C   -0.299050
    23  C   -0.479802
    24  H    0.156844
    25  H    0.149412
    26  H    0.151750
    27  H    0.151851
    28  H    0.154523
    29  H    0.160435
    30  H    0.159878
    31  C   -0.297576
    32  C   -0.299500
    33  C   -0.475697
    34  H    0.149397
    35  H    0.149871
    36  H    0.150869
    37  H    0.152131
    38  H    0.155384
    39  H    0.155188
    40  H    0.160250
 Sum of Mulliken charges =  -0.00000

 Dipole moment (field-independent basis, Debye):
    X=              0.0081    Y=             -0.0058    Z=              0.0068  Tot=              0.0120
 Quadrupole moment (field-independent basis, Debye-Ang):
   XX=            -84.0731   YY=            -85.5474   ZZ=            -85.1415
   XY=              0.2424   XZ=             -0.3548   YZ=              0.5257

 Normal termination of Gaussian 16 at Wed May  5 23:12:56 2021.
