 Gaussian 16, Revision A.03,
 Gaussian 16:  EM64L-G16RevA.03 25-Dec-2016

 -------------
 #p 6-31g* mp2
 -------------

 ------------------------------------------------------
 Input file generated by CHIRIPA (05-May-2021 14:53:13)
 ------------------------------------------------------
 Symbolic Z-matrix:
 Charge =  0 Multiplicity = 1

                         Standard orientation:
 ---------------------------------------------------------------------
 Center     Atomic      Atomic             Coordinates (Angstroms)
 Number     Number       Type             X           Y           Z
 ---------------------------------------------------------------------
      1          6           0       -2.755797   -0.365721   -0.243515
      2          6           0       -3.489877   -1.671645    0.062548
      3          6           0       -2.697475   -2.908604   -0.361510
      4          1           0       -2.543437   -0.315546   -1.320237
      5          1           0       -1.782809   -0.371817    0.267025
      6          1           0       -4.461778   -1.662494   -0.447296
      7          1           0       -3.700684   -1.718629    1.138638
      8          1           0       -1.733880   -2.945226    0.156897
      9          1           0       -2.499298   -2.888773   -1.438048
     10          1           0       -3.240667   -3.830994   -0.133479
     11          6           0       -3.535296    0.879769    0.174653
     12          6           0       -2.801216    2.185693   -0.131410
     13          6           0       -3.593618    3.422652    0.292648
     14          1           0       -4.508284    0.885865   -0.335887
     15          1           0       -3.747656    0.829594    1.251375
     16          1           0       -2.590408    2.232677   -1.207500
     17          1           0       -1.829315    2.176542    0.378434
     18          1           0       -3.791795    3.402821    1.369186
     19          1           0       -4.557212    3.459274   -0.225759
     20          1           0       -3.050426    4.345042    0.064617
     21          6           0        1.173611   -2.349280    0.345794
     22          6           0        1.683330   -1.667114    1.455460
     23          6           0        2.396212   -0.475820    1.290637
     24          6           0        2.581575    0.006907   -0.003931
     25          6           0        2.086109   -0.649714   -1.129386
     26          6           0        1.376270   -1.839302   -0.940818
     27          1           0        0.621008   -3.274043    0.483055
     28          1           0        1.527474   -2.060822    2.455833
     29          1           0        2.801744    0.072617    2.132171
     30          1           0        2.257605   -0.232516   -2.114247
     31          1           0        0.981560   -2.366950   -1.804437
     32          7           0        3.334661    1.267174   -0.190989
     33          8           0        3.484349    1.671577   -1.341941
     34          8           0        3.760983    1.826703    0.816887
 ---------------------------------------------------------------------

 SCF Done:  E(RHF) =  -669.535296655     A.U. after   15 cycles
 E2 =    -0.2092388316D+01 EUMP2 =    -0.67162768497153D+03

 The electronic state is 1-A.
 Alpha  occ. eigenvalues --  -20.60789 -20.60784 -15.85843 -11.31222 -11.27795
 Alpha  occ. eigenvalues --  -11.27777 -11.27526 -11.26823 -11.26797 -11.22169
 Alpha  occ. eigenvalues --  -11.21929 -11.21734 -11.21697 -11.21597 -11.21099
 Alpha  occ. eigenvalues --   -1.59864  -1.39417  -1.19399  -1.08814  -1.08745
 Alpha  occ. eigenvalues --   -1.04798  -1.03899  -0.96372  -0.95623  -0.87396
 Alpha  occ. eigenvalues --   -0.86194  -0.82456  -0.79978  -0.78535  -0.77494
 Alpha  occ. eigenvalues --   -0.72061  -0.71187  -0.70534  -0.65399  -0.65049
 Alpha  occ. eigenvalues --   -0.64799  -0.62143  -0.61311  -0.59749  -0.57963
 Alpha  occ. eigenvalues --   -0.55824  -0.55185  -0.53162  -0.53057  -0.52890
 Alpha  occ. eigenvalues --   -0.52771  -0.50318  -0.48820  -0.48815  -0.48280
 Alpha  occ. eigenvalues --   -0.46995  -0.46088  -0.45978  -0.44820  -0.44126
 Alpha  occ. eigenvalues --   -0.37332  -0.36395
 Alpha virt. eigenvalues --    0.04996   0.11233   0.16363   0.20645   0.22689
 Alpha virt. eigenvalues --    0.24131   0.25965   0.26349   0.27286   0.27415
 Alpha virt. eigenvalues --    0.28928   0.30108   0.31357   0.31706   0.32307

 Mulliken charges:
               1
     1  C   -0.300796
     2  C   -0.298853
     3  C   -0.478712
     4  H    0.148242
     5  H    0.153481
     6  H    0.154261
     7  H    0.152305
     8  H    0.147672
     9  H    0.153591
    10  H    0.161702
    11  C   -0.298593
    12  C   -0.299984
    13  C   -0.476091
    14  H    0.149623
    15  H    0.149262
    16  H    0.152640
    17  H    0.153848
    18  H    0.154861
    19  H    0.154685
    20  H    0.163205
    21  C   -0.170556
    22  C   -0.220522
    23  C   -0.171314
    24  C    0.158757
    25  C   -0.170878
    26  C   -0.216650
    27  H    0.227624
    28  H    0.223635
    29  H    0.275652
    30  H    0.275756
    31  H    0.224754
    32  N    0.488061
    33  O   -0.460188
    34  O   -0.460478
 Sum of Mulliken charges =  -0.00000

 Dipole moment (field-independent basis, Debye):
    X=             -2.6610    Y=             -4.3586    Z=              0.6468  Tot=              5.1474
 Quadrupole moment (field-independent basis, Debye-Ang):
   XX=           -109.1926   YY=            -96.5067   ZZ=            -89.0686
   XY=            -11.2512   XZ=              2.9460   YZ=              0.1350

 Normal termination of Gaussian 16 at Thu May  6 13:45:20 2021.
