 Gaussian 16, Revision A.03,
 Gaussian 16:  EM64L-G16RevA.03 25-Dec-2016

 -------------
 #p 6-31g* mp2
 -------------

 ------------------------------------------------------
 Input file generated by CHIRIPA (05-May-2021 14:51:14)
 ------------------------------------------------------
 Symbolic Z-matrix:
 Charge =  0 Multiplicity = 1

                         Standard orientation:
 ---------------------------------------------------------------------
 Center     Atomic      Atomic             Coordinates (Angstroms)
 Number     Number       Type             X           Y           Z
 ---------------------------------------------------------------------
      1          6           0       -3.121454    1.033936    0.250370
      2          6           0       -2.522876    2.347425   -0.254046
      3          6           0       -3.017155    3.562508    0.531483
      4          1           0       -4.216944    1.090519    0.189992
      5          1           0       -2.872982    0.910237    1.313551
      6          1           0       -2.771230    2.467939   -1.316314
      7          1           0       -1.428677    2.287637   -0.192640
      8          1           0       -2.755952    3.468857    1.590541
      9          1           0       -4.106133    3.650184    0.460482
     10          1           0       -2.576751    4.490724    0.154231
     11          6           0       -2.636869   -0.189886   -0.524979
     12          6           0       -3.235447   -1.503375   -0.020563
     13          6           0       -2.741168   -2.718457   -0.806092
     14          1           0       -2.885341   -0.066186   -1.588160
     15          1           0       -1.541379   -0.246469   -0.464601
     16          1           0       -4.329646   -1.443586   -0.081969
     17          1           0       -2.987093   -1.623888    1.041705
     18          1           0       -1.652190   -2.806133   -0.735092
     19          1           0       -3.002371   -2.624806   -1.865150
     20          1           0       -3.181572   -3.646673   -0.428841
     21          6           0        2.394730   -0.766996    0.616631
     22          6           0        1.691140   -1.976942    0.001021
     23          6           0        0.725243   -2.656435    0.972167
     24          1           0        2.940113   -1.086044    1.515359
     25          1           0        1.638853   -0.042664    0.950379
     26          1           0        2.448159   -2.698159   -0.332720
     27          1           0        1.147526   -1.655012   -0.896453
     28          1           0       -0.051170   -1.956027    1.296534
     29          1           0        1.256854   -3.005102    1.863471
     30          1           0        0.233260   -3.518783    0.511547
     31          6           0        3.363593   -0.077055   -0.342022
     32          6           0        4.067182    1.132892    0.273588
     33          6           0        5.033081    1.812384   -0.697558
     34          1           0        4.119470   -0.801387   -0.675770
     35          1           0        2.818211    0.241993   -1.240750
     36          1           0        4.610797    0.810961    1.171063
     37          1           0        3.310163    1.854109    0.607329
     38          1           0        4.501469    2.161051   -1.588862
     39          1           0        5.809493    1.111977   -1.021925
     40          1           0        5.525063    2.674732   -0.236938
 ---------------------------------------------------------------------

 SCF Done:  E(RHF) =  -470.732703487     A.U. after   11 cycles
 E2 =    -0.1583832970D+01 EUMP2 =    -0.47231653645759D+03

 The electronic state is 1-A.
 Alpha  occ. eigenvalues --  -11.21679 -11.21641 -11.21636 -11.21578 -11.21465
 Alpha  occ. eigenvalues --  -11.21429 -11.21399 -11.21369 -11.21126 -11.21099
 Alpha  occ. eigenvalues --  -11.21094 -11.20946  -1.08500  -1.08433  -1.03623
 Alpha  occ. eigenvalues --   -1.03494  -0.96081  -0.95934  -0.87097  -0.86952
 Alpha  occ. eigenvalues --   -0.79657  -0.79584  -0.78298  -0.78261  -0.65288
 Alpha  occ. eigenvalues --   -0.64942  -0.61248  -0.60708  -0.59430  -0.59331
 Alpha  occ. eigenvalues --   -0.57732  -0.57522  -0.55467  -0.55109  -0.52786
 Alpha  occ. eigenvalues --   -0.52653  -0.52506  -0.52302  -0.50017  -0.49833
 Alpha  occ. eigenvalues --   -0.47957  -0.47891  -0.46682  -0.46606  -0.45913
 Alpha  occ. eigenvalues --   -0.45769  -0.45748  -0.45676  -0.43824  -0.43786
 Alpha virt. eigenvalues --    0.19452   0.23190   0.23457   0.24891   0.25861
 Alpha virt. eigenvalues --    0.26573   0.26800   0.27775   0.28539   0.29457
 Alpha virt. eigenvalues --    0.30914   0.30964   0.31208   0.31859   0.32301

 Mulliken charges:
               1
     1  C   -0.298211
     2  C   -0.299503
     3  C   -0.475727
     4  H    0.150057
     5  H    0.149255
     6  H    0.152083
     7  H    0.151039
     8  H    0.155252
     9  H    0.155388
    10  H    0.160289
    11  C   -0.302120
    12  C   -0.299531
    13  C   -0.482914
    14  H    0.149734
    15  H    0.151694
    16  H    0.152028
    17  H    0.152097
    18  H    0.165403
    19  H    0.154064
    20  H    0.159456
    21  C   -0.298652
    22  C   -0.303164
    23  C   -0.481766
    24  H    0.150156
    25  H    0.148982
    26  H    0.152805
    27  H    0.153962
    28  H    0.157722
    29  H    0.156532
    30  H    0.162868
    31  C   -0.298406
    32  C   -0.299677
    33  C   -0.475764
    34  H    0.149779
    35  H    0.149961
    36  H    0.152009
    37  H    0.151835
    38  H    0.155349
    39  H    0.155261
    40  H    0.160376
 Sum of Mulliken charges =  -0.00000

 Dipole moment (field-independent basis, Debye):
    X=              0.0338    Y=             -0.0169    Z=              0.0057  Tot=              0.0382
 Quadrupole moment (field-independent basis, Debye-Ang):
   XX=            -84.2093   YY=            -85.6531   ZZ=            -84.8384
   XY=             -0.8157   XZ=              1.2799   YZ=             -0.4181

 Normal termination of Gaussian 16 at Wed May  5 20:01:59 2021.
