 Gaussian 16, Revision A.03,
 Gaussian 16:  EM64L-G16RevA.03 25-Dec-2016

 -------------
 #p 6-31g* mp2
 -------------

 ------------------------------------------------------
 Input file generated by CHIRIPA (05-May-2021 14:57:21)
 ------------------------------------------------------
 Symbolic Z-matrix:
 Charge =  0 Multiplicity = 1

                         Standard orientation:
 ---------------------------------------------------------------------
 Center     Atomic      Atomic             Coordinates (Angstroms)
 Number     Number       Type             X           Y           Z
 ---------------------------------------------------------------------
      1          6           0        2.046225    1.955220    1.562428
      2          6           0        2.295376    0.677490    2.074140
      3          6           0        2.633711   -0.376020    1.219625
      4          6           0        2.714305   -0.115157   -0.147395
      5          6           0        2.471845    1.146849   -0.687620
      6          6           0        2.135098    2.185416    0.185608
      7          1           0        1.784016    2.767808    2.233504
      8          1           0        2.227091    0.495802    3.142958
      9          1           0        2.831690   -1.374927    1.588957
     10          1           0        2.547664    1.297253   -1.757690
     11          1           0        1.942139    3.176699   -0.214605
     12          7           0        3.071644   -1.222551   -1.061938
     13          8           0        3.136104   -0.966803   -2.262385
     14          8           0        3.280500   -2.325306   -0.560991
     15          6           0       -2.520342    2.309242   -0.839674
     16          6           0       -1.498557    1.790236   -0.037733
     17          6           0       -1.562901    0.474790    0.431319
     18          6           0       -2.668469   -0.297115    0.077522
     19          6           0       -3.702409    0.191300   -0.719791
     20          6           0       -3.617073    1.509528   -1.177547
     21          1           0       -2.462204    3.332192   -1.199658
     22          1           0       -0.645631    2.409004    0.226252
     23          1           0       -0.785908    0.047683    1.053638
     24          1           0       -4.540108   -0.449756   -0.966215
     25          1           0       -4.412077    1.909942   -1.800190
     26          7           0       -2.747699   -1.691191    0.568108
     27          8           0       -3.732292   -2.350777    0.242289
     28          8           0       -1.823704   -2.097885    1.269158
 ---------------------------------------------------------------------

 SCF Done:  E(RHF) =  -868.336479674     A.U. after   16 cycles
 E2 =    -0.2603160386D+01 EUMP2 =    -0.87093964005974D+03

 The electronic state is 1-A.
 Alpha  occ. eigenvalues --  -20.61080 -20.61050 -20.60780 -20.60770 -15.86134
 Alpha  occ. eigenvalues --  -15.85832 -11.31813 -11.31226 -11.28461 -11.28374
 Alpha  occ. eigenvalues --  -11.28293 -11.27799 -11.27758 -11.27588 -11.27583
 Alpha  occ. eigenvalues --  -11.27472 -11.26842 -11.26769  -1.60135  -1.59849
 Alpha  occ. eigenvalues --   -1.39679  -1.39403  -1.20065  -1.19405  -1.09410
 Alpha  occ. eigenvalues --   -1.08810  -1.05496  -1.04805  -0.96163  -0.95636
 Alpha  occ. eigenvalues --   -0.86888  -0.86212  -0.82976  -0.82465  -0.77958
 Alpha  occ. eigenvalues --   -0.77503  -0.72348  -0.72053  -0.71461  -0.71169
 Alpha  occ. eigenvalues --   -0.71132  -0.70546  -0.65698  -0.65521  -0.65063
 Alpha  occ. eigenvalues --   -0.64816  -0.62798  -0.62206  -0.55991  -0.55405
 Alpha  occ. eigenvalues --   -0.53782  -0.53558  -0.53111  -0.52896  -0.49133
 Alpha  occ. eigenvalues --   -0.49078  -0.48811  -0.48802  -0.45014  -0.44801
 Alpha  occ. eigenvalues --   -0.38082  -0.37463  -0.37142  -0.36286
 Alpha virt. eigenvalues --    0.04515   0.05066   0.10388   0.11214   0.15883
 Alpha virt. eigenvalues --    0.16580   0.20144   0.21839   0.26066   0.27369
 Alpha virt. eigenvalues --    0.27925   0.28350   0.30287   0.31269   0.31952

 Mulliken charges:
               1
     1  C   -0.177765
     2  C   -0.222457
     3  C   -0.168212
     4  C    0.159148
     5  C   -0.166862
     6  C   -0.228774
     7  H    0.227463
     8  H    0.229992
     9  H    0.283825
    10  H    0.278176
    11  H    0.221734
    12  N    0.488397
    13  O   -0.459657
    14  O   -0.453910
    15  C   -0.172460
    16  C   -0.219124
    17  C   -0.176073
    18  C    0.159447
    19  C   -0.170318
    20  C   -0.218194
    21  H    0.222471
    22  H    0.219221
    23  H    0.276482
    24  H    0.276200
    25  H    0.223367
    26  N    0.488330
    27  O   -0.459276
    28  O   -0.461169
 Sum of Mulliken charges =  -0.00000

 Dipole moment (field-independent basis, Debye):
    X=             -0.6843    Y=              8.4933    Z=              1.5034  Tot=              8.6524
 Quadrupole moment (field-independent basis, Debye-Ang):
   XX=           -109.5262   YY=           -107.9922   ZZ=           -102.5212
   XY=             -2.3725   XZ=             16.5872   YZ=             -2.6124

 Normal termination of Gaussian 16 at Thu May  6 00:09:20 2021.
