 Gaussian 16, Revision A.03,
 Gaussian 16:  EM64L-G16RevA.03 25-Dec-2016

 -------------
 #p 6-31g* mp2
 -------------

 ------------------------------------------------------
 Input file generated by CHIRIPA (05-May-2021 14:55:22)
 ------------------------------------------------------
 Symbolic Z-matrix:
 Charge =  0 Multiplicity = 1

                         Standard orientation:
 ---------------------------------------------------------------------
 Center     Atomic      Atomic             Coordinates (Angstroms)
 Number     Number       Type             X           Y           Z
 ---------------------------------------------------------------------
      1          6           0       -5.127770    0.857852    0.736217
      2          6           0       -5.069107    0.151920   -0.469909
      3          6           0       -3.910966   -0.543509   -0.829958
      4          6           0       -2.825239   -0.511530    0.043806
      5          6           0       -2.852916    0.182623    1.252391
      6          6           0       -4.021438    0.870927    1.592009
      7          1           0       -6.031475    1.395310    1.007977
      8          1           0       -5.926769    0.140012   -1.136481
      9          1           0       -3.838398   -1.098123   -1.757620
     10          1           0       -1.981836    0.176023    1.896281
     11          1           0       -4.064151    1.418314    2.529339
     12          7           0       -1.593672   -1.243978   -0.326547
     13          8           0       -0.650754   -1.200210    0.460617
     14          8           0       -1.594607   -1.847970   -1.396982
     15          6           0        4.222272   -0.132198    0.118047
     16          6           0        5.718627    0.055205    0.370604
     17          6           0        6.397136   -1.218808    0.874896
     18          1           0        3.738765   -0.463681    1.047178
     19          1           0        4.079292   -0.939211   -0.613856
     20          1           0        5.858800    0.862558    1.100774
     21          1           0        6.198598    0.386465   -0.559187
     22          1           0        6.286798   -2.028360    0.146162
     23          1           0        5.945071   -1.549562    1.815556
     24          1           0        7.466299   -1.062342    1.048879
     25          6           0        3.529961    1.132680   -0.386450
     26          6           0        2.033606    0.945277   -0.639008
     27          6           0        1.355097    2.219291   -1.143300
     28          1           0        3.672941    1.939693    0.345453
     29          1           0        4.013469    1.464163   -1.315581
     30          1           0        1.553637    0.614017    0.290784
     31          1           0        1.893434    0.137924   -1.369178
     32          1           0        1.807163    2.550043   -2.083959
     33          1           0        1.465435    3.028842   -0.414566
     34          1           0        0.285935    2.062825   -1.317282
 ---------------------------------------------------------------------

 SCF Done:  E(RHF) =  -669.535898767     A.U. after   15 cycles
 E2 =    -0.2091404870D+01 EUMP2 =    -0.67162730363675D+03

 The electronic state is 1-A.
 Alpha  occ. eigenvalues --  -20.60914 -20.60891 -15.85934 -11.31274 -11.27840
 Alpha  occ. eigenvalues --  -11.27833 -11.27575 -11.26847 -11.26837 -11.20885
 Alpha  occ. eigenvalues --  -11.20485 -11.20431 -11.20424 -11.20345 -11.20286
 Alpha  occ. eigenvalues --   -1.59962  -1.39519  -1.19442  -1.08843  -1.07516
 Alpha  occ. eigenvalues --   -1.04840  -1.02668  -0.95683  -0.95176  -0.86241
 Alpha  occ. eigenvalues --   -0.86193  -0.82519  -0.78707  -0.77576  -0.77272
 Alpha  occ. eigenvalues --   -0.72157  -0.71275  -0.70551  -0.65098  -0.64843
 Alpha  occ. eigenvalues --   -0.64154  -0.62189  -0.60070  -0.58534  -0.56762
 Alpha  occ. eigenvalues --   -0.55343  -0.54483  -0.53171  -0.52933  -0.51898
 Alpha  occ. eigenvalues --   -0.51588  -0.49127  -0.48931  -0.48912  -0.47039
 Alpha  occ. eigenvalues --   -0.45759  -0.45132  -0.44776  -0.44499  -0.42922
 Alpha  occ. eigenvalues --   -0.37419  -0.36441
 Alpha virt. eigenvalues --    0.04940   0.11209   0.16409   0.21312   0.23703
 Alpha virt. eigenvalues --    0.24979   0.27200   0.27553   0.28009   0.28599
 Alpha virt. eigenvalues --    0.28769   0.30853   0.32050   0.32290   0.32440

 Mulliken charges:
               1
     1  C   -0.170617
     2  C   -0.218504
     3  C   -0.170887
     4  C    0.158087
     5  C   -0.170568
     6  C   -0.218427
     7  H    0.225952
     8  H    0.223779
     9  H    0.275820
    10  H    0.275328
    11  H    0.223765
    12  N    0.489061
    13  O   -0.459398
    14  O   -0.459684
    15  C   -0.297529
    16  C   -0.299040
    17  C   -0.475110
    18  H    0.152189
    19  H    0.152878
    20  H    0.149068
    21  H    0.150034
    22  H    0.155840
    23  H    0.154944
    24  H    0.157307
    25  C   -0.298728
    26  C   -0.303009
    27  C   -0.474694
    28  H    0.144082
    29  H    0.145742
    30  H    0.165923
    31  H    0.160180
    32  H    0.152548
    33  H    0.149362
    34  H    0.154308
 Sum of Mulliken charges =  -0.00000

 Dipole moment (field-independent basis, Debye):
    X=             -4.5545    Y=              2.3957    Z=              1.3320  Tot=              5.3158
 Quadrupole moment (field-independent basis, Debye-Ang):
   XX=            -71.0149   YY=            -98.8251   ZZ=            -90.4783
   XY=             -4.4536   XZ=             -2.2923   YZ=              1.7510

 Normal termination of Gaussian 16 at Thu May  6 19:11:41 2021.
