 Gaussian 16, Revision A.03,
 Gaussian 16:  EM64L-G16RevA.03 25-Dec-2016

 -------------
 #p 6-31g* mp2
 -------------

 ------------------------------------------------------
 Input file generated by CHIRIPA (05-May-2021 14:55:21)
 ------------------------------------------------------
 Symbolic Z-matrix:
 Charge =  0 Multiplicity = 1

                         Standard orientation:
 ---------------------------------------------------------------------
 Center     Atomic      Atomic             Coordinates (Angstroms)
 Number     Number       Type             X           Y           Z
 ---------------------------------------------------------------------
      1          6           0       -3.567545   -1.696651   -1.344827
      2          6           0       -2.239529   -1.679804   -0.905951
      3          6           0       -1.733337   -0.573465   -0.217234
      4          6           0       -2.586840    0.503664    0.016467
      5          6           0       -3.914569    0.516816   -0.408094
      6          6           0       -4.399360   -0.600220   -1.094938
      7          1           0       -3.952455   -2.560237   -1.879112
      8          1           0       -1.591242   -2.529894   -1.098606
      9          1           0       -0.709286   -0.534006    0.133737
     10          1           0       -4.536698    1.379112   -0.201165
     11          1           0       -5.431139   -0.610535   -1.434600
     12          7           0       -2.062285    1.680558    0.744590
     13          8           0       -2.834583    2.616943    0.937918
     14          8           0       -0.888774    1.644337    1.108178
     15          6           0        3.764147   -0.221945   -0.527626
     16          6           0        4.665516    1.009791   -0.436272
     17          6           0        5.343334    1.346153   -1.764887
     18          1           0        4.360710   -1.080835   -0.864323
     19          1           0        2.999157   -0.051564   -1.297791
     20          1           0        5.427731    0.837686    0.334458
     21          1           0        4.066779    1.865804   -0.099569
     22          1           0        4.595526    1.544214   -2.539585
     23          1           0        5.964211    0.510253   -2.103092
     24          1           0        5.982903    2.229931   -1.676865
     25          6           0        3.079483   -0.570880    0.792679
     26          6           0        2.178114   -1.802616    0.701325
     27          6           0        1.500297   -2.138979    2.029940
     28          1           0        3.844473   -0.741261    1.562845
     29          1           0        2.482919    0.288010    1.129377
     30          1           0        2.776851   -2.658630    0.364623
     31          1           0        1.415899   -1.630511   -0.069405
     32          1           0        0.879419   -1.303078    2.368145
     33          1           0        2.248103   -2.337039    2.804639
     34          1           0        0.860727   -3.022756    1.941919
 ---------------------------------------------------------------------

 SCF Done:  E(RHF) =  -669.535838740     A.U. after   15 cycles
 E2 =    -0.2091947238D+01 EUMP2 =    -0.67162778597847D+03

 The electronic state is 1-A.
 Alpha  occ. eigenvalues --  -20.60848 -20.60840 -15.85892 -11.31197 -11.27771
 Alpha  occ. eigenvalues --  -11.27732 -11.27509 -11.26780 -11.26760 -11.21947
 Alpha  occ. eigenvalues --  -11.21374 -11.21294 -11.21258 -11.21234 -11.20884
 Alpha  occ. eigenvalues --   -1.59914  -1.39470  -1.19371  -1.08779  -1.08400
 Alpha  occ. eigenvalues --   -1.04769  -1.03550  -0.95965  -0.95620  -0.86983
 Alpha  occ. eigenvalues --   -0.86170  -0.82457  -0.79626  -0.78180  -0.77511
 Alpha  occ. eigenvalues --   -0.72115  -0.71232  -0.70499  -0.65129  -0.65024
 Alpha  occ. eigenvalues --   -0.64708  -0.62193  -0.60862  -0.59354  -0.57575
 Alpha  occ. eigenvalues --   -0.55346  -0.55155  -0.53101  -0.52851  -0.52697
 Alpha  occ. eigenvalues --   -0.52375  -0.49907  -0.48874  -0.48862  -0.47925
 Alpha  occ. eigenvalues --   -0.46662  -0.45732  -0.45602  -0.44885  -0.43770
 Alpha  occ. eigenvalues --   -0.37355  -0.36365
 Alpha virt. eigenvalues --    0.05009   0.11268   0.16514   0.19430   0.22975
 Alpha virt. eigenvalues --    0.24052   0.26032   0.26809   0.27782   0.28212
 Alpha virt. eigenvalues --    0.29389   0.30151   0.31512   0.31697   0.32313

 Mulliken charges:
               1
     1  C   -0.170468
     2  C   -0.222176
     3  C   -0.180454
     4  C    0.159071
     5  C   -0.170059
     6  C   -0.219059
     7  H    0.225715
     8  H    0.224249
     9  H    0.289069
    10  H    0.275510
    11  H    0.223519
    12  N    0.488107
    13  O   -0.459563
    14  O   -0.462951
    15  C   -0.297631
    16  C   -0.300944
    17  C   -0.475761
    18  H    0.147174
    19  H    0.147977
    20  H    0.151570
    21  H    0.158334
    22  H    0.155097
    23  H    0.153396
    24  H    0.160964
    25  C   -0.303789
    26  C   -0.301866
    27  C   -0.482382
    28  H    0.150568
    29  H    0.165723
    30  H    0.153259
    31  H    0.137463
    32  H    0.165669
    33  H    0.159633
    34  H    0.155035
 Sum of Mulliken charges =  -0.00000

 Dipole moment (field-independent basis, Debye):
    X=             -1.8004    Y=             -4.0207    Z=             -2.4535  Tot=              5.0425
 Quadrupole moment (field-independent basis, Debye-Ang):
   XX=            -80.7527   YY=            -98.4550   ZZ=            -96.2050
   XY=              7.2274   XZ=              8.2210   YZ=             -1.3107

 Normal termination of Gaussian 16 at Thu May  6 19:08:36 2021.
