 Gaussian 16, Revision A.03,
 Gaussian 16:  EM64L-G16RevA.03 25-Dec-2016

 -------------
 #p 6-31g* mp2
 -------------

 ------------------------------------------------------
 Input file generated by CHIRIPA (05-May-2021 14:57:24)
 ------------------------------------------------------
 Symbolic Z-matrix:
 Charge =  0 Multiplicity = 1

                         Standard orientation:
 ---------------------------------------------------------------------
 Center     Atomic      Atomic             Coordinates (Angstroms)
 Number     Number       Type             X           Y           Z
 ---------------------------------------------------------------------
      1          6           0        1.485986    0.137029    1.929713
      2          6           0        2.471226    1.116284    1.765749
      3          6           0        3.472277    0.961935    0.802099
      4          6           0        3.457783   -0.189291    0.016124
      5          6           0        2.489814   -1.182724    0.155476
      6          6           0        1.498403   -1.007332    1.125471
      7          1           0        0.712090    0.265104    2.680764
      8          1           0        2.464067    2.006033    2.388918
      9          1           0        4.247060    1.704356    0.653980
     10          1           0        2.523132   -2.058880   -0.480651
     11          1           0        0.734516   -1.769478    1.250586
     12          7           0        4.512448   -0.363832   -1.007408
     13          8           0        4.477574   -1.387173   -1.687256
     14          8           0        5.353998    0.526010   -1.110423
     15          6           0       -2.213733    2.430899   -0.441588
     16          6           0       -1.506771    1.388549    0.166880
     17          6           0       -2.089821    0.126481    0.314477
     18          6           0       -3.387426   -0.058966   -0.159990
     19          6           0       -4.117485    0.959576   -0.770626
     20          6           0       -3.514539    2.213469   -0.907577
     21          1           0       -1.753078    3.408129   -0.552110
     22          1           0       -0.496402    1.554524    0.529715
     23          1           0       -1.565189   -0.698099    0.781646
     24          1           0       -5.123133    0.763733   -1.122387
     25          1           0       -4.065951    3.021125   -1.380528
     26          7           0       -4.015207   -1.390735   -0.009370
     27          8           0       -5.159698   -1.528457   -0.435762
     28          8           0       -3.350883   -2.271634    0.532225
 ---------------------------------------------------------------------

 SCF Done:  E(RHF) =  -868.336889784     A.U. after   16 cycles
 E2 =    -0.2602332072D+01 EUMP2 =    -0.87093922185633D+03

 The electronic state is 1-A.
 Alpha  occ. eigenvalues --  -20.61347 -20.61335 -20.61298 -20.61270 -15.86403
 Alpha  occ. eigenvalues --  -15.86336 -11.31981 -11.31677 -11.28589 -11.28529
 Alpha  occ. eigenvalues --  -11.28386 -11.28276 -11.28182 -11.27902 -11.27678
 Alpha  occ. eigenvalues --  -11.27607 -11.27196 -11.27126  -1.60415  -1.60357
 Alpha  occ. eigenvalues --   -1.39961  -1.39916  -1.20201  -1.19818  -1.09585
 Alpha  occ. eigenvalues --   -1.09209  -1.05610  -1.05216  -0.96361  -0.96063
 Alpha  occ. eigenvalues --   -0.87019  -0.86611  -0.83171  -0.82890  -0.78178
 Alpha  occ. eigenvalues --   -0.77955  -0.72620  -0.72554  -0.71741  -0.71677
 Alpha  occ. eigenvalues --   -0.71325  -0.70934  -0.65849  -0.65653  -0.65456
 Alpha  occ. eigenvalues --   -0.65194  -0.62972  -0.62540  -0.56139  -0.55728
 Alpha  occ. eigenvalues --   -0.54033  -0.53688  -0.53533  -0.53154  -0.49393
 Alpha  occ. eigenvalues --   -0.49358  -0.49324  -0.49296  -0.45327  -0.45318
 Alpha  occ. eigenvalues --   -0.38210  -0.37782  -0.37252  -0.36773
 Alpha virt. eigenvalues --    0.04301   0.04585   0.10250   0.10832   0.15642
 Alpha virt. eigenvalues --    0.16129   0.19307   0.21950   0.24957   0.26969
 Alpha virt. eigenvalues --    0.27819   0.29302   0.29920   0.30959   0.31368

 Mulliken charges:
               1
     1  C   -0.186037
     2  C   -0.222104
     3  C   -0.170122
     4  C    0.159469
     5  C   -0.168883
     6  C   -0.223959
     7  H    0.229957
     8  H    0.225586
     9  H    0.278098
    10  H    0.281533
    11  H    0.233265
    12  N    0.487849
    13  O   -0.456519
    14  O   -0.459001
    15  C   -0.171637
    16  C   -0.224225
    17  C   -0.176370
    18  C    0.160079
    19  C   -0.170532
    20  C   -0.217819
    21  H    0.226868
    22  H    0.229948
    23  H    0.266189
    24  H    0.276914
    25  H    0.225213
    26  N    0.488384
    27  O   -0.457326
    28  O   -0.464815
 Sum of Mulliken charges =  -0.00000

 Dipole moment (field-independent basis, Debye):
    X=             -1.2822    Y=              5.2709    Z=              2.9410  Tot=              6.1706
 Quadrupole moment (field-independent basis, Debye-Ang):
   XX=           -140.8763   YY=           -101.6591   ZZ=           -104.4780
   XY=            -13.2744   XZ=             16.8299   YZ=             -0.9894

 Normal termination of Gaussian 16 at Fri May  7 08:00:50 2021.
