 Gaussian 16, Revision A.03,
 Gaussian 16:  EM64L-G16RevA.03 25-Dec-2016

 -------------
 #p 6-31g* mp2
 -------------

 ------------------------------------------------------
 Input file generated by CHIRIPA (05-May-2021 14:53:18)
 ------------------------------------------------------
 Symbolic Z-matrix:
 Charge =  0 Multiplicity = 1

                         Standard orientation:
 ---------------------------------------------------------------------
 Center     Atomic      Atomic             Coordinates (Angstroms)
 Number     Number       Type             X           Y           Z
 ---------------------------------------------------------------------
      1          6           0       -3.027781    0.385496   -0.666036
      2          6           0       -2.673415    1.854738   -0.434223
      3          6           0       -1.373575    2.265680   -1.126564
      4          1           0       -2.203516   -0.245152   -0.305736
      5          1           0       -3.112658    0.202011   -1.746093
      6          1           0       -2.590592    2.035715    0.645131
      7          1           0       -3.498702    2.481953   -0.794941
      8          1           0       -1.448402    2.113478   -2.208154
      9          1           0       -0.535132    1.664705   -0.759900
     10          1           0       -1.139291    3.319708   -0.947690
     11          6           0       -4.324682   -0.040390    0.019821
     12          6           0       -4.679048   -1.509632   -0.211993
     13          6           0       -5.978888   -1.920574    0.480349
     14          1           0       -4.239805    0.143095    1.099878
     15          1           0       -5.148947    0.590258   -0.340479
     16          1           0       -3.853761   -2.136847    0.148726
     17          1           0       -4.761871   -1.690609   -1.291346
     18          1           0       -6.817332   -1.319599    0.113684
     19          1           0       -5.904061   -1.768372    1.561938
     20          1           0       -6.213172   -2.974602    0.301474
     21          6           0        4.116513   -1.395945   -1.543897
     22          6           0        3.975984   -1.951585   -0.267951
     23          6           0        3.288478   -1.261781    0.735070
     24          6           0        2.751746   -0.012885    0.426090
     25          6           0        2.874956    0.567224   -0.835490
     26          6           0        3.566521   -0.140527   -1.823101
     27          1           0        4.652160   -1.938772   -2.317082
     28          1           0        4.402075   -2.926383   -0.048268
     29          1           0        3.164859   -1.668547    1.731403
     30          1           0        2.439253    1.540809   -1.024462
     31          1           0        3.674103    0.293443   -2.813122
     32          7           0        2.021767    0.726880    1.479787
     33          8           0        1.558154    1.825588    1.182231
     34          8           0        1.927043    0.193991    2.583278
 ---------------------------------------------------------------------

 SCF Done:  E(RHF) =  -669.536067938     A.U. after   15 cycles
 E2 =    -0.2091314054D+01 EUMP2 =    -0.67162738199255D+03

 The electronic state is 1-A.
 Alpha  occ. eigenvalues --  -20.60925 -20.60918 -15.85944 -11.31263 -11.27827
 Alpha  occ. eigenvalues --  -11.27812 -11.27562 -11.26835 -11.26821 -11.21272
 Alpha  occ. eigenvalues --  -11.20955 -11.20924 -11.20859 -11.20780 -11.20314
 Alpha  occ. eigenvalues --   -1.59985  -1.39540  -1.19432  -1.08839  -1.07944
 Alpha  occ. eigenvalues --   -1.04825  -1.03018  -0.95685  -0.95470  -0.86500
 Alpha  occ. eigenvalues --   -0.86226  -0.82512  -0.79102  -0.77767  -0.77558
 Alpha  occ. eigenvalues --   -0.72170  -0.71302  -0.70538  -0.65088  -0.64829
 Alpha  occ. eigenvalues --   -0.64565  -0.62174  -0.60399  -0.58855  -0.57088
 Alpha  occ. eigenvalues --   -0.55332  -0.54755  -0.53158  -0.52918  -0.52163
 Alpha  occ. eigenvalues --   -0.51917  -0.49462  -0.48927  -0.48901  -0.47424
 Alpha  occ. eigenvalues --   -0.46151  -0.45342  -0.45232  -0.44800  -0.43285
 Alpha  occ. eigenvalues --   -0.37412  -0.36423
 Alpha virt. eigenvalues --    0.04931   0.11174   0.16415   0.21280   0.23354
 Alpha virt. eigenvalues --    0.24773   0.26693   0.27227   0.27749   0.28030
 Alpha virt. eigenvalues --    0.28891   0.30593   0.31627   0.32165   0.32529

 Mulliken charges:
               1
     1  C   -0.297698
     2  C   -0.299809
     3  C   -0.478237
     4  H    0.149060
     5  H    0.145639
     6  H    0.159877
     7  H    0.148499
     8  H    0.145081
     9  H    0.162370
    10  H    0.162393
    11  C   -0.298398
    12  C   -0.299200
    13  C   -0.475534
    14  H    0.152286
    15  H    0.148512
    16  H    0.151503
    17  H    0.149880
    18  H    0.154605
    19  H    0.156181
    20  H    0.158571
    21  C   -0.170550
    22  C   -0.218509
    23  C   -0.170987
    24  C    0.157820
    25  C   -0.171881
    26  C   -0.218625
    27  H    0.225934
    28  H    0.223703
    29  H    0.275606
    30  H    0.278055
    31  H    0.224131
    32  N    0.487554
    33  O   -0.458467
    34  O   -0.459365
 Sum of Mulliken charges =  -0.00000

 Dipole moment (field-independent basis, Debye):
    X=              2.7317    Y=             -2.5767    Z=             -3.5847  Tot=              5.1915
 Quadrupole moment (field-independent basis, Debye-Ang):
   XX=            -82.0714   YY=            -92.3558   ZZ=            -95.9158
   XY=             -8.7845   XZ=             -8.2265   YZ=             -3.6193

 Normal termination of Gaussian 16 at Thu May  6 12:19:27 2021.
