 Gaussian 16, Revision A.03,
 Gaussian 16:  EM64L-G16RevA.03 25-Dec-2016

 -------------
 #p 6-31g* mp2
 -------------

 ------------------------------------------------------
 Input file generated by CHIRIPA (05-May-2021 14:51:14)
 ------------------------------------------------------
 Symbolic Z-matrix:
 Charge =  0 Multiplicity = 1

                         Standard orientation:
 ---------------------------------------------------------------------
 Center     Atomic      Atomic             Coordinates (Angstroms)
 Number     Number       Type             X           Y           Z
 ---------------------------------------------------------------------
      1          6           0       -2.592633    0.929847    0.185456
      2          6           0       -1.675884    1.589795    1.216002
      3          6           0       -2.211951    2.934157    1.709069
      4          1           0       -2.723477    1.609287   -0.667882
      5          1           0       -3.588400    0.788532    0.628032
      6          1           0       -0.681756    1.728561    0.772076
      7          1           0       -1.547052    0.908625    2.066899
      8          1           0       -3.193974    2.809225    2.176640
      9          1           0       -2.323761    3.633820    0.874460
     10          1           0       -1.541120    3.388344    2.444977
     11          6           0       -2.070209   -0.414908   -0.316976
     12          6           0       -2.986958   -1.074856   -1.347522
     13          6           0       -2.450891   -2.419218   -1.840589
     14          1           0       -1.074442   -0.273593   -0.759552
     15          1           0       -1.939365   -1.094348    0.536362
     16          1           0       -3.115789   -0.393686   -2.198419
     17          1           0       -3.981086   -1.213622   -0.903596
     18          1           0       -2.339080   -3.118881   -1.005980
     19          1           0       -1.468868   -2.294286   -2.308160
     20          1           0       -3.121721   -2.873405   -2.576497
     21          6           0        2.297819    0.054075   -0.630834
     22          6           0        3.014610    1.401217   -0.727805
     23          6           0        2.938609    2.011878   -2.127488
     24          1           0        2.736543   -0.640830   -1.359926
     25          1           0        1.245335    0.185110   -0.918064
     26          1           0        4.065101    1.267947   -0.439146
     27          1           0        2.574256    2.092935    0.001736
     28          1           0        1.896395    2.173480   -2.421215
     29          1           0        3.395710    1.343805   -2.864602
     30          1           0        3.457422    2.974428   -2.174264
     31          6           0        2.365022   -0.569013    0.762354
     32          6           0        1.648232   -1.916156    0.859325
     33          6           0        1.724234   -2.526817    2.259008
     34          1           0        3.417507   -0.700051    1.049584
     35          1           0        1.926298    0.125890    1.491446
     36          1           0        2.088586   -2.607875    0.129784
     37          1           0        0.597741   -1.782887    0.570666
     38          1           0        1.267131   -1.858744    2.996122
     39          1           0        2.766447   -2.688420    2.552736
     40          1           0        1.205420   -3.489368    2.305784
 ---------------------------------------------------------------------

 SCF Done:  E(RHF) =  -470.732755381     A.U. after   11 cycles
 E2 =    -0.1584982573D+01 EUMP2 =    -0.47231773795387D+03

 The electronic state is 1-A.
 Alpha  occ. eigenvalues --  -11.21711 -11.21661 -11.21615 -11.21491 -11.21451
 Alpha  occ. eigenvalues --  -11.21429 -11.21374 -11.21294 -11.21150 -11.21103
 Alpha  occ. eigenvalues --  -11.21102 -11.21009  -1.08545  -1.08376  -1.03606
 Alpha  occ. eigenvalues --   -1.03491  -0.96054  -0.95953  -0.87069  -0.86968
 Alpha  occ. eigenvalues --   -0.79691  -0.79547  -0.78504  -0.78072  -0.65302
 Alpha  occ. eigenvalues --   -0.64899  -0.61004  -0.60895  -0.59433  -0.59309
 Alpha  occ. eigenvalues --   -0.57676  -0.57557  -0.55393  -0.55201  -0.52744
 Alpha  occ. eigenvalues --   -0.52654  -0.52480  -0.52379  -0.50018  -0.49885
 Alpha  occ. eigenvalues --   -0.48061  -0.47858  -0.46743  -0.46642  -0.46479
 Alpha  occ. eigenvalues --   -0.45734  -0.45701  -0.44956  -0.43861  -0.43742
 Alpha virt. eigenvalues --    0.19761   0.22875   0.23602   0.23970   0.25365
 Alpha virt. eigenvalues --    0.26445   0.27137   0.27806   0.28156   0.30564
 Alpha virt. eigenvalues --    0.31033   0.31361   0.31599   0.31988   0.32082

 Mulliken charges:
               1
     1  C   -0.297334
     2  C   -0.303116
     3  C   -0.475675
     4  H    0.149630
     5  H    0.150045
     6  H    0.153884
     7  H    0.152029
     8  H    0.155658
     9  H    0.155480
    10  H    0.160476
    11  C   -0.310398
    12  C   -0.298616
    13  C   -0.476668
    14  H    0.159114
    15  H    0.151571
    16  H    0.151935
    17  H    0.152078
    18  H    0.155436
    19  H    0.156094
    20  H    0.160617
    21  C   -0.306527
    22  C   -0.299941
    23  C   -0.475522
    24  H    0.149625
    25  H    0.155865
    26  H    0.152353
    27  H    0.152053
    28  H    0.154176
    29  H    0.155355
    30  H    0.160454
    31  C   -0.298498
    32  C   -0.307533
    33  C   -0.475540
    34  H    0.149155
    35  H    0.150822
    36  H    0.150913
    37  H    0.161529
    38  H    0.154582
    39  H    0.154861
    40  H    0.159578
 Sum of Mulliken charges =  -0.00000

 Dipole moment (field-independent basis, Debye):
    X=             -0.0589    Y=              0.0090    Z=             -0.0155  Tot=              0.0616
 Quadrupole moment (field-independent basis, Debye-Ang):
   XX=            -83.8403   YY=            -85.6511   ZZ=            -85.2947
   XY=              0.1040   XZ=             -0.4914   YZ=             -0.0628

 Normal termination of Gaussian 16 at Wed May  5 15:23:01 2021.
