 Gaussian 16, Revision A.03,
 Gaussian 16:  EM64L-G16RevA.03 25-Dec-2016

 -------------
 #p 6-31g* mp2
 -------------

 ------------------------------------------------------
 Input file generated by CHIRIPA (05-May-2021 14:57:23)
 ------------------------------------------------------
 Symbolic Z-matrix:
 Charge =  0 Multiplicity = 1

                         Standard orientation:
 ---------------------------------------------------------------------
 Center     Atomic      Atomic             Coordinates (Angstroms)
 Number     Number       Type             X           Y           Z
 ---------------------------------------------------------------------
      1          6           0       -3.813432    1.544771    1.283785
      2          6           0       -3.636329    0.278827    1.851711
      3          6           0       -3.001279   -0.738917    1.133757
      4          6           0       -2.553728   -0.454696   -0.155509
      5          6           0       -2.715315    0.796380   -0.748795
      6          6           0       -3.353171    1.799059   -0.012371
      7          1           0       -4.307844    2.329528    1.848683
      8          1           0       -3.992755    0.078489    2.858125
      9          1           0       -2.851055   -1.727983    1.549207
     10          1           0       -2.349274    0.966004   -1.754111
     11          1           0       -3.489337    2.781264   -0.455968
     12          7           0       -1.879944   -1.524161   -0.925351
     13          8           0       -1.494717   -1.248365   -2.059447
     14          8           0       -1.749816   -2.617955   -0.380081
     15          6           0        3.303701   -1.980381    0.953535
     16          6           0        3.725771   -0.814225    1.600418
     17          6           0        3.377692    0.442697    1.096894
     18          6           0        2.603007    0.496809   -0.060787
     19          6           0        2.167147   -0.646940   -0.727987
     20          6           0        2.527105   -1.893170   -0.206558
     21          1           0        3.578711   -2.952635    1.351639
     22          1           0        4.328973   -0.878922    2.501532
     23          1           0        3.690909    1.361486    1.577664
     24          1           0        1.566765   -0.550501   -1.624457
     25          1           0        2.197901   -2.797147   -0.711034
     26          7           0        2.228224    1.821796   -0.603323
     27          8           0        1.544949    1.842499   -1.624766
     28          8           0        2.624838    2.814530    0.003153
 ---------------------------------------------------------------------

 SCF Done:  E(RHF) =  -868.340620658     A.U. after   16 cycles
 E2 =    -0.2599072139D+01 EUMP2 =    -0.87093969279685D+03

 The electronic state is 1-A.
 Alpha  occ. eigenvalues --  -20.61046 -20.61040 -20.60459 -20.60453 -15.86061
 Alpha  occ. eigenvalues --  -15.85501 -11.31097 -11.30647 -11.27693 -11.27562
 Alpha  occ. eigenvalues --  -11.27351 -11.27258 -11.27027 -11.26907 -11.26638
 Alpha  occ. eigenvalues --  -11.26526 -11.26251 -11.26033  -1.60115  -1.59541
 Alpha  occ. eigenvalues --   -1.39671  -1.39096  -1.19253  -1.18802  -1.08717
 Alpha  occ. eigenvalues --   -1.08247  -1.04600  -1.04146  -0.95599  -0.95111
 Alpha  occ. eigenvalues --   -0.86018  -0.85561  -0.82438  -0.81933  -0.77514
 Alpha  occ. eigenvalues --   -0.76998  -0.72294  -0.71730  -0.71422  -0.70861
 Alpha  occ. eigenvalues --   -0.70362  -0.69892  -0.64909  -0.64604  -0.64443
 Alpha  occ. eigenvalues --   -0.64126  -0.61943  -0.61462  -0.55136  -0.54682
 Alpha  occ. eigenvalues --   -0.52956  -0.52687  -0.52528  -0.52210  -0.49063
 Alpha  occ. eigenvalues --   -0.49033  -0.48486  -0.48466  -0.45139  -0.44551
 Alpha  occ. eigenvalues --   -0.37233  -0.36802  -0.36182  -0.35750
 Alpha virt. eigenvalues --    0.04957   0.05478   0.11469   0.11892   0.16493
 Alpha virt. eigenvalues --    0.17019   0.21598   0.22151   0.27563   0.28047
 Alpha virt. eigenvalues --    0.28462   0.29055   0.31173   0.31647   0.32582

 Mulliken charges:
               1
     1  C   -0.169761
     2  C   -0.219194
     3  C   -0.171222
     4  C    0.155558
     5  C   -0.167153
     6  C   -0.218006
     7  H    0.226305
     8  H    0.222261
     9  H    0.272823
    10  H    0.282186
    11  H    0.227647
    12  N    0.487894
    13  O   -0.462321
    14  O   -0.464524
    15  C   -0.171475
    16  C   -0.219458
    17  C   -0.172768
    18  C    0.156574
    19  C   -0.179769
    20  C   -0.218014
    21  H    0.224872
    22  H    0.220478
    23  H    0.272176
    24  H    0.288730
    25  H    0.234154
    26  N    0.487775
    27  O   -0.461527
    28  O   -0.464243
 Sum of Mulliken charges =  -0.00000

 Dipole moment (field-independent basis, Debye):
    X=             -1.2380    Y=             -0.9149    Z=              4.4693  Tot=              4.7270
 Quadrupole moment (field-independent basis, Debye-Ang):
   XX=            -86.1561   YY=           -110.7281   ZZ=           -100.7993
   XY=            -19.5497   XZ=             -0.2867   YZ=             -1.4143

 Normal termination of Gaussian 16 at Fri May  7 01:49:01 2021.
