 Gaussian 16, Revision A.03,
 Gaussian 16:  EM64L-G16RevA.03 25-Dec-2016

 -------------
 #p 6-31g* mp2
 -------------

 ------------------------------------------------------
 Input file generated by CHIRIPA (05-May-2021 14:57:21)
 ------------------------------------------------------
 Symbolic Z-matrix:
 Charge =  0 Multiplicity = 1

                         Standard orientation:
 ---------------------------------------------------------------------
 Center     Atomic      Atomic             Coordinates (Angstroms)
 Number     Number       Type             X           Y           Z
 ---------------------------------------------------------------------
      1          6           0        2.311271    2.353073    0.730845
      2          6           0        2.347573    1.906307   -0.594147
      3          6           0        2.580218    0.558304   -0.882787
      4          6           0        2.773316   -0.319468    0.182821
      5          6           0        2.742988    0.095083    1.513429
      6          6           0        2.508746    1.447631    1.778557
      7          1           0        2.129926    3.401999    0.945935
      8          1           0        2.194549    2.607233   -1.409825
      9          1           0        2.613477    0.185457   -1.899299
     10          1           0        2.899089   -0.627357    2.305344
     11          1           0        2.481093    1.791768    2.808533
     12          7           0        3.020452   -1.748944   -0.110303
     13          8           0        3.187566   -2.502234    0.846391
     14          8           0        3.042364   -2.089010   -1.291198
     15          6           0       -1.022263    1.488604   -1.442516
     16          6           0       -1.811194    2.058330   -0.437766
     17          6           0       -2.761973    1.289496    0.240070
     18          6           0       -2.897932   -0.051931   -0.114019
     19          6           0       -2.126899   -0.648423   -1.110512
     20          6           0       -1.182351    0.139426   -1.775096
     21          1           0       -0.286094    2.093239   -1.963928
     22          1           0       -1.689045    3.105861   -0.177378
     23          1           0       -3.385973    1.705092    1.021941
     24          1           0       -2.271606   -1.695377   -1.347925
     25          1           0       -0.571043   -0.305699   -2.554976
     26          7           0       -3.901182   -0.875926    0.596561
     27          8           0       -4.001591   -2.055426    0.265904
     28          8           0       -4.568121   -0.326670    1.470715
 ---------------------------------------------------------------------

 SCF Done:  E(RHF) =  -868.335429087     A.U. after   16 cycles
 E2 =    -0.2602822521D+01 EUMP2 =    -0.87093825160776D+03

 The electronic state is 1-A.
 Alpha  occ. eigenvalues --  -20.61356 -20.61320 -20.60834 -20.60816 -15.86399
 Alpha  occ. eigenvalues --  -15.85886 -11.31872 -11.31311 -11.28540 -11.28392
 Alpha  occ. eigenvalues --  -11.28243 -11.27963 -11.27877 -11.27766 -11.27612
 Alpha  occ. eigenvalues --  -11.27435 -11.27013 -11.26907  -1.60412  -1.59903
 Alpha  occ. eigenvalues --   -1.39965  -1.39454  -1.20065  -1.19523  -1.09447
 Alpha  occ. eigenvalues --   -1.08925  -1.05509  -1.04938  -0.96258  -0.95746
 Alpha  occ. eigenvalues --   -0.86912  -0.86348  -0.83118  -0.82561  -0.78137
 Alpha  occ. eigenvalues --   -0.77582  -0.72616  -0.72105  -0.71735  -0.71229
 Alpha  occ. eigenvalues --   -0.71193  -0.70729  -0.65734  -0.65546  -0.65186
 Alpha  occ. eigenvalues --   -0.64973  -0.62864  -0.62281  -0.56022  -0.55578
 Alpha  occ. eigenvalues --   -0.54014  -0.53590  -0.53044  -0.53014  -0.49384
 Alpha  occ. eigenvalues --   -0.49363  -0.48871  -0.48852  -0.45348  -0.44847
 Alpha  occ. eigenvalues --   -0.38241  -0.37857  -0.36635  -0.36388
 Alpha virt. eigenvalues --    0.04339   0.05004   0.10212   0.11355   0.15674
 Alpha virt. eigenvalues --    0.16647   0.18940   0.22191   0.25289   0.25910
 Alpha virt. eigenvalues --    0.28161   0.28793   0.29829   0.31380   0.32654

 Mulliken charges:
               1
     1  C   -0.169920
     2  C   -0.221120
     3  C   -0.169748
     4  C    0.161091
     5  C   -0.168601
     6  C   -0.216942
     7  H    0.224633
     8  H    0.216694
     9  H    0.271441
    10  H    0.279178
    11  H    0.226616
    12  N    0.488036
    13  O   -0.455737
    14  O   -0.462906
    15  C   -0.159907
    16  C   -0.219952
    17  C   -0.170734
    18  C    0.158000
    19  C   -0.169850
    20  C   -0.220988
    21  H    0.214064
    22  H    0.217603
    23  H    0.274866
    24  H    0.279731
    25  H    0.225845
    26  N    0.488026
    27  O   -0.457812
    28  O   -0.461608
 Sum of Mulliken charges =  -0.00000

 Dipole moment (field-independent basis, Debye):
    X=              2.7414    Y=              7.7060    Z=             -1.2641  Tot=              8.2762
 Quadrupole moment (field-independent basis, Debye-Ang):
   XX=           -131.2093   YY=           -106.1312   ZZ=            -98.0229
   XY=              4.5003   XZ=              9.6848   YZ=              2.1345

 Normal termination of Gaussian 16 at Thu May  6 08:04:50 2021.
