 Gaussian 16, Revision A.03,
 Gaussian 16:  EM64L-G16RevA.03 25-Dec-2016

 -------------
 #p 6-31g* mp2
 -------------

 ------------------------------------------------------
 Input file generated by CHIRIPA (05-May-2021 14:53:14)
 ------------------------------------------------------
 Symbolic Z-matrix:
 Charge =  0 Multiplicity = 1

                         Standard orientation:
 ---------------------------------------------------------------------
 Center     Atomic      Atomic             Coordinates (Angstroms)
 Number     Number       Type             X           Y           Z
 ---------------------------------------------------------------------
      1          6           0       -3.756387    0.990353   -0.239822
      2          6           0       -2.538662    1.849521    0.102174
      3          6           0       -2.830017    3.348116    0.017803
      4          1           0       -4.101959    1.241740   -1.251914
      5          1           0       -4.578853    1.243954    0.443282
      6          1           0       -1.718297    1.593394   -0.580479
      7          1           0       -2.195832    1.595923    1.113496
      8          1           0       -3.631014    3.624467    0.711081
      9          1           0       -3.150765    3.621923   -0.992519
     10          1           0       -1.945933    3.943586    0.266139
     11          6           0       -3.480862   -0.510122   -0.159911
     12          6           0       -4.698587   -1.369290   -0.501907
     13          6           0       -4.407232   -2.867885   -0.417536
     14          1           0       -2.658396   -0.763723   -0.843015
     15          1           0       -3.135290   -0.761510    0.852181
     16          1           0       -5.041416   -1.115692   -1.513229
     17          1           0       -5.518952   -1.113163    0.180746
     18          1           0       -4.086483   -3.141692    0.592786
     19          1           0       -3.606235   -3.144236   -1.110814
     20          1           0       -5.291316   -3.463355   -0.665872
     21          6           0        5.142365    0.035685   -0.821296
     22          6           0        4.672509   -1.217103   -0.413521
     23          6           0        3.391337   -1.352617    0.129418
     24          6           0        2.603214   -0.209176    0.250641
     25          6           0        3.042913    1.052669   -0.146477
     26          6           0        4.327504    1.164582   -0.686709
     27          1           0        6.138938    0.131788   -1.242012
     28          1           0        5.303144   -2.095548   -0.516852
     29          1           0        3.002504   -2.310429    0.453183
     30          1           0        2.391125    1.910130   -0.030931
     31          1           0        4.689770    2.138777   -1.002546
     32          7           0        1.245086   -0.340145    0.823993
     33          8           0        0.570284    0.682608    0.920203
     34          8           0        0.881101   -1.463072    1.166320
 ---------------------------------------------------------------------

 SCF Done:  E(RHF) =  -669.535452658     A.U. after   15 cycles
 E2 =    -0.2091627495D+01 EUMP2 =    -0.67162708015344D+03

 The electronic state is 1-A.
 Alpha  occ. eigenvalues --  -20.60926 -20.60914 -15.85949 -11.31292 -11.27858
 Alpha  occ. eigenvalues --  -11.27854 -11.27596 -11.26868 -11.26858 -11.20565
 Alpha  occ. eigenvalues --  -11.20133 -11.20102 -11.20012 -11.19951 -11.19879
 Alpha  occ. eigenvalues --   -1.59986  -1.39543  -1.19463  -1.08865  -1.07137
 Alpha  occ. eigenvalues --   -1.04861  -1.02308  -0.95704  -0.94817  -0.86261
 Alpha  occ. eigenvalues --   -0.85837  -0.82543  -0.78352  -0.77588  -0.76877
 Alpha  occ. eigenvalues --   -0.72162  -0.71301  -0.70570  -0.65117  -0.64863
 Alpha  occ. eigenvalues --   -0.63787  -0.62208  -0.59721  -0.58173  -0.56393
 Alpha  occ. eigenvalues --   -0.55364  -0.54131  -0.53193  -0.52953  -0.51549
 Alpha  occ. eigenvalues --   -0.51226  -0.48992  -0.48937  -0.48765  -0.46655
 Alpha  occ. eigenvalues --   -0.45409  -0.44997  -0.44333  -0.44274  -0.42555
 Alpha  occ. eigenvalues --   -0.37441  -0.36463
 Alpha virt. eigenvalues --    0.04925   0.11191   0.16407   0.21311   0.24053
 Alpha virt. eigenvalues --    0.25386   0.27229   0.27887   0.28118   0.28932
 Alpha virt. eigenvalues --    0.29135   0.30900   0.32246   0.32555   0.32966

 Mulliken charges:
               1
     1  C   -0.299411
     2  C   -0.295501
     3  C   -0.475867
     4  H    0.142403
     5  H    0.144519
     6  H    0.154066
     7  H    0.167928
     8  H    0.150981
     9  H    0.148380
    10  H    0.156331
    11  C   -0.295947
    12  C   -0.299078
    13  C   -0.474411
    14  H    0.148800
    15  H    0.159213
    16  H    0.147488
    17  H    0.149080
    18  H    0.157544
    19  H    0.153986
    20  H    0.155381
    21  C   -0.170666
    22  C   -0.218569
    23  C   -0.170692
    24  C    0.157663
    25  C   -0.171047
    26  C   -0.218515
    27  H    0.225981
    28  H    0.223810
    29  H    0.275884
    30  H    0.275688
    31  H    0.223842
    32  N    0.490496
    33  O   -0.460179
    34  O   -0.459581
 Sum of Mulliken charges =  -0.00000

 Dipole moment (field-independent basis, Debye):
    X=              5.1387    Y=              0.3641    Z=             -1.8563  Tot=              5.4758
 Quadrupole moment (field-independent basis, Debye-Ang):
   XX=            -71.7669   YY=            -92.1931   ZZ=            -95.6552
   XY=             -0.2553   XZ=             -4.9922   YZ=             -0.0603

 Normal termination of Gaussian 16 at Thu May  6 01:03:51 2021.
