 Gaussian 16, Revision A.03,
 Gaussian 16:  EM64L-G16RevA.03 25-Dec-2016

 -------------
 #p 6-31g* mp2
 -------------

 ------------------------------------------------------
 Input file generated by CHIRIPA (05-May-2021 14:57:24)
 ------------------------------------------------------
 Symbolic Z-matrix:
 Charge =  0 Multiplicity = 1

                         Standard orientation:
 ---------------------------------------------------------------------
 Center     Atomic      Atomic             Coordinates (Angstroms)
 Number     Number       Type             X           Y           Z
 ---------------------------------------------------------------------
      1          6           0       -1.453056    1.931303   -0.893913
      2          6           0       -2.748999    2.161037   -0.420338
      3          6           0       -3.584977    1.089866   -0.091275
      4          6           0       -3.090376   -0.203918   -0.248700
      5          6           0       -1.804039   -0.465203   -0.718121
      6          6           0       -0.985536    0.621226   -1.041034
      7          1           0       -0.810435    2.769341   -1.147148
      8          1           0       -3.114745    3.177398   -0.305079
      9          1           0       -4.592527    1.239134    0.277480
     10          1           0       -1.467513   -1.489548   -0.822449
     11          1           0        0.020463    0.439816   -1.408595
     12          7           0       -3.966139   -1.345995    0.096409
     13          8           0       -3.506700   -2.476377   -0.051206
     14          8           0       -5.095418   -1.089148    0.507985
     15          6           0        1.318441    1.599040    1.405508
     16          6           0        2.152666    2.054141    0.379120
     17          6           0        3.058286    1.185694   -0.237482
     18          6           0        3.103390   -0.137383    0.199240
     19          6           0        2.285371   -0.620800    1.219261
     20          6           0        1.387335    0.265373    1.821570
     21          1           0        0.617879    2.280556    1.878947
     22          1           0        2.101339    3.089358    0.053948
     23          1           0        3.715709    1.511556   -1.034367
     24          1           0        2.359475   -1.658301    1.521782
     25          1           0        0.740681   -0.090838    2.618437
     26          7           0        4.058116   -1.066152   -0.445962
     27          8           0        4.078487   -2.227101   -0.042951
     28          8           0        4.767980   -0.615585   -1.342466
 ---------------------------------------------------------------------

 SCF Done:  E(RHF) =  -868.336324810     A.U. after   16 cycles
 E2 =    -0.2603654583D+01 EUMP2 =    -0.87093997939360D+03

 The electronic state is 1-A.
 Alpha  occ. eigenvalues --  -20.61432 -20.61418 -20.61151 -20.61142 -15.86490
 Alpha  occ. eigenvalues --  -15.86200 -11.32014 -11.31635 -11.28658 -11.28539
 Alpha  occ. eigenvalues --  -11.28293 -11.28184 -11.28090 -11.27937 -11.27649
 Alpha  occ. eigenvalues --  -11.27474 -11.27286 -11.27112  -1.60506  -1.60225
 Alpha  occ. eigenvalues --   -1.40053  -1.39775  -1.20215  -1.19791  -1.09568
 Alpha  occ. eigenvalues --   -1.09177  -1.05609  -1.05183  -0.96362  -0.96009
 Alpha  occ. eigenvalues --   -0.86986  -0.86583  -0.83172  -0.82829  -0.78209
 Alpha  occ. eigenvalues --   -0.77863  -0.72692  -0.72413  -0.71847  -0.71555
 Alpha  occ. eigenvalues --   -0.71266  -0.70912  -0.65820  -0.65575  -0.65435
 Alpha  occ. eigenvalues --   -0.65192  -0.62927  -0.62530  -0.56058  -0.55731
 Alpha  occ. eigenvalues --   -0.54383  -0.53662  -0.53389  -0.52977  -0.49468
 Alpha  occ. eigenvalues --   -0.49444  -0.49176  -0.49168  -0.45423  -0.45165
 Alpha  occ. eigenvalues --   -0.38769  -0.37556  -0.37209  -0.36415
 Alpha virt. eigenvalues --    0.04122   0.04775   0.10310   0.10871   0.15627
 Alpha virt. eigenvalues --    0.16291   0.19963   0.21485   0.25752   0.26836
 Alpha virt. eigenvalues --    0.27442   0.28517   0.29721   0.31033   0.32050

 Mulliken charges:
               1
     1  C   -0.176926
     2  C   -0.220638
     3  C   -0.173050
     4  C    0.158171
     5  C   -0.175738
     6  C   -0.211364
     7  H    0.220032
     8  H    0.222499
     9  H    0.275968
    10  H    0.277614
    11  H    0.230152
    12  N    0.487626
    13  O   -0.458681
    14  O   -0.459929
    15  C   -0.163721
    16  C   -0.228464
    17  C   -0.176176
    18  C    0.155581
    19  C   -0.173633
    20  C   -0.216729
    21  H    0.227777
    22  H    0.220955
    23  H    0.277322
    24  H    0.280184
    25  H    0.229542
    26  N    0.487879
    27  O   -0.456749
    28  O   -0.459502
 Sum of Mulliken charges =  -0.00000

 Dipole moment (field-independent basis, Debye):
    X=             -0.1729    Y=              7.1111    Z=              1.1907  Tot=              7.2122
 Quadrupole moment (field-independent basis, Debye-Ang):
   XX=           -142.6789   YY=           -103.5061   ZZ=           -102.1819
   XY=             -3.8638   XZ=              7.4363   YZ=             -1.9295

 Normal termination of Gaussian 16 at Thu May  6 18:03:19 2021.
