 Gaussian 16, Revision A.03,
 Gaussian 16:  EM64L-G16RevA.03 25-Dec-2016

 -------------
 #p 6-31g* mp2
 -------------

 ------------------------------------------------------
 Input file generated by CHIRIPA (05-May-2021 14:57:22)
 ------------------------------------------------------
 Symbolic Z-matrix:
 Charge =  0 Multiplicity = 1

                         Standard orientation:
 ---------------------------------------------------------------------
 Center     Atomic      Atomic             Coordinates (Angstroms)
 Number     Number       Type             X           Y           Z
 ---------------------------------------------------------------------
      1          6           0       -2.070774    1.769128   -0.604633
      2          6           0       -1.776412    0.408884   -0.744664
      3          6           0       -2.761708   -0.557454   -0.521216
      4          6           0       -4.036455   -0.126229   -0.157407
      5          6           0       -4.360684    1.221508   -0.009857
      6          6           0       -3.359698    2.170391   -0.238323
      7          1           0       -1.299278    2.513023   -0.780162
      8          1           0       -0.776290    0.094350   -1.029039
      9          1           0       -2.561131   -1.617134   -0.622534
     10          1           0       -5.366856    1.504413    0.274748
     11          1           0       -3.591166    3.226080   -0.128830
     12          7           0       -5.087849   -1.140009    0.081803
     13          8           0       -6.203134   -0.734233    0.401369
     14          8           0       -4.776738   -2.321189   -0.054799
     15          6           0        6.043907   -1.013448   -0.618264
     16          6           0        5.028773   -1.858869   -0.158603
     17          6           0        3.816397   -1.331020    0.295344
     18          6           0        3.652347    0.053173    0.275632
     19          6           0        4.644751    0.921595   -0.176328
     20          6           0        5.848999    0.371643   -0.625647
     21          1           0        6.982553   -1.432078   -0.969104
     22          1           0        5.177352   -2.934936   -0.151727
     23          1           0        3.013750   -1.962479    0.656501
     24          1           0        4.467265    1.990187   -0.171141
     25          1           0        6.635609    1.030623   -0.982069
     26          7           0        2.373161    0.623682    0.753756
     27          8           0        2.253432    1.846606    0.726224
     28          8           0        1.514484   -0.162880    1.146987
 ---------------------------------------------------------------------

 SCF Done:  E(RHF) =  -868.339506398     A.U. after   16 cycles
 E2 =    -0.2598569670D+01 EUMP2 =    -0.87093807606756D+03

 The electronic state is 1-A.
 Alpha  occ. eigenvalues --  -20.61763 -20.61749 -20.59962 -20.59957 -15.86783
 Alpha  occ. eigenvalues --  -15.85007 -11.31912 -11.30149 -11.28454 -11.28442
 Alpha  occ. eigenvalues --  -11.28133 -11.27403 -11.27388 -11.26716 -11.26656
 Alpha  occ. eigenvalues --  -11.26294 -11.25679 -11.25551  -1.60835  -1.59042
 Alpha  occ. eigenvalues --   -1.40389  -1.38602  -1.20061  -1.18282  -1.09498
 Alpha  occ. eigenvalues --   -1.07700  -1.05423  -1.03654  -0.96370  -0.94581
 Alpha  occ. eigenvalues --   -0.86831  -0.85055  -0.83205  -0.81429  -0.78286
 Alpha  occ. eigenvalues --   -0.76524  -0.72996  -0.72159  -0.71234  -0.71156
 Alpha  occ. eigenvalues --   -0.70360  -0.69357  -0.65710  -0.65415  -0.63929
 Alpha  occ. eigenvalues --   -0.63648  -0.62770  -0.61023  -0.55922  -0.54108
 Alpha  occ. eigenvalues --   -0.53771  -0.53505  -0.51985  -0.51751  -0.49771
 Alpha  occ. eigenvalues --   -0.49733  -0.48000  -0.47968  -0.45835  -0.44059
 Alpha  occ. eigenvalues --   -0.38026  -0.37017  -0.36205  -0.35239
 Alpha virt. eigenvalues --    0.04200   0.06008   0.10640   0.12422   0.15748
 Alpha virt. eigenvalues --    0.17584   0.20831   0.22546   0.26763   0.27653
 Alpha virt. eigenvalues --    0.28353   0.29446   0.30448   0.31783   0.32221

 Mulliken charges:
               1
     1  C   -0.168335
     2  C   -0.207886
     3  C   -0.172415
     4  C    0.157540
     5  C   -0.172636
     6  C   -0.219282
     7  H    0.230578
     8  H    0.224739
     9  H    0.271702
    10  H    0.271885
    11  H    0.220300
    12  N    0.488338
    13  O   -0.463402
    14  O   -0.463377
    15  C   -0.169832
    16  C   -0.218399
    17  C   -0.171559
    18  C    0.156654
    19  C   -0.171060
    20  C   -0.218441
    21  H    0.228266
    22  H    0.226269
    23  H    0.276429
    24  H    0.275368
    25  H    0.225428
    26  N    0.486241
    27  O   -0.462700
    28  O   -0.460413
 Sum of Mulliken charges =  -0.00000

 Dipole moment (field-independent basis, Debye):
    X=              8.7484    Y=              1.5701    Z=             -2.5157  Tot=              9.2374
 Quadrupole moment (field-independent basis, Debye-Ang):
   XX=           -100.3469   YY=            -99.3879   ZZ=           -106.7675
   XY=            -23.5099   XZ=             -3.5845   YZ=             -1.2677

 Normal termination of Gaussian 16 at Wed May  5 22:35:14 2021.
