 Gaussian 16, Revision A.03,
 Gaussian 16:  EM64L-G16RevA.03 25-Dec-2016

 -------------
 #p 6-31g* mp2
 -------------

 ------------------------------------------------------
 Input file generated by CHIRIPA (05-May-2021 14:55:25)
 ------------------------------------------------------
 Symbolic Z-matrix:
 Charge =  0 Multiplicity = 1

                         Standard orientation:
 ---------------------------------------------------------------------
 Center     Atomic      Atomic             Coordinates (Angstroms)
 Number     Number       Type             X           Y           Z
 ---------------------------------------------------------------------
      1          6           0        5.184180    0.248366   -1.103911
      2          6           0        5.109139   -0.719109   -0.096498
      3          6           0        3.911015   -0.937958    0.589907
      4          6           0        2.802440   -0.167882    0.241578
      5          6           0        2.845569    0.803473   -0.757371
      6          6           0        4.054147    1.005235   -1.430557
      7          1           0        6.118972    0.411736   -1.631993
      8          1           0        5.985137   -1.308382    0.159296
      9          1           0        3.825008   -1.680384    1.374015
     10          1           0        1.955468    1.375308   -0.990056
     11          1           0        4.109499    1.757277   -2.212487
     12          7           0        1.528506   -0.390523    0.961247
     13          8           0        0.566087    0.301071    0.635539
     14          8           0        1.516538   -1.252406    1.837404
     15          6           0       -3.959264    0.915962   -0.272185
     16          6           0       -3.047027    1.792921    0.586158
     17          6           0       -3.265672    3.286890    0.345235
     18          1           0       -3.787543    1.146828   -1.332448
     19          1           0       -5.006785    1.172747   -0.062055
     20          1           0       -2.001569    1.533596    0.375485
     21          1           0       -3.220802    1.559805    1.644495
     22          1           0       -4.299070    3.566809    0.574004
     23          1           0       -3.072909    3.540451   -0.702215
     24          1           0       -2.603370    3.895284    0.968993
     25          6           0       -3.752479   -0.580121   -0.042613
     26          6           0       -4.664716   -1.457080   -0.900956
     27          6           0       -4.446071   -2.951049   -0.660033
     28          1           0       -2.704957   -0.836907   -0.252742
     29          1           0       -3.924200   -0.810987    1.017650
     30          1           0       -4.490940   -1.223963   -1.959292
     31          1           0       -5.710174   -1.197755   -0.690283
     32          1           0       -4.638834   -3.204610    0.387417
     33          1           0       -3.412673   -3.230967   -0.888801
     34          1           0       -5.108372   -3.559443   -1.283790
 ---------------------------------------------------------------------

 SCF Done:  E(RHF) =  -669.536103487     A.U. after   15 cycles
 E2 =    -0.2090983060D+01 EUMP2 =    -0.67162708654669D+03

 The electronic state is 1-A.
 Alpha  occ. eigenvalues --  -20.60972 -20.60962 -15.86014 -11.31322 -11.27887
 Alpha  occ. eigenvalues --  -11.27880 -11.27619 -11.26890 -11.26880 -11.20717
 Alpha  occ. eigenvalues --  -11.20307 -11.20279 -11.20193 -11.20175 -11.20112
 Alpha  occ. eigenvalues --   -1.60032  -1.39590  -1.19490  -1.08895  -1.07326
 Alpha  occ. eigenvalues --   -1.04885  -1.02501  -0.95739  -0.94993  -0.86286
 Alpha  occ. eigenvalues --   -0.86013  -0.82577  -0.78543  -0.77632  -0.77087
 Alpha  occ. eigenvalues --   -0.72236  -0.71348  -0.70599  -0.65148  -0.64888
 Alpha  occ. eigenvalues --   -0.63959  -0.62233  -0.59904  -0.58355  -0.56581
 Alpha  occ. eigenvalues --   -0.55389  -0.54298  -0.53217  -0.52977  -0.51717
 Alpha  occ. eigenvalues --   -0.51408  -0.49022  -0.48991  -0.48919  -0.46860
 Alpha  occ. eigenvalues --   -0.45554  -0.45011  -0.44671  -0.44490  -0.42742
 Alpha  occ. eigenvalues --   -0.37468  -0.36487
 Alpha virt. eigenvalues --    0.04900   0.11169   0.16399   0.21267   0.23906
 Alpha virt. eigenvalues --    0.25230   0.27205   0.27569   0.28074   0.28759
 Alpha virt. eigenvalues --    0.28999   0.30856   0.32139   0.32466   0.32792

 Mulliken charges:
               1
     1  C   -0.170587
     2  C   -0.218572
     3  C   -0.170498
     4  C    0.157180
     5  C   -0.170618
     6  C   -0.218499
     7  H    0.226109
     8  H    0.223931
     9  H    0.275983
    10  H    0.275308
    11  H    0.223939
    12  N    0.496467
    13  O   -0.468555
    14  O   -0.458411
    15  C   -0.297218
    16  C   -0.309022
    17  C   -0.474927
    18  H    0.144114
    19  H    0.144301
    20  H    0.177961
    21  H    0.151313
    22  H    0.150989
    23  H    0.149518
    24  H    0.158003
    25  C   -0.299634
    26  C   -0.298953
    27  C   -0.474759
    28  H    0.160400
    29  H    0.150308
    30  H    0.148243
    31  H    0.148820
    32  H    0.155547
    33  H    0.155728
    34  H    0.156092
 Sum of Mulliken charges =  -0.00000

 Dipole moment (field-independent basis, Debye):
    X=              4.8516    Y=              0.6990    Z=             -2.4392  Tot=              5.4751
 Quadrupole moment (field-independent basis, Debye-Ang):
   XX=            -69.9504   YY=            -94.8622   ZZ=            -94.5741
   XY=             -0.0336   XZ=             -5.7292   YZ=             -1.7610

 Normal termination of Gaussian 16 at Wed May  5 16:10:18 2021.
