 Gaussian 16, Revision A.03,
 Gaussian 16:  EM64L-G16RevA.03 25-Dec-2016

 -------------
 #p 6-31g* mp2
 -------------

 ------------------------------------------------------
 Input file generated by CHIRIPA (05-May-2021 14:53:13)
 ------------------------------------------------------
 Symbolic Z-matrix:
 Charge =  0 Multiplicity = 1

                         Standard orientation:
 ---------------------------------------------------------------------
 Center     Atomic      Atomic             Coordinates (Angstroms)
 Number     Number       Type             X           Y           Z
 ---------------------------------------------------------------------
      1          6           0       -3.724756   -0.032758   -0.385800
      2          6           0       -5.094014   -0.365196    0.208005
      3          6           0       -5.614098   -1.733106   -0.234862
      4          1           0       -3.790074   -0.064454   -1.482009
      5          1           0       -3.006945   -0.811407   -0.092803
      6          1           0       -5.808708    0.414578   -0.084878
      7          1           0       -5.025475   -0.332517    1.302925
      8          1           0       -4.923265   -2.525412    0.071081
      9          1           0       -5.710948   -1.774072   -1.324607
     10          1           0       -6.594121   -1.950427    0.201242
     11          6           0       -3.191493    1.331584    0.047709
     12          6           0       -1.822235    1.664023   -0.546096
     13          6           0       -1.302151    3.031932   -0.103229
     14          1           0       -3.909305    2.110233   -0.245288
     15          1           0       -3.126175    1.363281    1.143918
     16          1           0       -1.890774    1.631344   -1.641016
     17          1           0       -1.107541    0.884248   -0.253214
     18          1           0       -1.205302    3.072899    0.986516
     19          1           0       -1.992984    3.824239   -0.409172
     20          1           0       -0.322128    3.249253   -0.539333
     21          6           0        4.716728    0.948845   -0.297940
     22          6           0        3.687075    1.405682    0.531297
     23          6           0        2.565892    0.607354    0.776593
     24          6           0        2.506851   -0.648134    0.173638
     25          6           0        3.516408   -1.131393   -0.657350
     26          6           0        4.628265   -0.316005   -0.888577
     27          1           0        5.584068    1.575632   -0.483026
     28          1           0        3.753086    2.387544    0.991334
     29          1           0        1.754377    0.936226    1.414326
     30          1           0        3.422249   -2.114755   -1.101817
     31          1           0        5.426399   -0.673389   -1.533017
     32          7           0        1.324841   -1.502319    0.425874
     33          8           0        1.296766   -2.604527   -0.117251
     34          8           0        0.448840   -1.053446    1.161926
 ---------------------------------------------------------------------

 SCF Done:  E(RHF) =  -669.536702103     A.U. after   15 cycles
 E2 =    -0.2091582968D+01 EUMP2 =    -0.67162828507012D+03

 The electronic state is 1-A.
 Alpha  occ. eigenvalues --  -20.61031 -20.61025 -15.86036 -11.31305 -11.27864
 Alpha  occ. eigenvalues --  -11.27856 -11.27595 -11.26863 -11.26851 -11.20874
 Alpha  occ. eigenvalues --  -11.20813 -11.20782 -11.20624 -11.20423 -11.20309
 Alpha  occ. eigenvalues --   -1.60076  -1.39635  -1.19470  -1.08886  -1.07644
 Alpha  occ. eigenvalues --   -1.04858  -1.02855  -0.95736  -0.95328  -0.86348
 Alpha  occ. eigenvalues --   -0.86261  -0.82573  -0.78914  -0.77640  -0.77428
 Alpha  occ. eigenvalues --   -0.72266  -0.71378  -0.70580  -0.65130  -0.64863
 Alpha  occ. eigenvalues --   -0.64249  -0.62207  -0.60242  -0.58717  -0.56936
 Alpha  occ. eigenvalues --   -0.55368  -0.54612  -0.53191  -0.52948  -0.52067
 Alpha  occ. eigenvalues --   -0.51758  -0.49278  -0.49021  -0.49017  -0.47253
 Alpha  occ. eigenvalues --   -0.46001  -0.45218  -0.44990  -0.44555  -0.43081
 Alpha  occ. eigenvalues --   -0.37446  -0.36454
 Alpha virt. eigenvalues --    0.04855   0.11167   0.16323   0.21083   0.23489
 Alpha virt. eigenvalues --    0.24625   0.27095   0.27451   0.28100   0.28465
 Alpha virt. eigenvalues --    0.28933   0.30685   0.31777   0.32114   0.32479

 Mulliken charges:
               1
     1  C   -0.302834
     2  C   -0.299070
     3  C   -0.476003
     4  H    0.145845
     5  H    0.165498
     6  H    0.147970
     7  H    0.152215
     8  H    0.159614
     9  H    0.153191
    10  H    0.157245
    11  C   -0.295781
    12  C   -0.308639
    13  C   -0.476133
    14  H    0.144644
    15  H    0.150745
    16  H    0.148161
    17  H    0.167498
    18  H    0.152397
    19  H    0.154360
    20  H    0.152862
    21  C   -0.170443
    22  C   -0.218852
    23  C   -0.171066
    24  C    0.158456
    25  C   -0.170710
    26  C   -0.218589
    27  H    0.226112
    28  H    0.224357
    29  H    0.276964
    30  H    0.275776
    31  H    0.223866
    32  N    0.488159
    33  O   -0.457825
    34  O   -0.459988
 Sum of Mulliken charges =  -0.00000

 Dipole moment (field-independent basis, Debye):
    X=              4.3704    Y=              2.7891    Z=             -0.8287  Tot=              5.2503
 Quadrupole moment (field-independent basis, Debye-Ang):
   XX=            -74.2391   YY=            -97.6576   ZZ=            -93.4298
   XY=              3.0566   XZ=             -2.8848   YZ=              3.0559

 Normal termination of Gaussian 16 at Thu May  6 00:59:00 2021.
