 Gaussian 16, Revision A.03,
 Gaussian 16:  EM64L-G16RevA.03 25-Dec-2016

 -------------
 #p 6-31g* mp2
 -------------

 ------------------------------------------------------
 Input file generated by CHIRIPA (05-May-2021 14:53:15)
 ------------------------------------------------------
 Symbolic Z-matrix:
 Charge =  0 Multiplicity = 1

                         Standard orientation:
 ---------------------------------------------------------------------
 Center     Atomic      Atomic             Coordinates (Angstroms)
 Number     Number       Type             X           Y           Z
 ---------------------------------------------------------------------
      1          6           0        4.273499    0.795347   -0.287161
      2          6           0        3.438660    1.801684    0.505503
      3          6           0        3.493937    3.210926   -0.085070
      4          1           0        5.316229    1.139600   -0.321076
      5          1           0        3.917908    0.772522   -1.326598
      6          1           0        3.794817    1.821592    1.543468
      7          1           0        2.397834    1.454898    0.537697
      8          1           0        3.119129    3.212520   -1.113719
      9          1           0        4.524049    3.581297   -0.102233
     10          1           0        2.890232    3.914142    0.497071
     11          6           0        4.228287   -0.617983    0.290923
     12          6           0        5.063126   -1.624320   -0.501741
     13          6           0        5.007850   -3.033561    0.088832
     14          1           0        4.583879   -0.595157    1.330359
     15          1           0        3.185558   -0.962236    0.324838
     16          1           0        6.103952   -1.277534   -0.533936
     17          1           0        4.706969   -1.644228   -1.539706
     18          1           0        3.977737   -3.403933    0.105995
     19          1           0        5.382658   -3.035155    1.117480
     20          1           0        5.611554   -3.736777   -0.493309
     21          6           0       -0.829014    0.315816    0.085571
     22          6           0       -1.546679    0.106420    1.267786
     23          6           0       -2.927717   -0.107974    1.231512
     24          6           0       -3.561927   -0.106513   -0.009884
     25          6           0       -2.874621    0.099168   -1.205123
     26          6           0       -1.494103    0.311529   -1.144941
     27          1           0        0.243607    0.481572    0.123036
     28          1           0       -1.032792    0.109220    2.224842
     29          1           0       -3.507768   -0.272680    2.131418
     30          1           0       -3.414600    0.090791   -2.144149
     31          1           0       -0.939320    0.473876   -2.064671
     32          7           0       -5.023695   -0.332406   -0.060941
     33          8           0       -5.559040   -0.326403   -1.167289
     34          8           0       -5.606406   -0.511187    1.006356
 ---------------------------------------------------------------------

 SCF Done:  E(RHF) =  -669.535480184     A.U. after   15 cycles
 E2 =    -0.2091115748D+01 EUMP2 =    -0.67162659593183D+03

 The electronic state is 1-A.
 Alpha  occ. eigenvalues --  -20.60751 -20.60746 -15.85805 -11.31172 -11.27742
 Alpha  occ. eigenvalues --  -11.27737 -11.27469 -11.26760 -11.26747 -11.22775
 Alpha  occ. eigenvalues --  -11.22375 -11.22340 -11.22280 -11.22003 -11.21683
 Alpha  occ. eigenvalues --   -1.59826  -1.39380  -1.19344  -1.09374  -1.08739
 Alpha  occ. eigenvalues --   -1.04748  -1.04412  -0.96829  -0.95575  -0.87845
 Alpha  occ. eigenvalues --   -0.86145  -0.82410  -0.80496  -0.79181  -0.77453
 Alpha  occ. eigenvalues --   -0.72023  -0.71150  -0.70478  -0.66015  -0.64996
 Alpha  occ. eigenvalues --   -0.64751  -0.62096  -0.61820  -0.60209  -0.58444
 Alpha  occ. eigenvalues --   -0.56115  -0.55275  -0.53510  -0.53242  -0.53077
 Alpha  occ. eigenvalues --   -0.52840  -0.50775  -0.48813  -0.48777  -0.48760
 Alpha  occ. eigenvalues --   -0.47543  -0.46711  -0.46632  -0.44785  -0.44670
 Alpha  occ. eigenvalues --   -0.37323  -0.36354
 Alpha virt. eigenvalues --    0.05076   0.11301   0.16546   0.18690   0.22639
 Alpha virt. eigenvalues --    0.23607   0.24740   0.26213   0.27180   0.27363
 Alpha virt. eigenvalues --    0.29335   0.30469   0.30987   0.31107   0.32287

 Mulliken charges:
               1
     1  C   -0.298554
     2  C   -0.305267
     3  C   -0.475606
     4  H    0.154366
     5  H    0.148496
     6  H    0.156273
     7  H    0.142590
     8  H    0.154800
     9  H    0.159576
    10  H    0.162674
    11  C   -0.298580
    12  C   -0.300096
    13  C   -0.476312
    14  H    0.151883
    15  H    0.143446
    16  H    0.154329
    17  H    0.152253
    18  H    0.155340
    19  H    0.156261
    20  H    0.162887
    21  C   -0.179220
    22  C   -0.221937
    23  C   -0.170737
    24  C    0.158345
    25  C   -0.170603
    26  C   -0.221495
    27  H    0.239170
    28  H    0.223926
    29  H    0.275613
    30  H    0.275506
    31  H    0.223616
    32  N    0.487961
    33  O   -0.460472
    34  O   -0.460432
 Sum of Mulliken charges =  -0.00000

 Dipole moment (field-independent basis, Debye):
    X=              5.3966    Y=              0.8164    Z=              0.1854  Tot=              5.4612
 Quadrupole moment (field-independent basis, Debye-Ang):
   XX=           -130.3207   YY=            -96.4688   ZZ=            -89.4982
   XY=             -3.0256   XZ=             -0.3436   YZ=             -0.0433

 Normal termination of Gaussian 16 at Thu May  6 15:31:08 2021.
