 Gaussian 16, Revision A.03,
 Gaussian 16:  EM64L-G16RevA.03 25-Dec-2016

 -------------
 #p 6-31g* mp2
 -------------

 ------------------------------------------------------
 Input file generated by CHIRIPA (05-May-2021 14:55:19)
 ------------------------------------------------------
 Symbolic Z-matrix:
 Charge =  0 Multiplicity = 1

                         Standard orientation:
 ---------------------------------------------------------------------
 Center     Atomic      Atomic             Coordinates (Angstroms)
 Number     Number       Type             X           Y           Z
 ---------------------------------------------------------------------
      1          6           0       -3.852132    1.763678    1.157629
      2          6           0       -2.784085    1.089783    1.759013
      3          6           0       -2.138726    0.043992    1.092394
      4          6           0       -2.589484   -0.303248   -0.180214
      5          6           0       -3.650802    0.348986   -0.805900
      6          6           0       -4.281325    1.391784   -0.120655
      7          1           0       -4.347700    2.574911    1.682709
      8          1           0       -2.448628    1.376447    2.751655
      9          1           0       -1.309408   -0.494642    1.534573
     10          1           0       -3.962650    0.040531   -1.796367
     11          1           0       -5.110525    1.913366   -0.590150
     12          7           0       -1.914124   -1.408796   -0.895793
     13          8           0       -2.330283   -1.695556   -2.016158
     14          8           0       -0.981407   -1.967631   -0.322750
     15          6           0        3.698487   -0.568345    0.124337
     16          6           0        2.723196   -1.489018    0.858611
     17          6           0        3.220260   -2.932673    0.939708
     18          1           0        3.867209   -0.957038   -0.889269
     19          1           0        4.671144   -0.594088    0.634896
     20          1           0        1.752270   -1.460478    0.347628
     21          1           0        2.556628   -1.097983    1.870521
     22          1           0        4.177738   -2.981315    1.468358
     23          1           0        3.368810   -3.345870   -0.063190
     24          1           0        2.507808   -3.573465    1.468536
     25          6           0        3.215538    0.878211    0.035095
     26          6           0        4.190828    1.798881   -0.699180
     27          6           0        3.693765    3.242539   -0.780276
     28          1           0        2.242881    0.903952   -0.475465
     29          1           0        3.046816    1.266902    1.048700
     30          1           0        4.357397    1.407847   -1.711090
     31          1           0        5.161755    1.770342   -0.188196
     32          1           0        3.545214    3.655734    0.222621
     33          1           0        2.736287    3.291179   -1.308926
     34          1           0        4.406217    3.883329   -1.309104
 ---------------------------------------------------------------------

 SCF Done:  E(RHF) =  -669.536277402     A.U. after   15 cycles
 E2 =    -0.2091122685D+01 EUMP2 =    -0.67162740008710D+03

 The electronic state is 1-A.
 Alpha  occ. eigenvalues --  -20.60952 -20.60937 -15.85978 -11.31274 -11.27840
 Alpha  occ. eigenvalues --  -11.27827 -11.27574 -11.26842 -11.26830 -11.21310
 Alpha  occ. eigenvalues --  -11.21006 -11.20905 -11.20787 -11.20696 -11.20236
 Alpha  occ. eigenvalues --   -1.60009  -1.39565  -1.19443  -1.08853  -1.07918
 Alpha  occ. eigenvalues --   -1.04835  -1.02984  -0.95698  -0.95463  -0.86484
 Alpha  occ. eigenvalues --   -0.86237  -0.82534  -0.79080  -0.77747  -0.77550
 Alpha  occ. eigenvalues --   -0.72204  -0.71321  -0.70552  -0.65102  -0.64838
 Alpha  occ. eigenvalues --   -0.64539  -0.62182  -0.60366  -0.58852  -0.57059
 Alpha  occ. eigenvalues --   -0.55343  -0.54757  -0.53169  -0.52927  -0.52154
 Alpha  occ. eigenvalues --   -0.51893  -0.49418  -0.48968  -0.48954  -0.47394
 Alpha  occ. eigenvalues --   -0.46120  -0.45337  -0.45246  -0.44745  -0.43252
 Alpha  occ. eigenvalues --   -0.37423  -0.36435
 Alpha virt. eigenvalues --    0.04903   0.11214   0.16377   0.21229   0.23342
 Alpha virt. eigenvalues --    0.24754   0.26747   0.27174   0.27616   0.28487
 Alpha virt. eigenvalues --    0.28783   0.30766   0.31782   0.31926   0.32612

 Mulliken charges:
               1
     1  C   -0.170497
     2  C   -0.218565
     3  C   -0.170921
     4  C    0.157655
     5  C   -0.170914
     6  C   -0.218623
     7  H    0.225988
     8  H    0.224021
     9  H    0.277178
    10  H    0.275665
    11  H    0.223735
    12  N    0.490762
    13  O   -0.458944
    14  O   -0.462835
    15  C   -0.297436
    16  C   -0.311515
    17  C   -0.473554
    18  H    0.151673
    19  H    0.146227
    20  H    0.176846
    21  H    0.141531
    22  H    0.149263
    23  H    0.157713
    24  H    0.161765
    25  C   -0.297745
    26  C   -0.299196
    27  C   -0.475336
    28  H    0.150144
    29  H    0.144702
    30  H    0.153345
    31  H    0.151154
    32  H    0.152675
    33  H    0.154508
    34  H    0.159530
 Sum of Mulliken charges =  -0.00000

 Dipole moment (field-independent basis, Debye):
    X=             -2.5887    Y=              3.8104    Z=              2.4199  Tot=              5.2035
 Quadrupole moment (field-independent basis, Debye-Ang):
   XX=            -81.3923   YY=            -98.9945   ZZ=            -92.2983
   XY=             -9.8712   XZ=             -3.4021   YZ=             -1.4349

 Normal termination of Gaussian 16 at Thu May  6 09:13:22 2021.
