 Gaussian 16, Revision A.03,
 Gaussian 16:  EM64L-G16RevA.03 25-Dec-2016

 -------------
 #p 6-31g* mp2
 -------------

 ------------------------------------------------------
 Input file generated by CHIRIPA (05-May-2021 14:57:23)
 ------------------------------------------------------
 Symbolic Z-matrix:
 Charge =  0 Multiplicity = 1

                         Standard orientation:
 ---------------------------------------------------------------------
 Center     Atomic      Atomic             Coordinates (Angstroms)
 Number     Number       Type             X           Y           Z
 ---------------------------------------------------------------------
      1          6           0       -2.281050    2.026357    0.922298
      2          6           0       -2.168899    0.814515    1.611778
      3          6           0       -2.827517   -0.328847    1.149725
      4          6           0       -3.593336   -0.224048   -0.010373
      5          6           0       -3.724591    0.968949   -0.719473
      6          6           0       -3.057171    2.099577   -0.239080
      7          1           0       -1.766001    2.909602    1.288355
      8          1           0       -1.566842    0.754706    2.513995
      9          1           0       -2.757913   -1.279713    1.663950
     10          1           0       -4.332010    0.997531   -1.615935
     11          1           0       -3.146074    3.039378   -0.776588
     12          7           0       -4.295246   -1.427733   -0.509236
     13          8           0       -4.963804   -1.309200   -1.533744
     14          8           0       -4.163553   -2.466923    0.133709
     15          6           0        1.443960    1.518863   -0.052399
     16          6           0        2.573115    1.883585   -0.793013
     17          6           0        3.705552    1.063945   -0.811073
     18          6           0        3.674263   -0.118691   -0.073725
     19          6           0        2.564498   -0.509478    0.673936
     20          6           0        1.443257    0.325600    0.677425
     21          1           0        0.568605    2.161575   -0.044028
     22          1           0        2.576490    2.809711   -1.360748
     23          1           0        4.593152    1.322118   -1.375813
     24          1           0        2.590943   -1.438770    1.229935
     25          1           0        0.567750    0.039818    1.253499
     26          7           0        4.867197   -0.994579   -0.085132
     27          8           0        4.814464   -2.031347    0.572871
     28          8           0        5.832363   -0.627745   -0.751859
 ---------------------------------------------------------------------

 SCF Done:  E(RHF) =  -868.336128848     A.U. after   16 cycles
 E2 =    -0.2602259785D+01 EUMP2 =    -0.87093838863337D+03

 The electronic state is 1-A.
 Alpha  occ. eigenvalues --  -20.61581 -20.61576 -20.60977 -20.60971 -15.86645
 Alpha  occ. eigenvalues --  -15.86032 -11.32303 -11.31472 -11.28930 -11.28870
 Alpha  occ. eigenvalues --  -11.28768 -11.28055 -11.28051 -11.28046 -11.27975
 Alpha  occ. eigenvalues --  -11.27820 -11.27102 -11.27051  -1.60649  -1.60050
 Alpha  occ. eigenvalues --   -1.40195  -1.39602  -1.20529  -1.19656  -1.09893
 Alpha  occ. eigenvalues --   -1.09042  -1.05972  -1.05071  -0.96663  -0.95864
 Alpha  occ. eigenvalues --   -0.87369  -0.86466  -0.83490  -0.82694  -0.78463
 Alpha  occ. eigenvalues --   -0.77726  -0.72858  -0.72250  -0.71975  -0.71694
 Alpha  occ. eigenvalues --   -0.71374  -0.70761  -0.66178  -0.66042  -0.65310
 Alpha  occ. eigenvalues --   -0.65076  -0.63291  -0.62410  -0.56551  -0.55588
 Alpha  occ. eigenvalues --   -0.54284  -0.54060  -0.53393  -0.53102  -0.49640
 Alpha  occ. eigenvalues --   -0.49594  -0.49015  -0.49000  -0.45535  -0.44991
 Alpha  occ. eigenvalues --   -0.38544  -0.37660  -0.37540  -0.36670
 Alpha virt. eigenvalues --    0.04011   0.04811   0.09973   0.10953   0.15258
 Alpha virt. eigenvalues --    0.16270   0.19128   0.22089   0.24961   0.26138
 Alpha virt. eigenvalues --    0.27889   0.29252   0.29558   0.31413   0.31931

 Mulliken charges:
               1
     1  C   -0.179033
     2  C   -0.226677
     3  C   -0.170239
     4  C    0.161264
     5  C   -0.167841
     6  C   -0.219240
     7  H    0.226330
     8  H    0.224930
     9  H    0.279381
    10  H    0.280012
    11  H    0.226726
    12  N    0.487944
    13  O   -0.456814
    14  O   -0.457088
    15  C   -0.173490
    16  C   -0.218826
    17  C   -0.170433
    18  C    0.159129
    19  C   -0.171174
    20  C   -0.220734
    21  H    0.220639
    22  H    0.222519
    23  H    0.276383
    24  H    0.276474
    25  H    0.221000
    26  N    0.487998
    27  O   -0.459396
    28  O   -0.459744
 Sum of Mulliken charges =  -0.00000

 Dipole moment (field-independent basis, Debye):
    X=             -2.0588    Y=              7.1897    Z=              1.6751  Tot=              7.6640
 Quadrupole moment (field-independent basis, Debye-Ang):
   XX=           -151.4154   YY=           -104.8308   ZZ=           -100.9024
   XY=             -3.3760   XZ=             -5.7721   YZ=             -5.4212

 Normal termination of Gaussian 16 at Fri May  7 09:27:44 2021.
