 Gaussian 16, Revision A.03,
 Gaussian 16:  EM64L-G16RevA.03 25-Dec-2016

 -------------
 #p 6-31g* mp2
 -------------

 ------------------------------------------------------
 Input file generated by CHIRIPA (05-May-2021 14:53:16)
 ------------------------------------------------------
 Symbolic Z-matrix:
 Charge =  0 Multiplicity = 1

                         Standard orientation:
 ---------------------------------------------------------------------
 Center     Atomic      Atomic             Coordinates (Angstroms)
 Number     Number       Type             X           Y           Z
 ---------------------------------------------------------------------
      1          6           0       -2.833864    1.444136   -0.367680
      2          6           0       -1.485329    1.990606    0.102224
      3          6           0       -1.264607    3.448334   -0.302875
      4          1           0       -2.899028    1.536402   -1.460468
      5          1           0       -3.638606    2.066815    0.047115
      6          1           0       -0.683428    1.366254   -0.312210
      7          1           0       -1.423290    1.896852    1.194001
      8          1           0       -2.043876    4.088708    0.122874
      9          1           0       -1.299810    3.555096   -1.391895
     10          1           0       -0.294576    3.818703    0.043141
     11          6           0       -3.069154   -0.012039    0.029715
     12          6           0       -4.417689   -0.558509   -0.440189
     13          6           0       -4.638411   -2.016237   -0.035090
     14          1           0       -2.264412   -0.634718   -0.385081
     15          1           0       -3.003991   -0.104305    1.122503
     16          1           0       -4.479728   -0.464755   -1.531966
     17          1           0       -5.219590    0.065843   -0.025756
     18          1           0       -4.603209   -2.122999    1.053929
     19          1           0       -3.859143   -2.656612   -0.460839
     20          1           0       -5.608442   -2.386606   -0.381106
     21          6           0        4.473180    0.633829   -0.362806
     22          6           0        4.162241   -0.557092   -1.027294
     23          6           0        2.964242   -1.226770   -0.761065
     24          6           0        2.096339   -0.674771    0.179855
     25          6           0        2.377771    0.510010    0.858369
     26          6           0        3.581525    1.162646    0.576249
     27          1           0        5.406049    1.147433   -0.575791
     28          1           0        4.852818   -0.970103   -1.757068
     29          1           0        2.698497   -2.150297   -1.260959
     30          1           0        1.669416    0.897233    1.580662
     31          1           0        3.820380    2.087369    1.093822
     32          7           0        0.825025   -1.374709    0.470112
     33          8           0        0.077248   -0.867724    1.303437
     34          8           0        0.600420   -2.417052   -0.141208
 ---------------------------------------------------------------------

 SCF Done:  E(RHF) =  -669.535453197     A.U. after   15 cycles
 E2 =    -0.2093786975D+01 EUMP2 =    -0.67162924017174D+03

 The electronic state is 1-A.
 Alpha  occ. eigenvalues --  -20.60997 -20.60961 -15.85978 -11.31308 -11.27869
 Alpha  occ. eigenvalues --  -11.27857 -11.27602 -11.26870 -11.26856 -11.20843
 Alpha  occ. eigenvalues --  -11.20682 -11.20462 -11.20454 -11.19896 -11.19884
 Alpha  occ. eigenvalues --   -1.60034  -1.39589  -1.19473  -1.08880  -1.07384
 Alpha  occ. eigenvalues --   -1.04864  -1.02616  -0.95723  -0.95060  -0.86267
 Alpha  occ. eigenvalues --   -0.86073  -0.82562  -0.78715  -0.77625  -0.77080
 Alpha  occ. eigenvalues --   -0.72201  -0.71345  -0.70577  -0.65126  -0.64866
 Alpha  occ. eigenvalues --   -0.64030  -0.62212  -0.60028  -0.58480  -0.56660
 Alpha  occ. eigenvalues --   -0.55370  -0.54354  -0.53193  -0.52953  -0.51829
 Alpha  occ. eigenvalues --   -0.51487  -0.49076  -0.48983  -0.48912  -0.47007
 Alpha  occ. eigenvalues --   -0.45807  -0.45291  -0.44567  -0.44126  -0.42810
 Alpha  occ. eigenvalues --   -0.37447  -0.36457
 Alpha virt. eigenvalues --    0.04883   0.11128   0.16365   0.21167   0.23679
 Alpha virt. eigenvalues --    0.24942   0.26871   0.27542   0.27671   0.28788
 Alpha virt. eigenvalues --    0.29015   0.30981   0.31761   0.32195   0.32532

 Mulliken charges:
               1
     1  C   -0.299966
     2  C   -0.294632
     3  C   -0.474627
     4  H    0.144708
     5  H    0.145128
     6  H    0.146519
     7  H    0.155447
     8  H    0.154322
     9  H    0.153374
    10  H    0.150592
    11  C   -0.295825
    12  C   -0.299924
    13  C   -0.474977
    14  H    0.161220
    15  H    0.156615
    16  H    0.146755
    17  H    0.146231
    18  H    0.155861
    19  H    0.161676
    20  H    0.153937
    21  C   -0.170349
    22  C   -0.218621
    23  C   -0.170932
    24  C    0.157401
    25  C   -0.170513
    26  C   -0.218994
    27  H    0.226136
    28  H    0.223862
    29  H    0.275737
    30  H    0.277755
    31  H    0.224073
    32  N    0.487272
    33  O   -0.454809
    34  O   -0.460452
 Sum of Mulliken charges =  -0.00000

 Dipole moment (field-independent basis, Debye):
    X=              4.6987    Y=              2.2275    Z=             -0.8764  Tot=              5.2733
 Quadrupole moment (field-independent basis, Debye-Ang):
   XX=            -77.0660   YY=            -97.6651   ZZ=            -92.6974
   XY=              1.0910   XZ=             -3.0375   YZ=              4.4924

 Normal termination of Gaussian 16 at Thu May  6 15:35:02 2021.
