 Gaussian 16, Revision A.03,
 Gaussian 16:  EM64L-G16RevA.03 25-Dec-2016

 -------------
 #p 6-31g* mp2
 -------------

 ------------------------------------------------------
 Input file generated by CHIRIPA (05-May-2021 14:53:16)
 ------------------------------------------------------
 Symbolic Z-matrix:
 Charge =  0 Multiplicity = 1

                         Standard orientation:
 ---------------------------------------------------------------------
 Center     Atomic      Atomic             Coordinates (Angstroms)
 Number     Number       Type             X           Y           Z
 ---------------------------------------------------------------------
      1          6           0       -3.755077    0.188660   -0.446571
      2          6           0       -3.663187   -1.336592   -0.502662
      3          6           0       -4.915640   -1.982867   -1.095524
      4          1           0       -4.633555    0.475107    0.147710
      5          1           0       -3.923834    0.576408   -1.460754
      6          1           0       -3.493273   -1.721256    0.511132
      7          1           0       -2.784717   -1.619440   -1.096718
      8          1           0       -5.086017   -1.627192   -2.116831
      9          1           0       -5.798599   -1.729586   -0.499845
     10          1           0       -4.828496   -3.073429   -1.126180
     11          6           0       -2.510525    0.849251    0.143716
     12          6           0       -2.602415    2.374503    0.199807
     13          6           0       -1.349962    3.020778    0.792670
     14          1           0       -2.341768    0.461503    1.157900
     15          1           0       -1.632047    0.562804   -0.450564
     16          1           0       -3.480885    2.657351    0.793863
     17          1           0       -2.772329    2.759167   -0.813987
     18          1           0       -0.467003    2.767497    0.196991
     19          1           0       -1.179585    2.665103    1.813976
     20          1           0       -1.437106    4.111340    0.823326
     21          6           0        3.977954    1.068171   -1.242626
     22          6           0        2.937660    1.636090   -0.499808
     23          6           0        2.083558    0.829266    0.257881
     24          6           0        2.299543   -0.547897    0.249872
     25          6           0        3.327132   -1.143599   -0.479844
     26          6           0        4.169032   -0.317419   -1.230295
     27          1           0        4.636701    1.702450   -1.828406
     28          1           0        2.786897    2.711848   -0.507507
     29          1           0        1.270362    1.242572    0.842099
     30          1           0        3.452465   -2.219219   -0.452390
     31          1           0        4.976117   -0.761234   -1.806218
     32          7           0        1.401802   -1.412292    1.048173
     33          8           0        1.613153   -2.622829    1.024417
     34          8           0        0.503800   -0.862898    1.682520
 ---------------------------------------------------------------------

 SCF Done:  E(RHF) =  -669.535671200     A.U. after   15 cycles
 E2 =    -0.2092502985D+01 EUMP2 =    -0.67162817418524D+03

 The electronic state is 1-A.
 Alpha  occ. eigenvalues --  -20.60807 -20.60790 -15.85838 -11.31177 -11.27760
 Alpha  occ. eigenvalues --  -11.27690 -11.27501 -11.26774 -11.26753 -11.21438
 Alpha  occ. eigenvalues --  -11.21285 -11.20925 -11.20851 -11.20759 -11.20528
 Alpha  occ. eigenvalues --   -1.59864  -1.39418  -1.19356  -1.08757  -1.07970
 Alpha  occ. eigenvalues --   -1.04756  -1.03191  -0.95668  -0.95591  -0.86705
 Alpha  occ. eigenvalues --   -0.86150  -0.82426  -0.79259  -0.77768  -0.77407
 Alpha  occ. eigenvalues --   -0.72059  -0.71180  -0.70470  -0.65012  -0.64779
 Alpha  occ. eigenvalues --   -0.64591  -0.62136  -0.60586  -0.59035  -0.57246
 Alpha  occ. eigenvalues --   -0.55275  -0.54953  -0.53090  -0.52882  -0.52394
 Alpha  occ. eigenvalues --   -0.52051  -0.49637  -0.48820  -0.48815  -0.47551
 Alpha  occ. eigenvalues --   -0.46249  -0.45397  -0.45153  -0.44676  -0.43389
 Alpha  occ. eigenvalues --   -0.37341  -0.36351
 Alpha virt. eigenvalues --    0.05019   0.11242   0.16483   0.20741   0.23338
 Alpha virt. eigenvalues --    0.24292   0.26242   0.27097   0.27754   0.28254
 Alpha virt. eigenvalues --    0.29326   0.30791   0.31856   0.31950   0.32329

 Mulliken charges:
               1
     1  C   -0.299071
     2  C   -0.299164
     3  C   -0.475783
     4  H    0.148077
     5  H    0.145338
     6  H    0.160239
     7  H    0.151709
     8  H    0.152112
     9  H    0.153814
    10  H    0.160761
    11  C   -0.299661
    12  C   -0.298930
    13  C   -0.480100
    14  H    0.166434
    15  H    0.145993
    16  H    0.153031
    17  H    0.149357
    18  H    0.143096
    19  H    0.162281
    20  H    0.159494
    21  C   -0.170529
    22  C   -0.221540
    23  C   -0.176770
    24  C    0.157476
    25  C   -0.170621
    26  C   -0.218850
    27  H    0.225602
    28  H    0.224259
    29  H    0.285327
    30  H    0.275461
    31  H    0.223414
    32  N    0.488498
    33  O   -0.460321
    34  O   -0.460434
 Sum of Mulliken charges =  -0.00000

 Dipole moment (field-independent basis, Debye):
    X=              3.1534    Y=              2.9212    Z=             -2.6589  Tot=              5.0544
 Quadrupole moment (field-independent basis, Debye-Ang):
   XX=            -80.1277   YY=            -95.7974   ZZ=            -95.7259
   XY=              2.6248   XZ=             -7.9719   YZ=              3.4147

 Normal termination of Gaussian 16 at Thu May  6 13:51:52 2021.
