 Gaussian 16, Revision A.03,
 Gaussian 16:  EM64L-G16RevA.03 25-Dec-2016

 -------------
 #p 6-31g* mp2
 -------------

 ------------------------------------------------------
 Input file generated by CHIRIPA (05-May-2021 14:55:21)
 ------------------------------------------------------
 Symbolic Z-matrix:
 Charge =  0 Multiplicity = 1

                         Standard orientation:
 ---------------------------------------------------------------------
 Center     Atomic      Atomic             Coordinates (Angstroms)
 Number     Number       Type             X           Y           Z
 ---------------------------------------------------------------------
      1          6           0        1.542041    1.966377    0.721333
      2          6           0        2.907984    2.267457    0.729717
      3          6           0        3.842057    1.341509    0.255717
      4          6           0        3.373105    0.118616   -0.221678
      5          6           0        2.018730   -0.210781   -0.243074
      6          6           0        1.102548    0.730398    0.235820
      7          1           0        0.823379    2.691592    1.091449
      8          1           0        3.252174    3.226544    1.106187
      9          1           0        4.905303    1.548632    0.250699
     10          1           0        1.705909   -1.175173   -0.624531
     11          1           0        0.042344    0.493854    0.228103
     12          7           0        4.352496   -0.869706   -0.726072
     13          8           0        3.913781   -1.940047   -1.141446
     14          8           0        5.540313   -0.555298   -0.696490
     15          6           0       -3.754119   -0.434696    0.848582
     16          6           0       -2.543922   -1.367535    0.791867
     17          6           0       -1.840556   -1.506125    2.142372
     18          1           0       -3.430033    0.555126    1.198103
     19          1           0       -4.465063   -0.812843    1.596218
     20          1           0       -1.836106   -0.988501    0.043572
     21          1           0       -2.870894   -2.355199    0.442257
     22          1           0       -2.527456   -1.906105    2.895223
     23          1           0       -1.486787   -0.531643    2.494273
     24          1           0       -0.978424   -2.177370    2.078997
     25          6           0       -4.467805   -0.285952   -0.493899
     26          6           0       -5.678003    0.646888   -0.437184
     27          6           0       -6.381369    0.785477   -1.787689
     28          1           0       -3.756862    0.092195   -1.241535
     29          1           0       -4.791892   -1.275774   -0.843420
     30          1           0       -5.351030    1.634551   -0.087574
     31          1           0       -6.385819    0.267853    0.311111
     32          1           0       -6.735137   -0.189005   -2.139590
     33          1           0       -5.694469    1.185458   -2.540540
     34          1           0       -7.243500    1.456724   -1.724315
 ---------------------------------------------------------------------

 SCF Done:  E(RHF) =  -669.535402486     A.U. after   15 cycles
 E2 =    -0.2091430114D+01 EUMP2 =    -0.67162683259967D+03

 The electronic state is 1-A.
 Alpha  occ. eigenvalues --  -20.60741 -20.60736 -15.85794 -11.31159 -11.27727
 Alpha  occ. eigenvalues --  -11.27717 -11.27471 -11.26747 -11.26706 -11.22583
 Alpha  occ. eigenvalues --  -11.22219 -11.22178 -11.22049 -11.21914 -11.21536
 Alpha  occ. eigenvalues --   -1.59817  -1.39370  -1.19329  -1.09199  -1.08726
 Alpha  occ. eigenvalues --   -1.04735  -1.04265  -0.96688  -0.95562  -0.87698
 Alpha  occ. eigenvalues --   -0.86133  -0.82396  -0.80339  -0.78989  -0.77442
 Alpha  occ. eigenvalues --   -0.72013  -0.71139  -0.70443  -0.65916  -0.64982
 Alpha  occ. eigenvalues --   -0.64723  -0.62218  -0.61524  -0.60055  -0.58292
 Alpha  occ. eigenvalues --   -0.55989  -0.55229  -0.53372  -0.53103  -0.53057
 Alpha  occ. eigenvalues --   -0.52807  -0.50639  -0.48783  -0.48768  -0.48622
 Alpha  occ. eigenvalues --   -0.47400  -0.46519  -0.46454  -0.44776  -0.44508
 Alpha  occ. eigenvalues --   -0.37313  -0.36329
 Alpha virt. eigenvalues --    0.05091   0.11285   0.16563   0.18995   0.22700
 Alpha virt. eigenvalues --    0.23730   0.25512   0.26274   0.27229   0.28162
 Alpha virt. eigenvalues --    0.28825   0.30185   0.30979   0.31075   0.32026

 Mulliken charges:
               1
     1  C   -0.172568
     2  C   -0.218320
     3  C   -0.171186
     4  C    0.158702
     5  C   -0.173519
     6  C   -0.224498
     7  H    0.225534
     8  H    0.223229
     9  H    0.275505
    10  H    0.275349
    11  H    0.234269
    12  N    0.488117
    13  O   -0.460432
    14  O   -0.460594
    15  C   -0.298442
    16  C   -0.305122
    17  C   -0.477610
    18  H    0.145326
    19  H    0.153805
    20  H    0.142725
    21  H    0.159270
    22  H    0.160534
    23  H    0.151194
    24  H    0.164473
    25  C   -0.298554
    26  C   -0.299939
    27  C   -0.476134
    28  H    0.147836
    29  H    0.152710
    30  H    0.150754
    31  H    0.153523
    32  H    0.156797
    33  H    0.155487
    34  H    0.161781
 Sum of Mulliken charges =  -0.00000

 Dipole moment (field-independent basis, Debye):
    X=             -3.6492    Y=              3.3978    Z=              1.8165  Tot=              5.3067
 Quadrupole moment (field-independent basis, Debye-Ang):
   XX=           -114.7109   YY=            -91.5030   ZZ=            -96.7997
   XY=             15.0393   XZ=              6.9443   YZ=              0.0723

 Normal termination of Gaussian 16 at Thu May  6 12:31:02 2021.
