 Gaussian 16, Revision A.03,
 Gaussian 16:  EM64L-G16RevA.03 25-Dec-2016

 -------------
 #p 6-31g* mp2
 -------------

 ------------------------------------------------------
 Input file generated by CHIRIPA (05-May-2021 14:57:27)
 ------------------------------------------------------
 Symbolic Z-matrix:
 Charge =  0 Multiplicity = 1

                         Standard orientation:
 ---------------------------------------------------------------------
 Center     Atomic      Atomic             Coordinates (Angstroms)
 Number     Number       Type             X           Y           Z
 ---------------------------------------------------------------------
      1          6           0       -1.380725   -1.633180   -0.551031
      2          6           0       -2.681015   -2.147349   -0.588430
      3          6           0       -3.780742   -1.314185   -0.362629
      4          6           0       -3.542591    0.034222   -0.101148
      5          6           0       -2.259057    0.576347   -0.057210
      6          6           0       -1.174260   -0.275367   -0.286007
      7          1           0       -0.532230   -2.287607   -0.727602
      8          1           0       -2.844359   -3.201436   -0.794013
      9          1           0       -4.797950   -1.685903   -0.385692
     10          1           0       -2.127846    1.631416    0.150228
     11          1           0       -0.165546    0.126703   -0.256345
     12          7           0       -4.698920    0.926074    0.139484
     13          8           0       -4.462414    2.110390    0.367736
     14          8           0       -5.819861    0.423906    0.095281
     15          6           0        3.697737    2.562512   -0.354310
     16          6           0        4.517778    1.603752   -0.958323
     17          6           0        4.335295    0.243618   -0.691334
     18          6           0        3.318591   -0.124067    0.188673
     19          6           0        2.485226    0.807361    0.806116
     20          6           0        2.685863    2.161962    0.524433
     21          1           0        3.846546    3.616948   -0.567421
     22          1           0        5.304405    1.911922   -1.641183
     23          1           0        4.955727   -0.519631   -1.145132
     24          1           0        1.709408    0.469568    1.482446
     25          1           0        2.047497    2.904346    0.994966
     26          7           0        3.115795   -1.561052    0.479100
     27          8           0        2.213045   -1.859153    1.258083
     28          8           0        3.863433   -2.362049   -0.077744
 ---------------------------------------------------------------------

 SCF Done:  E(RHF) =  -868.338698154     A.U. after   16 cycles
 E2 =    -0.2600493390D+01 EUMP2 =    -0.87093919154391D+03

 The electronic state is 1-A.
 Alpha  occ. eigenvalues --  -20.61894 -20.61870 -20.60622 -20.60608 -15.86916
 Alpha  occ. eigenvalues --  -15.85669 -11.32217 -11.30913 -11.28756 -11.28698
 Alpha  occ. eigenvalues --  -11.28390 -11.27736 -11.27677 -11.27539 -11.27464
 Alpha  occ. eigenvalues --  -11.27059 -11.26422 -11.26377  -1.60961  -1.59696
 Alpha  occ. eigenvalues --   -1.40512  -1.39254  -1.20360  -1.19067  -1.09747
 Alpha  occ. eigenvalues --   -1.08447  -1.05741  -1.04473  -0.96600  -0.95309
 Alpha  occ. eigenvalues --   -0.87132  -0.85855  -0.83424  -0.82169  -0.78507
 Alpha  occ. eigenvalues --   -0.77264  -0.73119  -0.72302  -0.71888  -0.71420
 Alpha  occ. eigenvalues --   -0.71019  -0.70092  -0.65989  -0.65721  -0.64708
 Alpha  occ. eigenvalues --   -0.64489  -0.63070  -0.61829  -0.56182  -0.54870
 Alpha  occ. eigenvalues --   -0.54083  -0.53803  -0.52778  -0.52511  -0.49897
 Alpha  occ. eigenvalues --   -0.49877  -0.48654  -0.48632  -0.45921  -0.44689
 Alpha  occ. eigenvalues --   -0.38299  -0.37334  -0.36965  -0.36090
 Alpha virt. eigenvalues --    0.03964   0.05299   0.10183   0.11554   0.15508
 Alpha virt. eigenvalues --    0.16816   0.20413   0.22004   0.26177   0.27253
 Alpha virt. eigenvalues --    0.28338   0.28600   0.30298   0.31131   0.31871

 Mulliken charges:
               1
     1  C   -0.168678
     2  C   -0.219468
     3  C   -0.170948
     4  C    0.158194
     5  C   -0.174423
     6  C   -0.222589
     7  H    0.236781
     8  H    0.224870
     9  H    0.274825
    10  H    0.269476
    11  H    0.222049
    12  N    0.488375
    13  O   -0.463764
    14  O   -0.460520
    15  C   -0.169702
    16  C   -0.217150
    17  C   -0.170540
    18  C    0.157949
    19  C   -0.183739
    20  C   -0.219940
    21  H    0.230406
    22  H    0.227577
    23  H    0.277935
    24  H    0.278038
    25  H    0.227917
    26  N    0.486513
    27  O   -0.463317
    28  O   -0.456127
 Sum of Mulliken charges =  -0.00000

 Dipole moment (field-independent basis, Debye):
    X=              5.2054    Y=              1.8510    Z=             -1.9356  Tot=              5.8540
 Quadrupole moment (field-independent basis, Debye-Ang):
   XX=           -124.0137   YY=           -103.1646   ZZ=           -104.3949
   XY=             30.7937   XZ=             -3.1454   YZ=              2.7737

 Normal termination of Gaussian 16 at Fri May  7 03:36:04 2021.
