 Gaussian 16, Revision A.03,
 Gaussian 16:  EM64L-G16RevA.03 25-Dec-2016

 -------------
 #p 6-31g* mp2
 -------------

 ------------------------------------------------------
 Input file generated by CHIRIPA (05-May-2021 14:57:26)
 ------------------------------------------------------
 Symbolic Z-matrix:
 Charge =  0 Multiplicity = 1

                         Standard orientation:
 ---------------------------------------------------------------------
 Center     Atomic      Atomic             Coordinates (Angstroms)
 Number     Number       Type             X           Y           Z
 ---------------------------------------------------------------------
      1          6           0       -6.089212    1.099516   -0.156401
      2          6           0       -5.339349    0.785991   -1.294790
      3          6           0       -4.180300    0.011237   -1.190343
      4          6           0       -3.798498   -0.435388    0.073795
      5          6           0       -4.524386   -0.139800    1.226620
      6          6           0       -5.680059    0.636436    1.098458
      7          1           0       -6.988278    1.701939   -0.246749
      8          1           0       -5.654712    1.144261   -2.270614
      9          1           0       -3.581057   -0.246294   -2.055215
     10          1           0       -4.184825   -0.511319    2.185833
     11          1           0       -6.260450    0.878371    1.984268
     12          7           0       -2.573252   -1.256370    0.196921
     13          8           0       -2.258153   -1.637708    1.322057
     14          8           0       -1.951204   -1.502973   -0.834040
     15          6           0        1.735813    1.398814   -0.227282
     16          6           0        1.898770    0.065521   -0.617533
     17          6           0        3.148952   -0.553462   -0.525589
     18          6           0        4.219369    0.193859   -0.036701
     19          6           0        4.088847    1.523843    0.360029
     20          6           0        2.829443    2.122444    0.259396
     21          1           0        0.761059    1.871739   -0.302082
     22          1           0        1.051219   -0.498896   -0.995863
     23          1           0        3.303201   -1.584248   -0.820725
     24          1           0        4.952434    2.060802    0.733271
     25          1           0        2.705831    3.158044    0.563202
     26          7           0        5.547762   -0.450642    0.065235
     27          8           0        6.475007    0.229428    0.499235
     28          8           0        5.636557   -1.623669   -0.290798
 ---------------------------------------------------------------------

 SCF Done:  E(RHF) =  -868.339657816     A.U. after   16 cycles
 E2 =    -0.2598512209D+01 EUMP2 =    -0.87093817002416D+03

 The electronic state is 1-A.
 Alpha  occ. eigenvalues --  -20.61825 -20.61773 -20.60098 -20.60085 -15.86822
 Alpha  occ. eigenvalues --  -15.85139 -11.31990 -11.30383 -11.28543 -11.28511
 Alpha  occ. eigenvalues --  -11.28218 -11.27493 -11.27473 -11.26967 -11.26828
 Alpha  occ. eigenvalues --  -11.26642 -11.26009 -11.25710  -1.60862  -1.59171
 Alpha  occ. eigenvalues --   -1.40420  -1.38728  -1.20140  -1.18524  -1.09569
 Alpha  occ. eigenvalues --   -1.07950  -1.05507  -1.03886  -0.96435  -0.94813
 Alpha  occ. eigenvalues --   -0.86913  -0.85292  -0.83270  -0.81631  -0.78346
 Alpha  occ. eigenvalues --   -0.76690  -0.73039  -0.72177  -0.71363  -0.71233
 Alpha  occ. eigenvalues --   -0.70491  -0.69664  -0.65789  -0.65498  -0.64171
 Alpha  occ. eigenvalues --   -0.63852  -0.62852  -0.61215  -0.56003  -0.54432
 Alpha  occ. eigenvalues --   -0.53854  -0.53588  -0.52250  -0.51952  -0.49811
 Alpha  occ. eigenvalues --   -0.49775  -0.48124  -0.48106  -0.45858  -0.44160
 Alpha  occ. eigenvalues --   -0.38107  -0.37105  -0.36522  -0.35480
 Alpha virt. eigenvalues --    0.04135   0.05804   0.10552   0.12166   0.15658
 Alpha virt. eigenvalues --    0.17337   0.20742   0.22343   0.26677   0.27566
 Alpha virt. eigenvalues --    0.28428   0.29029   0.30358   0.31735   0.32040

 Mulliken charges:
               1
     1  C   -0.170085
     2  C   -0.218604
     3  C   -0.172300
     4  C    0.156568
     5  C   -0.170822
     6  C   -0.218604
     7  H    0.228206
     8  H    0.225496
     9  H    0.274862
    10  H    0.277314
    11  H    0.226039
    12  N    0.488052
    13  O   -0.454566
    14  O   -0.468175
    15  C   -0.172203
    16  C   -0.223562
    17  C   -0.172256
    18  C    0.158507
    19  C   -0.173052
    20  C   -0.218437
    21  H    0.221065
    22  H    0.244358
    23  H    0.276642
    24  H    0.272461
    25  H    0.218979
    26  N    0.488064
    27  O   -0.463340
    28  O   -0.460608
 Sum of Mulliken charges =  -0.00000

 Dipole moment (field-independent basis, Debye):
    X=             -9.4796    Y=              5.0460    Z=             -0.7640  Tot=             10.7661
 Quadrupole moment (field-independent basis, Debye-Ang):
   XX=           -111.7132   YY=           -104.0109   ZZ=            -99.9315
   XY=              0.7073   XZ=             -0.3130   YZ=              1.5784

 Normal termination of Gaussian 16 at Thu May  6 01:59:38 2021.
