 Gaussian 16, Revision A.03,
 Gaussian 16:  EM64L-G16RevA.03 25-Dec-2016

 -------------
 #p 6-31g* mp2
 -------------

 ------------------------------------------------------
 Input file generated by CHIRIPA (05-May-2021 14:53:17)
 ------------------------------------------------------
 Symbolic Z-matrix:
 Charge =  0 Multiplicity = 1

                         Standard orientation:
 ---------------------------------------------------------------------
 Center     Atomic      Atomic             Coordinates (Angstroms)
 Number     Number       Type             X           Y           Z
 ---------------------------------------------------------------------
      1          6           0       -4.198547    0.723369    0.574164
      2          6           0       -2.987858    1.577604    0.196675
      3          6           0       -2.835787    2.812755    1.084972
      4          1           0       -5.107160    1.337508    0.509346
      5          1           0       -4.105915    0.412066    1.623881
      6          1           0       -3.082062    1.886053   -0.852420
      7          1           0       -2.082043    0.961308    0.262215
      8          1           0       -2.716687    2.520943    2.133429
      9          1           0       -3.722387    3.450942    1.012461
     10          1           0       -1.964146    3.409039    0.797660
     11          6           0       -4.363949   -0.515041   -0.304876
     12          6           0       -5.574638   -1.369277    0.072613
     13          6           0       -5.726710   -2.604428   -0.815683
     14          1           0       -4.456582   -0.203739   -1.354592
     15          1           0       -3.455337   -1.129180   -0.240058
     16          1           0       -6.480453   -0.752981    0.007074
     17          1           0       -5.480435   -1.677726    1.121708
     18          1           0       -4.840109   -3.242615   -0.743172
     19          1           0       -5.845810   -2.312616   -1.864140
     20          1           0       -6.598351   -3.200711   -0.528372
     21          6           0        1.614954    1.601078   -0.842184
     22          6           0        1.214250    0.397767   -0.252269
     23          6           0        2.163965   -0.541756    0.159907
     24          6           0        3.511953   -0.244032   -0.033941
     25          6           0        3.942637    0.945907   -0.618619
     26          6           0        2.975470    1.870832   -1.023156
     27          1           0        0.870415    2.325252   -1.159404
     28          1           0        0.158352    0.185593   -0.110471
     29          1           0        1.881505   -1.481218    0.619305
     30          1           0        5.002543    1.129187   -0.746775
     31          1           0        3.289571    2.804512   -1.481008
     32          7           0        4.526611   -1.230935    0.398368
     33          8           0        5.707997   -0.944810    0.216447
     34          8           0        4.121300   -2.271907    0.910946
 ---------------------------------------------------------------------

 SCF Done:  E(RHF) =  -669.535524293     A.U. after   15 cycles
 E2 =    -0.2091113516D+01 EUMP2 =    -0.67162663780952D+03

 The electronic state is 1-A.
 Alpha  occ. eigenvalues --  -20.60738 -20.60733 -15.85791 -11.31151 -11.27720
 Alpha  occ. eigenvalues --  -11.27715 -11.27454 -11.26734 -11.26705 -11.22743
 Alpha  occ. eigenvalues --  -11.22221 -11.22164 -11.22092 -11.22035 -11.21519
 Alpha  occ. eigenvalues --   -1.59814  -1.39368  -1.19322  -1.09235  -1.08716
 Alpha  occ. eigenvalues --   -1.04726  -1.04311  -0.96726  -0.95552  -0.87743
 Alpha  occ. eigenvalues --   -0.86126  -0.82387  -0.80412  -0.79030  -0.77436
 Alpha  occ. eigenvalues --   -0.72010  -0.71137  -0.70427  -0.65890  -0.64973
 Alpha  occ. eigenvalues --   -0.64735  -0.62127  -0.61657  -0.60124  -0.58345
 Alpha  occ. eigenvalues --   -0.55993  -0.55223  -0.53437  -0.53154  -0.53052
 Alpha  occ. eigenvalues --   -0.52832  -0.50659  -0.48804  -0.48766  -0.48668
 Alpha  occ. eigenvalues --   -0.47437  -0.46564  -0.46466  -0.44775  -0.44560
 Alpha  occ. eigenvalues --   -0.37300  -0.36328
 Alpha virt. eigenvalues --    0.05099   0.11310   0.16590   0.19196   0.22518
 Alpha virt. eigenvalues --    0.23789   0.24502   0.26236   0.26541   0.28296
 Alpha virt. eigenvalues --    0.28884   0.29825   0.31013   0.31632   0.32256

 Mulliken charges:
               1
     1  C   -0.298085
     2  C   -0.306719
     3  C   -0.474891
     4  H    0.153168
     5  H    0.152103
     6  H    0.152665
     7  H    0.145234
     8  H    0.159212
     9  H    0.159603
    10  H    0.156101
    11  C   -0.298344
    12  C   -0.300348
    13  C   -0.476230
    14  H    0.150383
    15  H    0.146236
    16  H    0.153366
    17  H    0.153396
    18  H    0.155842
    19  H    0.155703
    20  H    0.162494
    21  C   -0.173777
    22  C   -0.224777
    23  C   -0.172504
    24  C    0.159006
    25  C   -0.171226
    26  C   -0.218545
    27  H    0.226365
    28  H    0.233215
    29  H    0.275773
    30  H    0.275455
    31  H    0.223273
    32  N    0.487967
    33  O   -0.460557
    34  O   -0.460555
 Sum of Mulliken charges =  -0.00000

 Dipole moment (field-independent basis, Debye):
    X=             -3.8149    Y=              3.4951    Z=             -1.4912  Tot=              5.3845
 Quadrupole moment (field-independent basis, Debye-Ang):
   XX=           -116.2096   YY=            -95.4304   ZZ=            -94.7455
   XY=             15.1577   XZ=             -6.5190   YZ=             -1.7118

 Normal termination of Gaussian 16 at Wed May  5 15:43:41 2021.
