 Gaussian 16, Revision A.03,
 Gaussian 16:  EM64L-G16RevA.03 25-Dec-2016

 -------------
 #p 6-31g* mp2
 -------------

 ------------------------------------------------------
 Input file generated by CHIRIPA (05-May-2021 14:53:17)
 ------------------------------------------------------
 Symbolic Z-matrix:
 Charge =  0 Multiplicity = 1

                         Standard orientation:
 ---------------------------------------------------------------------
 Center     Atomic      Atomic             Coordinates (Angstroms)
 Number     Number       Type             X           Y           Z
 ---------------------------------------------------------------------
      1          6           0       -3.761324   -0.477120    0.240913
      2          6           0       -4.792432    0.312219   -0.566396
      3          6           0       -6.031343    0.676336    0.252330
      4          1           0       -4.229939   -1.392910    0.626494
      5          1           0       -3.461952    0.113781    1.117615
      6          1           0       -5.088740   -0.279414   -1.442060
      7          1           0       -4.321254    1.226142   -0.950261
      8          1           0       -5.755280    1.287495    1.117705
      9          1           0       -6.527126   -0.226615    0.623111
     10          1           0       -6.755273    1.240224   -0.344174
     11          6           0       -2.517106   -0.848484   -0.563909
     12          6           0       -1.485999   -1.637823    0.243399
     13          6           0       -0.247087   -2.001940   -0.575326
     14          1           0       -2.816478   -1.439385   -1.440611
     15          1           0       -2.048491    0.067306   -0.949490
     16          1           0       -1.957176   -2.551746    0.627264
     17          1           0       -1.189690   -1.046190    1.119064
     18          1           0        0.248696   -1.098989   -0.946108
     19          1           0       -0.523150   -2.613099   -1.440701
     20          1           0        0.476843   -2.565828    0.021177
     21          6           0        1.078728    2.633041    0.192942
     22          6           0        1.972547    2.411819   -0.859992
     23          6           0        2.738820    1.243426   -0.907239
     24          6           0        2.585324    0.313321    0.119715
     25          6           0        1.703304    0.504932    1.182078
     26          6           0        0.947191    1.680571    1.208826
     27          1           0        0.487414    3.543490    0.221682
     28          1           0        2.076777    3.149774   -1.650309
     29          1           0        3.438298    1.046752   -1.710650
     30          1           0        1.621275   -0.249085    1.955479
     31          1           0        0.253827    1.849711    2.027777
     32          7           0        3.391165   -0.927439    0.080548
     33          8           0        3.237469   -1.731339    0.997477
     34          8           0        4.161221   -1.072551   -0.866338
 ---------------------------------------------------------------------

 SCF Done:  E(RHF) =  -669.535019701     A.U. after   15 cycles
 E2 =    -0.2094332871D+01 EUMP2 =    -0.67162935257215D+03

 The electronic state is 1-A.
 Alpha  occ. eigenvalues --  -20.60858 -20.60853 -15.85882 -11.31222 -11.27835
 Alpha  occ. eigenvalues --  -11.27809 -11.27592 -11.26861 -11.26851 -11.21888
 Alpha  occ. eigenvalues --  -11.21653 -11.21637 -11.21499 -11.21361 -11.20759
 Alpha  occ. eigenvalues --   -1.59912  -1.39469  -1.19448  -1.08835  -1.08602
 Alpha  occ. eigenvalues --   -1.04852  -1.03644  -0.96086  -0.95661  -0.87102
 Alpha  occ. eigenvalues --   -0.86235  -0.82503  -0.79731  -0.78422  -0.77545
 Alpha  occ. eigenvalues --   -0.72115  -0.71232  -0.70549  -0.65256  -0.65094
 Alpha  occ. eigenvalues --   -0.64847  -0.62202  -0.61086  -0.59443  -0.57684
 Alpha  occ. eigenvalues --   -0.55514  -0.55331  -0.53148  -0.52932  -0.52731
 Alpha  occ. eigenvalues --   -0.52443  -0.50006  -0.48875  -0.48872  -0.48017
 Alpha  occ. eigenvalues --   -0.46788  -0.45949  -0.45895  -0.44887  -0.43847
 Alpha  occ. eigenvalues --   -0.37369  -0.36422
 Alpha virt. eigenvalues --    0.04946   0.11162   0.16378   0.20847   0.22752
 Alpha virt. eigenvalues --    0.24116   0.25926   0.26800   0.27482   0.28020
 Alpha virt. eigenvalues --    0.28522   0.30827   0.31193   0.31618   0.31898

 Mulliken charges:
               1
     1  C   -0.297248
     2  C   -0.299251
     3  C   -0.475484
     4  H    0.151342
     5  H    0.144226
     6  H    0.153598
     7  H    0.149137
     8  H    0.153173
     9  H    0.156593
    10  H    0.160530
    11  C   -0.298294
    12  C   -0.297313
    13  C   -0.488611
    14  H    0.151170
    15  H    0.147922
    16  H    0.153525
    17  H    0.142207
    18  H    0.155306
    19  H    0.155895
    20  H    0.174362
    21  C   -0.171653
    22  C   -0.218251
    23  C   -0.172533
    24  C    0.158907
    25  C   -0.167704
    26  C   -0.218019
    27  H    0.226009
    28  H    0.223934
    29  H    0.276138
    30  H    0.276008
    31  H    0.223793
    32  N    0.490322
    33  O   -0.460441
    34  O   -0.459296
 Sum of Mulliken charges =  -0.00000

 Dipole moment (field-independent basis, Debye):
    X=             -2.7207    Y=              4.3180    Z=              0.1058  Tot=              5.1047
 Quadrupole moment (field-independent basis, Debye-Ang):
   XX=           -109.8741   YY=            -91.2901   ZZ=            -91.5024
   XY=             11.9722   XZ=             -1.4528   YZ=             -0.8360

 Normal termination of Gaussian 16 at Thu May  6 15:39:19 2021.
