 Gaussian 16, Revision A.03,
 Gaussian 16:  EM64L-G16RevA.03 25-Dec-2016

 -------------
 #p 6-31g* mp2
 -------------

 ------------------------------------------------------
 Input file generated by CHIRIPA (05-May-2021 14:57:22)
 ------------------------------------------------------
 Symbolic Z-matrix:
 Charge =  0 Multiplicity = 1

                         Standard orientation:
 ---------------------------------------------------------------------
 Center     Atomic      Atomic             Coordinates (Angstroms)
 Number     Number       Type             X           Y           Z
 ---------------------------------------------------------------------
      1          6           0        4.767802    0.614247   -0.884019
      2          6           0        4.037631   -0.457799   -1.407556
      3          6           0        2.895084   -0.926151   -0.751980
      4          6           0        2.509524   -0.296235    0.430323
      5          6           0        3.215969    0.773951    0.977067
      6          6           0        4.355367    1.225622    0.304526
      7          1           0        5.654137    0.971595   -1.399876
      8          1           0        4.355587   -0.934523   -2.330422
      9          1           0        2.311242   -1.754257   -1.135109
     10          1           0        2.874300    1.228914    1.898852
     11          1           0        4.920481    2.058379    0.713435
     12          7           0        1.301627   -0.783229    1.133331
     13          8           0        0.982814   -0.211167    2.173399
     14          8           0        0.696562   -1.727775    0.630971
     15          6           0       -2.862601   -2.301837   -0.367776
     16          6           0       -2.103962   -1.626410   -1.329434
     17          6           0       -2.011538   -0.231558   -1.309567
     18          6           0       -2.693712    0.459385   -0.309303
     19          6           0       -3.457552   -0.184878    0.662686
     20          6           0       -3.535788   -1.580188    0.623467
     21          1           0       -2.928887   -3.385569   -0.390726
     22          1           0       -1.580097   -2.184258   -2.100418
     23          1           0       -1.431276    0.316643   -2.041816
     24          1           0       -3.968599    0.398552    1.418899
     25          1           0       -4.125697   -2.102080    1.371585
     26          7           0       -2.603377    1.936294   -0.278029
     27          8           0       -3.213802    2.521933    0.613625
     28          8           0       -1.923858    2.480291   -1.145760
 ---------------------------------------------------------------------

 SCF Done:  E(RHF) =  -868.337964611     A.U. after   16 cycles
 E2 =    -0.2600738914D+01 EUMP2 =    -0.87093870352582D+03

 The electronic state is 1-A.
 Alpha  occ. eigenvalues --  -20.60949 -20.60942 -20.59972 -20.59946 -15.85975
 Alpha  occ. eigenvalues --  -15.85006 -11.31281 -11.30103 -11.27898 -11.27793
 Alpha  occ. eigenvalues --  -11.27559 -11.26873 -11.26799 -11.26679 -11.26622
 Alpha  occ. eigenvalues --  -11.26330 -11.25656 -11.25605  -1.60011  -1.59039
 Alpha  occ. eigenvalues --   -1.39571  -1.38603  -1.19442  -1.18229  -1.08849
 Alpha  occ. eigenvalues --   -1.07682  -1.04840  -1.03628  -0.95700  -0.94576
 Alpha  occ. eigenvalues --   -0.86243  -0.85059  -0.82541  -0.81442  -0.77601
 Alpha  occ. eigenvalues --   -0.76524  -0.72221  -0.71336  -0.71243  -0.70557
 Alpha  occ. eigenvalues --   -0.70344  -0.69398  -0.65103  -0.64847  -0.63924
 Alpha  occ. eigenvalues --   -0.63692  -0.62198  -0.61034  -0.55340  -0.54164
 Alpha  occ. eigenvalues --   -0.53168  -0.52938  -0.51911  -0.51779  -0.48981
 Alpha  occ. eigenvalues --   -0.48934  -0.48007  -0.47971  -0.44988  -0.44070
 Alpha  occ. eigenvalues --   -0.37411  -0.36437  -0.36129  -0.35121
 Alpha virt. eigenvalues --    0.04921   0.06042   0.11215   0.12472   0.16437
 Alpha virt. eigenvalues --    0.17631   0.21293   0.22374   0.27111   0.27877
 Alpha virt. eigenvalues --    0.28563   0.29277   0.30860   0.31787   0.32656

 Mulliken charges:
               1
     1  C   -0.170079
     2  C   -0.217910
     3  C   -0.172058
     4  C    0.159468
     5  C   -0.168686
     6  C   -0.217562
     7  H    0.226410
     8  H    0.222330
     9  H    0.269456
    10  H    0.277865
    11  H    0.225334
    12  N    0.488609
    13  O   -0.457870
    14  O   -0.464724
    15  C   -0.161762
    16  C   -0.201348
    17  C   -0.174183
    18  C    0.159888
    19  C   -0.167070
    20  C   -0.214559
    21  H    0.222214
    22  H    0.215451
    23  H    0.267696
    24  H    0.272799
    25  H    0.220460
    26  N    0.488497
    27  O   -0.461513
    28  O   -0.467154
 Sum of Mulliken charges =  -0.00000

 Dipole moment (field-independent basis, Debye):
    X=              4.0825    Y=             -3.5766    Z=             -2.3868  Tot=              5.9293
 Quadrupole moment (field-independent basis, Debye-Ang):
   XX=            -80.9832   YY=           -109.3934   ZZ=           -101.9846
   XY=             18.3723   XZ=             -6.5877   YZ=              6.0808

 Normal termination of Gaussian 16 at Thu May  6 00:11:04 2021.
