 Gaussian 16, Revision A.03,
 Gaussian 16:  EM64L-G16RevA.03 25-Dec-2016

 -------------
 #p 6-31g* mp2
 -------------

 ------------------------------------------------------
 Input file generated by CHIRIPA (05-May-2021 14:51:14)
 ------------------------------------------------------
 Symbolic Z-matrix:
 Charge =  0 Multiplicity = 1

                         Standard orientation:
 ---------------------------------------------------------------------
 Center     Atomic      Atomic             Coordinates (Angstroms)
 Number     Number       Type             X           Y           Z
 ---------------------------------------------------------------------
      1          6           0        2.665507   -0.167719    0.700801
      2          6           0        2.584996   -1.604069    1.218878
      3          6           0        1.271541   -1.898114    1.944251
      4          1           0        2.547206    0.526603    1.543930
      5          1           0        1.821349    0.017805    0.022293
      6          1           0        3.429830   -1.787260    1.895127
      7          1           0        2.703694   -2.295054    0.374446
      8          1           0        0.418899   -1.742904    1.275288
      9          1           0        1.149160   -1.232225    2.804610
     10          1           0        1.235217   -2.930333    2.306280
     11          6           0        3.972746    0.141522   -0.026678
     12          6           0        4.053257    1.577871   -0.544755
     13          6           0        5.366712    1.871917   -1.270128
     14          1           0        4.816904   -0.044002    0.651830
     15          1           0        4.091046   -0.552801   -0.869806
     16          1           0        3.934559    2.268856    0.299678
     17          1           0        3.208423    1.761063   -1.221004
     18          1           0        5.489092    1.206028   -2.130486
     19          1           0        6.219354    1.716706   -0.601164
     20          1           0        5.403035    2.904136   -1.632156
     21          6           0       -3.365043   -0.636674   -0.735958
     22          6           0       -2.037360   -1.390169   -0.822497
     23          6           0       -2.145308   -2.687977   -1.623645
     24          1           0       -4.120863   -1.289772   -0.278637
     25          1           0       -3.718671   -0.413112   -1.752010
     26          1           0       -1.685650   -1.611029    0.193444
     27          1           0       -1.284563   -0.735135   -1.279490
     28          1           0       -2.472595   -2.482303   -2.647942
     29          1           0       -2.875960   -3.363175   -1.166637
     30          1           0       -1.184876   -3.210481   -1.672826
     31          6           0       -3.273210    0.662872    0.061835
     32          6           0       -4.600893    1.416366    0.148373
     33          6           0       -4.492944    2.714174    0.949521
     34          1           0       -2.919581    0.439309    1.077887
     35          1           0       -2.517389    1.315970   -0.395487
     36          1           0       -5.353690    0.761332    0.605367
     37          1           0       -4.952602    1.637227   -0.867568
     38          1           0       -3.762292    3.389372    0.492514
     39          1           0       -4.165658    2.508502    1.973817
     40          1           0       -5.453376    3.236678    0.998703
 ---------------------------------------------------------------------

 SCF Done:  E(RHF) =  -470.733325226     A.U. after   11 cycles
 E2 =    -0.1582713491D+01 EUMP2 =    -0.47231603871692D+03

 The electronic state is 1-A.
 Alpha  occ. eigenvalues --  -11.21651 -11.21607 -11.21594 -11.21571 -11.21426
 Alpha  occ. eigenvalues --  -11.21382 -11.21363 -11.21321 -11.21114 -11.21071
 Alpha  occ. eigenvalues --  -11.21066 -11.21001  -1.08457  -1.08405  -1.03566
 Alpha  occ. eigenvalues --   -1.03498  -0.96005  -0.95952  -0.87024  -0.86968
 Alpha  occ. eigenvalues --   -0.79676  -0.79528  -0.78296  -0.78192  -0.65100
 Alpha  occ. eigenvalues --   -0.65028  -0.61024  -0.60855  -0.59387  -0.59309
 Alpha  occ. eigenvalues --   -0.57649  -0.57535  -0.55323  -0.55207  -0.52700
 Alpha  occ. eigenvalues --   -0.52650  -0.52444  -0.52371  -0.50026  -0.49844
 Alpha  occ. eigenvalues --   -0.48078  -0.47783  -0.46754  -0.46502  -0.45903
 Alpha  occ. eigenvalues --   -0.45752  -0.45712  -0.45514  -0.43807  -0.43762
 Alpha virt. eigenvalues --    0.21492   0.23108   0.23589   0.24879   0.25841
 Alpha virt. eigenvalues --    0.25960   0.27118   0.27846   0.28098   0.28913
 Alpha virt. eigenvalues --    0.30477   0.31226   0.31687   0.31770   0.32156

 Mulliken charges:
               1
     1  C   -0.298968
     2  C   -0.298787
     3  C   -0.484269
     4  H    0.149616
     5  H    0.150323
     6  H    0.151701
     7  H    0.151546
     8  H    0.163908
     9  H    0.154716
    10  H    0.159686
    11  C   -0.298312
    12  C   -0.299567
    13  C   -0.475689
    14  H    0.149505
    15  H    0.149535
    16  H    0.151982
    17  H    0.151663
    18  H    0.155135
    19  H    0.155206
    20  H    0.160175
    21  C   -0.297460
    22  C   -0.307065
    23  C   -0.475641
    24  H    0.149883
    25  H    0.149583
    26  H    0.158540
    27  H    0.151411
    28  H    0.155380
    29  H    0.155584
    30  H    0.160313
    31  C   -0.298571
    32  C   -0.299678
    33  C   -0.475732
    34  H    0.150052
    35  H    0.149602
    36  H    0.151997
    37  H    0.151887
    38  H    0.155226
    39  H    0.155335
    40  H    0.160248
 Sum of Mulliken charges =  -0.00000

 Dipole moment (field-independent basis, Debye):
    X=             -0.0358    Y=              0.0000    Z=             -0.0036  Tot=              0.0360
 Quadrupole moment (field-independent basis, Debye-Ang):
   XX=            -85.3765   YY=            -85.5191   ZZ=            -83.9025
   XY=              0.0548   XZ=              0.6786   YZ=             -0.4698

 Normal termination of Gaussian 16 at Thu May  6 05:36:42 2021.
