 Gaussian 16, Revision A.03,
 Gaussian 16:  EM64L-G16RevA.03 25-Dec-2016

 -------------
 #p 6-31g* mp2
 -------------

 ------------------------------------------------------
 Input file generated by CHIRIPA (05-May-2021 14:55:22)
 ------------------------------------------------------
 Symbolic Z-matrix:
 Charge =  0 Multiplicity = 1

                         Standard orientation:
 ---------------------------------------------------------------------
 Center     Atomic      Atomic             Coordinates (Angstroms)
 Number     Number       Type             X           Y           Z
 ---------------------------------------------------------------------
      1          6           0       -0.938456    2.129171   -0.268493
      2          6           0       -0.855408    1.263376    0.826964
      3          6           0       -1.866749    0.329836    1.072402
      4          6           0       -2.951776    0.289307    0.198123
      5          6           0       -3.063250    1.138455   -0.901791
      6          6           0       -2.040169    2.064062   -1.127858
      7          1           0       -0.148262    2.851286   -0.451631
      8          1           0       -0.000972    1.311690    1.496030
      9          1           0       -1.827808   -0.352313    1.912982
     10          1           0       -3.927310    1.066573   -1.551137
     11          1           0       -2.107322    2.735204   -1.979389
     12          7           0       -4.028652   -0.694791    0.447705
     13          8           0       -4.974164   -0.710470   -0.337405
     14          8           0       -3.906803   -1.431814    1.423710
     15          6           0        3.166910   -1.209537   -0.393013
     16          6           0        1.697815   -0.947814   -0.726548
     17          6           0        0.942507   -2.221054   -1.108864
     18          1           0        3.654184   -1.681071   -1.257401
     19          1           0        3.225130   -1.933173    0.431823
     20          1           0        1.642363   -0.223837   -1.549589
     21          1           0        1.214028   -0.476675    0.138666
     22          1           0        0.968107   -2.945271   -0.288221
     23          1           0        1.398875   -2.690996   -1.986067
     24          1           0       -0.105697   -2.010939   -1.343341
     25          6           0        3.935283    0.053702   -0.008880
     26          6           0        5.404377   -0.208020    0.324655
     27          6           0        6.159685    1.065219    0.706972
     28          1           0        3.877063    0.777339   -0.833717
     29          1           0        3.448008    0.525235    0.855508
     30          1           0        5.888165   -0.679161   -0.540558
     31          1           0        5.459829   -0.931999    1.147696
     32          1           0        5.703318    1.535160    1.584175
     33          1           0        6.134086    1.789436   -0.113673
     34          1           0        7.207889    0.855104    0.941448
 ---------------------------------------------------------------------

 SCF Done:  E(RHF) =  -669.534641198     A.U. after   15 cycles
 E2 =    -0.2093000842D+01 EUMP2 =    -0.67162764204063D+03

 The electronic state is 1-A.
 Alpha  occ. eigenvalues --  -20.60788 -20.60782 -15.85842 -11.31229 -11.27787
 Alpha  occ. eigenvalues --  -11.27779 -11.27514 -11.26810 -11.26800 -11.22089
 Alpha  occ. eigenvalues --  -11.21984 -11.21928 -11.21780 -11.21554 -11.21257
 Alpha  occ. eigenvalues --   -1.59863  -1.39416  -1.19400  -1.08909  -1.08779
 Alpha  occ. eigenvalues --   -1.04815  -1.03928  -0.96378  -0.95617  -0.87392
 Alpha  occ. eigenvalues --   -0.86205  -0.82458  -0.80011  -0.78742  -0.77497
 Alpha  occ. eigenvalues --   -0.72059  -0.71187  -0.70488  -0.65564  -0.65049
 Alpha  occ. eigenvalues --   -0.64807  -0.62174  -0.61325  -0.59759  -0.58010
 Alpha  occ. eigenvalues --   -0.55680  -0.55290  -0.53226  -0.52949  -0.52905
 Alpha  occ. eigenvalues --   -0.52788  -0.50322  -0.48823  -0.48813  -0.48318
 Alpha  occ. eigenvalues --   -0.47056  -0.46271  -0.46200  -0.44817  -0.44203
 Alpha  occ. eigenvalues --   -0.37330  -0.36328
 Alpha virt. eigenvalues --    0.05022   0.11204   0.16427   0.20443   0.22684
 Alpha virt. eigenvalues --    0.23959   0.25212   0.26508   0.27447   0.28147
 Alpha virt. eigenvalues --    0.28908   0.30674   0.31258   0.31489   0.31850

 Mulliken charges:
               1
     1  C   -0.169240
     2  C   -0.216066
     3  C   -0.170973
     4  C    0.158336
     5  C   -0.171263
     6  C   -0.218881
     7  H    0.226327
     8  H    0.223704
     9  H    0.275735
    10  H    0.275710
    11  H    0.223597
    12  N    0.488041
    13  O   -0.460324
    14  O   -0.460200
    15  C   -0.298352
    16  C   -0.300376
    17  C   -0.476637
    18  H    0.151368
    19  H    0.150495
    20  H    0.148612
    21  H    0.149175
    22  H    0.156527
    23  H    0.155871
    24  H    0.163455
    25  C   -0.296891
    26  C   -0.299738
    27  C   -0.475848
    28  H    0.147670
    29  H    0.142096
    30  H    0.153995
    31  H    0.153427
    32  H    0.153678
    33  H    0.154602
    34  H    0.162370
 Sum of Mulliken charges =  -0.00000

 Dipole moment (field-independent basis, Debye):
    X=              3.7927    Y=              3.4401    Z=             -0.9116  Tot=              5.2010
 Quadrupole moment (field-independent basis, Debye-Ang):
   XX=           -116.8383   YY=            -93.3936   ZZ=            -91.2609
   XY=            -10.7871   XZ=              5.1795   YZ=             -1.5352

 Normal termination of Gaussian 16 at Thu May  6 17:34:04 2021.
