 Gaussian 16, Revision A.03,
 Gaussian 16:  EM64L-G16RevA.03 25-Dec-2016

 -------------
 #p 6-31g* mp2
 -------------

 ------------------------------------------------------
 Input file generated by CHIRIPA (05-May-2021 14:57:25)
 ------------------------------------------------------
 Symbolic Z-matrix:
 Charge =  0 Multiplicity = 1

                         Standard orientation:
 ---------------------------------------------------------------------
 Center     Atomic      Atomic             Coordinates (Angstroms)
 Number     Number       Type             X           Y           Z
 ---------------------------------------------------------------------
      1          6           0        3.412010   -2.336066   -0.296939
      2          6           0        4.611640   -1.791688    0.173233
      3          6           0        4.763708   -0.407237    0.294554
      4          6           0        3.690847    0.407051   -0.064883
      5          6           0        2.483152   -0.105113   -0.536532
      6          6           0        2.353461   -1.492528   -0.649699
      7          1           0        3.302571   -3.412692   -0.388017
      8          1           0        5.435406   -2.444371    0.447928
      9          1           0        5.681415    0.040863    0.655717
     10          1           0        1.679721    0.571000   -0.802591
     11          1           0        1.420659   -1.912505   -1.015137
     12          7           0        3.839989    1.874276    0.059239
     13          8           0        2.879821    2.570148   -0.263987
     14          8           0        4.914233    2.300633    0.477400
     15          6           0       -1.513993   -1.431148    0.447426
     16          6           0       -2.287530   -1.037398    1.544296
     17          6           0       -3.481821   -0.335553    1.355533
     18          6           0       -3.874340   -0.042851    0.050334
     19          6           0       -3.125499   -0.421468   -1.062848
     20          6           0       -1.934703   -1.122470   -0.850357
     21          1           0       -0.587598   -1.976030    0.603279
     22          1           0       -1.963265   -1.275747    2.553299
     23          1           0       -4.099951   -0.018649    2.186741
     24          1           0       -3.474710   -0.169406   -2.056797
     25          1           0       -1.335986   -1.426995   -1.704081
     26          7           0       -5.136831    0.699715   -0.162061
     27          8           0       -5.460717    0.945375   -1.321969
     28          8           0       -5.778581    1.022018    0.835393
 ---------------------------------------------------------------------

 SCF Done:  E(RHF) =  -868.336442846     A.U. after   16 cycles
 E2 =    -0.2600418215D+01 EUMP2 =    -0.87093686106161D+03

 The electronic state is 1-A.
 Alpha  occ. eigenvalues --  -20.61324 -20.61319 -20.61026 -20.61019 -15.86388
 Alpha  occ. eigenvalues --  -15.86086 -11.31933 -11.31597 -11.28592 -11.28526
 Alpha  occ. eigenvalues --  -11.28372 -11.28228 -11.28163 -11.28044 -11.27730
 Alpha  occ. eigenvalues --  -11.27540 -11.27367 -11.27213  -1.60398  -1.60097
 Alpha  occ. eigenvalues --   -1.39946  -1.39646  -1.20156  -1.19805  -1.09519
 Alpha  occ. eigenvalues --   -1.09195  -1.05601  -1.05232  -0.96309  -0.95997
 Alpha  occ. eigenvalues --   -0.86995  -0.86642  -0.83156  -0.82817  -0.78168
 Alpha  occ. eigenvalues --   -0.77822  -0.72600  -0.72304  -0.71727  -0.71419
 Alpha  occ. eigenvalues --   -0.71252  -0.70975  -0.65813  -0.65717  -0.65453
 Alpha  occ. eigenvalues --   -0.65218  -0.62948  -0.62555  -0.56108  -0.55800
 Alpha  occ. eigenvalues --   -0.53895  -0.53691  -0.53539  -0.53336  -0.49377
 Alpha  occ. eigenvalues --   -0.49343  -0.49076  -0.49046  -0.45311  -0.45019
 Alpha  occ. eigenvalues --   -0.38151  -0.37847  -0.37176  -0.36825
 Alpha virt. eigenvalues --    0.04364   0.04748   0.10341   0.10753   0.15692
 Alpha virt. eigenvalues --    0.16215   0.18241   0.21979   0.24753   0.27102
 Alpha virt. eigenvalues --    0.27688   0.28698   0.30033   0.30883   0.31675

 Mulliken charges:
               1
     1  C   -0.171289
     2  C   -0.218646
     3  C   -0.168948
     4  C    0.158642
     5  C   -0.170283
     6  C   -0.224764
     7  H    0.226670
     8  H    0.226196
     9  H    0.278506
    10  H    0.278538
    11  H    0.214995
    12  N    0.487943
    13  O   -0.457934
    14  O   -0.458380
    15  C   -0.172950
    16  C   -0.217645
    17  C   -0.169056
    18  C    0.159362
    19  C   -0.168501
    20  C   -0.223117
    21  H    0.221616
    22  H    0.225812
    23  H    0.278064
    24  H    0.277600
    25  H    0.216985
    26  N    0.488096
    27  O   -0.459039
    28  O   -0.458473
 Sum of Mulliken charges =  -0.00000

 Dipole moment (field-independent basis, Debye):
    X=              3.9600    Y=             -7.6018    Z=              0.4306  Tot=              8.5822
 Quadrupole moment (field-independent basis, Debye-Ang):
   XX=           -137.5784   YY=           -110.2642   ZZ=            -99.8701
   XY=            -10.2331   XZ=             -3.3221   YZ=             -0.1997

 Normal termination of Gaussian 16 at Thu May  6 14:44:31 2021.
