 Gaussian 16, Revision A.03,
 Gaussian 16:  EM64L-G16RevA.03 25-Dec-2016

 -------------
 #p 6-31g* mp2
 -------------

 ------------------------------------------------------
 Input file generated by CHIRIPA (05-May-2021 14:57:22)
 ------------------------------------------------------
 Symbolic Z-matrix:
 Charge =  0 Multiplicity = 1

                         Standard orientation:
 ---------------------------------------------------------------------
 Center     Atomic      Atomic             Coordinates (Angstroms)
 Number     Number       Type             X           Y           Z
 ---------------------------------------------------------------------
      1          6           0        4.180353    1.840480   -1.284388
      2          6           0        4.962898    0.686579   -1.171888
      3          6           0        4.523523   -0.397403   -0.406068
      4          6           0        3.290956   -0.292952    0.236707
      5          6           0        2.488463    0.843133    0.143946
      6          6           0        2.947805    1.914943   -0.627271
      7          1           0        4.529426    2.677816   -1.881391
      8          1           0        5.920532    0.625952   -1.681110
      9          1           0        5.109204   -1.302692   -0.301920
     10          1           0        1.538280    0.874077    0.663189
     11          1           0        2.337959    2.809822   -0.712853
     12          7           0        2.815240   -1.434073    1.050302
     13          8           0        1.725604   -1.317153    1.606773
     14          8           0        3.541018   -2.423795    1.116123
     15          6           0       -2.910085    2.328887    0.996834
     16          6           0       -4.225465    1.872168    0.863778
     17          6           0       -4.491714    0.641469    0.256292
     18          6           0       -3.413761   -0.110127   -0.208906
     19          6           0       -2.092252    0.317678   -0.091063
     20          6           0       -1.849546    1.551554    0.519830
     21          1           0       -2.712401    3.286157    1.470067
     22          1           0       -5.051064    2.473739    1.233296
     23          1           0       -5.500364    0.263860    0.140294
     24          1           0       -1.290024   -0.304296   -0.469213
     25          1           0       -0.826991    1.903729    0.621801
     26          7           0       -3.683165   -1.414695   -0.853828
     27          8           0       -2.715952   -2.058026   -1.255400
     28          8           0       -4.856436   -1.769182   -0.945534
 ---------------------------------------------------------------------

 SCF Done:  E(RHF) =  -868.336503849     A.U. after   16 cycles
 E2 =    -0.2600110585D+01 EUMP2 =    -0.87093661443475D+03

 The electronic state is 1-A.
 Alpha  occ. eigenvalues --  -20.61153 -20.61130 -20.60554 -20.60533 -15.86199
 Alpha  occ. eigenvalues --  -15.85607 -11.31702 -11.31083 -11.28397 -11.28202
 Alpha  occ. eigenvalues --  -11.27988 -11.27702 -11.27698 -11.27532 -11.27374
 Alpha  occ. eigenvalues --  -11.27241 -11.26863 -11.26728  -1.60209  -1.59620
 Alpha  occ. eigenvalues --   -1.39764  -1.39169  -1.19869  -1.19301  -1.09225
 Alpha  occ. eigenvalues --   -1.08684  -1.05310  -1.04739  -0.96049  -0.95487
 Alpha  occ. eigenvalues --   -0.86693  -0.86139  -0.82890  -0.82334  -0.77942
 Alpha  occ. eigenvalues --   -0.77340  -0.72412  -0.71827  -0.71530  -0.70984
 Alpha  occ. eigenvalues --   -0.70942  -0.70417  -0.65527  -0.65331  -0.64967
 Alpha  occ. eigenvalues --   -0.64792  -0.62731  -0.62026  -0.55769  -0.55257
 Alpha  occ. eigenvalues --   -0.53599  -0.53423  -0.53037  -0.52845  -0.49180
 Alpha  occ. eigenvalues --   -0.49162  -0.48600  -0.48567  -0.45138  -0.44549
 Alpha  occ. eigenvalues --   -0.37818  -0.37297  -0.36909  -0.36329
 Alpha virt. eigenvalues --    0.04618   0.05217   0.10721   0.11317   0.16114
 Alpha virt. eigenvalues --    0.16629   0.18335   0.22109   0.24610   0.27280
 Alpha virt. eigenvalues --    0.28153   0.29044   0.30615   0.31193   0.32598

 Mulliken charges:
               1
     1  C   -0.170437
     2  C   -0.217743
     3  C   -0.169167
     4  C    0.162017
     5  C   -0.179757
     6  C   -0.217832
     7  H    0.227344
     8  H    0.226106
     9  H    0.278303
    10  H    0.271783
    11  H    0.219555
    12  N    0.488220
    13  O   -0.462034
    14  O   -0.455841
    15  C   -0.170391
    16  C   -0.218869
    17  C   -0.169717
    18  C    0.157967
    19  C   -0.166293
    20  C   -0.218343
    21  H    0.224180
    22  H    0.223298
    23  H    0.276158
    24  H    0.279707
    25  H    0.212016
    26  N    0.488173
    27  O   -0.457068
    28  O   -0.461334
 Sum of Mulliken charges =  -0.00000

 Dipole moment (field-independent basis, Debye):
    X=              2.7829    Y=              8.4074    Z=             -0.6557  Tot=              8.8803
 Quadrupole moment (field-independent basis, Debye-Ang):
   XX=            -90.7204   YY=           -108.0217   ZZ=           -108.3125
   XY=             -6.3003   XZ=            -19.3656   YZ=              1.2299

 Normal termination of Gaussian 16 at Fri May  7 00:14:53 2021.
