 Gaussian 16, Revision A.03,
 Gaussian 16:  EM64L-G16RevA.03 25-Dec-2016

 -------------
 #p 6-31g* mp2
 -------------

 ------------------------------------------------------
 Input file generated by CHIRIPA (05-May-2021 14:55:21)
 ------------------------------------------------------
 Symbolic Z-matrix:
 Charge =  0 Multiplicity = 1

                         Standard orientation:
 ---------------------------------------------------------------------
 Center     Atomic      Atomic             Coordinates (Angstroms)
 Number     Number       Type             X           Y           Z
 ---------------------------------------------------------------------
      1          6           0        2.169619    1.903532    1.593716
      2          6           0        3.175901    1.745200    0.635150
      3          6           0        3.203724    0.613121   -0.184710
      4          6           0        2.205128   -0.345195   -0.018195
      5          6           0        1.189361   -0.216124    0.927769
      6          6           0        1.181303    0.924091    1.736714
      7          1           0        2.155682    2.786118    2.226363
      8          1           0        3.944727    2.504225    0.521872
      9          1           0        3.971122    0.465239   -0.934810
     10          1           0        0.436516   -0.989839    1.017259
     11          1           0        0.398592    1.044401    2.480309
     12          7           0        2.224121   -1.547983   -0.880367
     13          8           0        1.332909   -2.377840   -0.713885
     14          8           0        3.129859   -1.638096   -1.706293
     15          6           0       -2.362815    0.765442   -0.364550
     16          6           0       -3.124875    1.978783   -0.898452
     17          6           0       -2.199433    3.125507   -1.306345
     18          1           0       -1.755069    1.072442    0.497623
     19          1           0       -1.660231    0.415103   -1.133338
     20          1           0       -3.826798    2.325882   -0.129400
     21          1           0       -3.731023    1.668818   -1.759336
     22          1           0       -1.507768    2.801909   -2.090872
     23          1           0       -1.604087    3.462706   -0.451674
     24          1           0       -2.765037    3.982547   -1.685071
     25          6           0       -3.274299   -0.389223    0.047363
     26          6           0       -2.512239   -1.602564    0.581266
     27          6           0       -3.437680   -2.749287    0.989157
     28          1           0       -3.976883   -0.038884    0.816151
     29          1           0       -3.882045   -0.696222   -0.814810
     30          1           0       -1.906090   -1.292599    1.442150
     31          1           0       -1.810316   -1.949663   -0.187787
     32          1           0       -4.033027   -3.086486    0.134487
     33          1           0       -4.129346   -2.425690    1.773686
     34          1           0       -2.872077   -3.606328    1.367884
 ---------------------------------------------------------------------

 SCF Done:  E(RHF) =  -669.535285141     A.U. after   15 cycles
 E2 =    -0.2093706951D+01 EUMP2 =    -0.67162899209174D+03

 The electronic state is 1-A.
 Alpha  occ. eigenvalues --  -20.60802 -20.60796 -15.85842 -11.31131 -11.27732
 Alpha  occ. eigenvalues --  -11.27649 -11.27478 -11.26727 -11.26714 -11.21798
 Alpha  occ. eigenvalues --  -11.21741 -11.21583 -11.21509 -11.21291 -11.21063
 Alpha  occ. eigenvalues --   -1.59869  -1.39424  -1.19322  -1.08734  -1.08613
 Alpha  occ. eigenvalues --   -1.04719  -1.03679  -0.96115  -0.95574  -0.87136
 Alpha  occ. eigenvalues --   -0.86123  -0.82414  -0.79776  -0.78510  -0.77403
 Alpha  occ. eigenvalues --   -0.72062  -0.71186  -0.70437  -0.65271  -0.64956
 Alpha  occ. eigenvalues --   -0.64734  -0.62084  -0.61070  -0.59474  -0.57735
 Alpha  occ. eigenvalues --   -0.55405  -0.55239  -0.53091  -0.52922  -0.52720
 Alpha  occ. eigenvalues --   -0.52491  -0.50061  -0.48831  -0.48818  -0.48050
 Alpha  occ. eigenvalues --   -0.46783  -0.45983  -0.45865  -0.44815  -0.43932
 Alpha  occ. eigenvalues --   -0.37310  -0.36258
 Alpha virt. eigenvalues --    0.05040   0.11258   0.16424   0.20312   0.22943
 Alpha virt. eigenvalues --    0.24046   0.25216   0.26545   0.27727   0.28122
 Alpha virt. eigenvalues --    0.29740   0.30536   0.31320   0.31612   0.32004

 Mulliken charges:
               1
     1  C   -0.170843
     2  C   -0.219180
     3  C   -0.170106
     4  C    0.155431
     5  C   -0.172185
     6  C   -0.222070
     7  H    0.225397
     8  H    0.223271
     9  H    0.275302
    10  H    0.288259
    11  H    0.222362
    12  N    0.488292
    13  O   -0.462047
    14  O   -0.460077
    15  C   -0.300900
    16  C   -0.299836
    17  C   -0.474970
    18  H    0.142857
    19  H    0.154756
    20  H    0.150458
    21  H    0.154392
    22  H    0.157600
    23  H    0.151126
    24  H    0.160456
    25  C   -0.297465
    26  C   -0.310752
    27  C   -0.474740
    28  H    0.147397
    29  H    0.153217
    30  H    0.136607
    31  H    0.173063
    32  H    0.158262
    33  H    0.152562
    34  H    0.164103
 Sum of Mulliken charges =  -0.00000

 Dipole moment (field-independent basis, Debye):
    X=             -0.0972    Y=              4.1184    Z=              2.8868  Tot=              5.0303
 Quadrupole moment (field-independent basis, Debye-Ang):
   XX=            -92.1477   YY=            -98.2343   ZZ=            -93.7241
   XY=             10.9190   XZ=              5.0838   YZ=             -1.2172

 Normal termination of Gaussian 16 at Thu May  6 20:44:43 2021.
