 Gaussian 16, Revision A.03,
 Gaussian 16:  EM64L-G16RevA.03 25-Dec-2016

 -------------
 #p 6-31g* mp2
 -------------

 ------------------------------------------------------
 Input file generated by CHIRIPA (05-May-2021 14:55:25)
 ------------------------------------------------------
 Symbolic Z-matrix:
 Charge =  0 Multiplicity = 1

                         Standard orientation:
 ---------------------------------------------------------------------
 Center     Atomic      Atomic             Coordinates (Angstroms)
 Number     Number       Type             X           Y           Z
 ---------------------------------------------------------------------
      1          6           0       -2.231531    2.776903    0.425313
      2          6           0       -1.254716    1.978961   -0.179370
      3          6           0       -1.524286    0.644139   -0.495804
      4          6           0       -2.786994    0.137502   -0.192194
      5          6           0       -3.781104    0.907164    0.410014
      6          6           0       -3.489390    2.239405    0.717560
      7          1           0       -2.013522    3.812822    0.667674
      8          1           0       -0.276970    2.393717   -0.407484
      9          1           0       -0.786497    0.004034   -0.964152
     10          1           0       -4.746539    0.465564    0.625289
     11          1           0       -4.249929    2.856753    1.187142
     12          7           0       -3.084097   -1.274248   -0.522484
     13          8           0       -4.204337   -1.696829   -0.244771
     14          8           0       -2.191100   -1.931465   -1.052823
     15          6           0        3.686293    0.261882    0.080513
     16          6           0        5.141673    0.477947   -0.335627
     17          6           0        5.489786    1.954885   -0.523420
     18          1           0        3.025316    0.702221   -0.678537
     19          1           0        3.494864    0.806432    1.015508
     20          1           0        5.330676   -0.067976   -1.268826
     21          1           0        5.799260    0.036874    0.424407
     22          1           0        5.329168    2.509802    0.406565
     23          1           0        4.857922    2.404356   -1.296289
     24          1           0        6.534847    2.086370   -0.820771
     25          6           0        3.323057   -1.209533    0.272149
     26          6           0        1.867678   -1.425597    0.688289
     27          6           0        1.519565   -2.902535    0.876082
     28          1           0        3.514487   -1.754082   -0.662846
     29          1           0        3.984033   -1.649872    1.031199
     30          1           0        1.210091   -0.984525   -0.071744
     31          1           0        1.678674   -0.879674    1.621488
     32          1           0        2.151427   -3.352006    1.648952
     33          1           0        1.680182   -3.457453   -0.053901
     34          1           0        0.474503   -3.034020    1.173433
 ---------------------------------------------------------------------

 SCF Done:  E(RHF) =  -669.535533028     A.U. after   15 cycles
 E2 =    -0.2091672912D+01 EUMP2 =    -0.67162720593983D+03

 The electronic state is 1-A.
 Alpha  occ. eigenvalues --  -20.60788 -20.60783 -15.85833 -11.31174 -11.27748
 Alpha  occ. eigenvalues --  -11.27728 -11.27487 -11.26762 -11.26744 -11.21896
 Alpha  occ. eigenvalues --  -11.21752 -11.21694 -11.21512 -11.21416 -11.20730
 Alpha  occ. eigenvalues --   -1.59858  -1.39412  -1.19349  -1.08749  -1.08643
 Alpha  occ. eigenvalues --   -1.04750  -1.03653  -0.96079  -0.95587  -0.87091
 Alpha  occ. eigenvalues --   -0.86151  -0.82419  -0.79747  -0.78487  -0.77462
 Alpha  occ. eigenvalues --   -0.72052  -0.71178  -0.70469  -0.65292  -0.65002
 Alpha  occ. eigenvalues --   -0.64751  -0.62134  -0.61026  -0.59460  -0.57693
 Alpha  occ. eigenvalues --   -0.55379  -0.55248  -0.53081  -0.52861  -0.52725
 Alpha  occ. eigenvalues --   -0.52499  -0.50020  -0.48811  -0.48810  -0.48039
 Alpha  occ. eigenvalues --   -0.46788  -0.46011  -0.45921  -0.44817  -0.43914
 Alpha  occ. eigenvalues --   -0.37331  -0.36338
 Alpha virt. eigenvalues --    0.05036   0.11268   0.16543   0.20177   0.22863
 Alpha virt. eigenvalues --    0.23985   0.25169   0.26812   0.27429   0.28198
 Alpha virt. eigenvalues --    0.29338   0.30435   0.31468   0.31592   0.32230

 Mulliken charges:
               1
     1  C   -0.170842
     2  C   -0.220140
     3  C   -0.172942
     4  C    0.157892
     5  C   -0.170848
     6  C   -0.218612
     7  H    0.225643
     8  H    0.224403
     9  H    0.280930
    10  H    0.275482
    11  H    0.223359
    12  N    0.487541
    13  O   -0.460166
    14  O   -0.460983
    15  C   -0.297074
    16  C   -0.299637
    17  C   -0.475752
    18  H    0.141497
    19  H    0.148217
    20  H    0.153767
    21  H    0.153791
    22  H    0.154221
    23  H    0.152910
    24  H    0.161977
    25  C   -0.298213
    26  C   -0.302311
    27  C   -0.474614
    28  H    0.151993
    29  H    0.151378
    30  H    0.145834
    31  H    0.150355
    32  H    0.152525
    33  H    0.159158
    34  H    0.169258
 Sum of Mulliken charges =  -0.00000

 Dipole moment (field-independent basis, Debye):
    X=              1.0610    Y=              4.8500    Z=              1.1929  Tot=              5.1060
 Quadrupole moment (field-independent basis, Debye-Ang):
   XX=            -96.3520   YY=            -94.6435   ZZ=            -94.3854
   XY=            -15.0289   XZ=             -5.1665   YZ=             -0.2811

 Normal termination of Gaussian 16 at Thu May  6 20:58:18 2021.
