 Gaussian 16, Revision A.03,
 Gaussian 16:  EM64L-G16RevA.03 25-Dec-2016

 -------------
 #p 6-31g* mp2
 -------------

 ------------------------------------------------------
 Input file generated by CHIRIPA (05-May-2021 14:51:07)
 ------------------------------------------------------
 Symbolic Z-matrix:
 Charge =  0 Multiplicity = 1

                         Standard orientation:
 ---------------------------------------------------------------------
 Center     Atomic      Atomic             Coordinates (Angstroms)
 Number     Number       Type             X           Y           Z
 ---------------------------------------------------------------------
      1          6           0        3.129093    0.333053   -0.463830
      2          6           0        2.974026   -1.180009   -0.307040
      3          6           0        3.991430   -1.967305   -1.133387
      4          1           0        3.025306    0.597864   -1.524984
      5          1           0        4.146663    0.623008   -0.167395
      6          1           0        1.956616   -1.466842   -0.602367
      7          1           0        3.078005   -1.441227    0.753889
      8          1           0        5.012605   -1.709924   -0.834128
      9          1           0        3.884845   -1.735684   -2.198090
     10          1           0        3.862572   -3.046724   -1.006457
     11          6           0        2.119049    1.133754    0.356180
     12          6           0        2.274116    2.646815    0.199390
     13          6           0        1.256713    3.434112    1.025737
     14          1           0        1.101479    0.843799    0.059745
     15          1           0        2.222836    0.868943    1.417334
     16          1           0        2.170137    2.908033   -0.861539
     17          1           0        3.291527    2.933648    0.494717
     18          1           0        1.363297    3.202491    2.090440
     19          1           0        0.235537    3.176730    0.726478
     20          1           0        1.385570    4.513530    0.898807
     21          6           0       -2.119883   -1.292068   -0.077017
     22          6           0       -1.669391   -2.012303    1.194323
     23          6           0       -0.660786   -3.127285    0.916256
     24          1           0       -2.560759   -2.023227   -0.768378
     25          1           0       -1.239702   -0.873413   -0.584369
     26          1           0       -2.550309   -2.428288    1.699850
     27          1           0       -1.229709   -1.279314    1.882817
     28          1           0        0.235214   -2.724520    0.432972
     29          1           0       -1.092887   -3.880022    0.248966
     30          1           0       -0.352260   -3.628810    1.838831
     31          6           0       -3.128260   -0.174739    0.184666
     32          6           0       -3.578751    0.545496   -1.086673
     33          6           0       -4.587356    1.660479   -0.808606
     34          1           0       -4.008440   -0.593393    0.692019
     35          1           0       -2.687383    0.556420    0.876027
     36          1           0       -4.018432   -0.187493   -1.775167
     37          1           0       -2.697834    0.961481   -1.592199
     38          1           0       -4.155255    2.413215   -0.141315
     39          1           0       -5.483357    1.257713   -0.325322
     40          1           0       -4.895882    2.162004   -1.731181
 ---------------------------------------------------------------------

 SCF Done:  E(RHF) =  -470.733295372     A.U. after   11 cycles
 E2 =    -0.1583513938D+01 EUMP2 =    -0.47231680930975D+03

 The electronic state is 1-A.
 Alpha  occ. eigenvalues --  -11.21668 -11.21659 -11.21623 -11.21564 -11.21480
 Alpha  occ. eigenvalues --  -11.21418 -11.21417 -11.21358 -11.21138 -11.21105
 Alpha  occ. eigenvalues --  -11.21083 -11.20974  -1.08506  -1.08426  -1.03598
 Alpha  occ. eigenvalues --   -1.03510  -0.96040  -0.95963  -0.87062  -0.86974
 Alpha  occ. eigenvalues --   -0.79700  -0.79546  -0.78352  -0.78214  -0.65226
 Alpha  occ. eigenvalues --   -0.64974  -0.61056  -0.60862  -0.59419  -0.59325
 Alpha  occ. eigenvalues --   -0.57689  -0.57544  -0.55365  -0.55217  -0.52731
 Alpha  occ. eigenvalues --   -0.52653  -0.52483  -0.52375  -0.50054  -0.49859
 Alpha  occ. eigenvalues --   -0.48085  -0.47807  -0.46792  -0.46545  -0.46065
 Alpha  occ. eigenvalues --   -0.45819  -0.45745  -0.45373  -0.43845  -0.43776
 Alpha virt. eigenvalues --    0.19582   0.22838   0.23657   0.24702   0.25439
 Alpha virt. eigenvalues --    0.26621   0.27233   0.27349   0.28224   0.29762
 Alpha virt. eigenvalues --    0.31002   0.31351   0.31795   0.31881   0.31929

 Mulliken charges:
               1
     1  C   -0.297586
     2  C   -0.306429
     3  C   -0.475567
     4  H    0.149708
     5  H    0.149990
     6  H    0.157187
     7  H    0.152776
     8  H    0.155415
     9  H    0.155250
    10  H    0.161026
    11  C   -0.301286
    12  C   -0.299622
    13  C   -0.475706
    14  H    0.150979
    15  H    0.149964
    16  H    0.152126
    17  H    0.152396
    18  H    0.155345
    19  H    0.154549
    20  H    0.160691
    21  C   -0.300970
    22  C   -0.299196
    23  C   -0.483271
    24  H    0.149758
    25  H    0.150356
    26  H    0.151700
    27  H    0.152684
    28  H    0.163460
    29  H    0.154371
    30  H    0.159866
    31  C   -0.298569
    32  C   -0.299550
    33  C   -0.475714
    34  H    0.149877
    35  H    0.149938
    36  H    0.152056
    37  H    0.151105
    38  H    0.155272
    39  H    0.155347
    40  H    0.160275
 Sum of Mulliken charges =  -0.00000

 Dipole moment (field-independent basis, Debye):
    X=              0.0423    Y=              0.0087    Z=              0.0021  Tot=              0.0432
 Quadrupole moment (field-independent basis, Debye-Ang):
   XX=            -84.6186   YY=            -85.5584   ZZ=            -84.4390
   XY=              1.5767   XZ=              0.9970   YZ=             -0.2952

 Normal termination of Gaussian 16 at Wed May  5 15:01:21 2021.
