 Gaussian 16, Revision A.03,
 Gaussian 16:  EM64L-G16RevA.03 25-Dec-2016

 -------------
 #p 6-31g* mp2
 -------------

 ------------------------------------------------------
 Input file generated by CHIRIPA (05-May-2021 14:55:24)
 ------------------------------------------------------
 Symbolic Z-matrix:
 Charge =  0 Multiplicity = 1

                         Standard orientation:
 ---------------------------------------------------------------------
 Center     Atomic      Atomic             Coordinates (Angstroms)
 Number     Number       Type             X           Y           Z
 ---------------------------------------------------------------------
      1          6           0       -4.557939   -2.164965   -0.091030
      2          6           0       -5.370892   -1.093519    0.293197
      3          6           0       -4.866160    0.210127    0.310555
      4          6           0       -3.537939    0.407031   -0.064076
      5          6           0       -2.702946   -0.639770   -0.451742
      6          6           0       -3.228904   -1.935076   -0.461620
      7          1           0       -4.958271   -3.174429   -0.101610
      8          1           0       -6.403415   -1.269081    0.581502
      9          1           0       -5.473437    1.057877    0.603732
     10          1           0       -1.677642   -0.433438   -0.733872
     11          1           0       -2.595239   -2.765260   -0.760465
     12          7           0       -2.992367    1.782728   -0.049659
     13          8           0       -1.818854    1.929756   -0.384156
     14          8           0       -3.748590    2.687922    0.295865
     15          6           0        4.062762   -0.636891    0.369788
     16          6           0        2.695686   -0.179048   -0.139590
     17          6           0        1.543607   -1.001100    0.438977
     18          1           0        4.204415   -1.696942    0.118447
     19          1           0        4.078573   -0.570874    1.466504
     20          1           0        2.682931   -0.244598   -1.235108
     21          1           0        2.557350    0.880086    0.112823
     22          1           0        1.527883   -0.926902    1.531154
     23          1           0        1.654177   -2.057977    0.175565
     24          1           0        0.575653   -0.656869    0.061579
     25          6           0        5.224550    0.175325   -0.199670
     26          6           0        6.591627   -0.282518    0.309708
     27          6           0        7.743705    0.539533   -0.268859
     28          1           0        5.208739    0.109307   -1.296386
     29          1           0        5.082897    1.235375    0.051671
     30          1           0        6.729961   -1.341653    0.057295
     31          1           0        6.604382   -0.216969    1.405225
     32          1           0        7.633136    1.596410   -0.005447
     33          1           0        7.759429    0.465336   -1.361036
     34          1           0        8.711660    0.195302    0.108538
 ---------------------------------------------------------------------

 SCF Done:  E(RHF) =  -669.535539868     A.U. after   15 cycles
 E2 =    -0.2090912019D+01 EUMP2 =    -0.67162645188752D+03

 The electronic state is 1-A.
 Alpha  occ. eigenvalues --  -20.60776 -20.60771 -15.85826 -11.31181 -11.27751
 Alpha  occ. eigenvalues --  -11.27740 -11.27493 -11.26770 -11.26756 -11.21483
 Alpha  occ. eigenvalues --  -11.21457 -11.21285 -11.21213 -11.21192 -11.20944
 Alpha  occ. eigenvalues --   -1.59849  -1.39403  -1.19355  -1.08752  -1.08313
 Alpha  occ. eigenvalues --   -1.04758  -1.03442  -0.95922  -0.95587  -0.86946
 Alpha  occ. eigenvalues --   -0.86156  -0.82420  -0.79500  -0.78112  -0.77471
 Alpha  occ. eigenvalues --   -0.72046  -0.71169  -0.70476  -0.65008  -0.64939
 Alpha  occ. eigenvalues --   -0.64772  -0.62146  -0.60833  -0.59277  -0.57517
 Alpha  occ. eigenvalues --   -0.55265  -0.55205  -0.53097  -0.52971  -0.52519
 Alpha  occ. eigenvalues --   -0.52310  -0.49854  -0.48804  -0.48802  -0.47817
 Alpha  occ. eigenvalues --   -0.46514  -0.45662  -0.45576  -0.44810  -0.43702
 Alpha  occ. eigenvalues --   -0.37336  -0.36354
 Alpha virt. eigenvalues --    0.05045   0.11263   0.16561   0.20651   0.22991
 Alpha virt. eigenvalues --    0.23996   0.26239   0.26790   0.27601   0.27868
 Alpha virt. eigenvalues --    0.28954   0.30311   0.31503   0.31542   0.32082

 Mulliken charges:
               1
     1  C   -0.170714
     2  C   -0.218655
     3  C   -0.170495
     4  C    0.157908
     5  C   -0.176407
     6  C   -0.220868
     7  H    0.225616
     8  H    0.223425
     9  H    0.275565
    10  H    0.285179
    11  H    0.224110
    12  N    0.487360
    13  O   -0.461543
    14  O   -0.460198
    15  C   -0.298917
    16  C   -0.298551
    17  C   -0.480923
    18  H    0.147303
    19  H    0.149801
    20  H    0.151165
    21  H    0.160890
    22  H    0.158324
    23  H    0.149927
    24  H    0.159368
    25  C   -0.298508
    26  C   -0.299566
    27  C   -0.475724
    28  H    0.149441
    29  H    0.152038
    30  H    0.150809
    31  H    0.151949
    32  H    0.156123
    33  H    0.155051
    34  H    0.159716
 Sum of Mulliken charges =  -0.00000

 Dipole moment (field-independent basis, Debye):
    X=             -1.9042    Y=             -4.7756    Z=             -0.0284  Tot=              5.1413
 Quadrupole moment (field-independent basis, Debye-Ang):
   XX=            -78.1398   YY=            -98.5824   ZZ=            -94.5925
   XY=             14.6196   XZ=             -1.0460   YZ=              1.6413

 Normal termination of Gaussian 16 at Wed May  5 16:05:44 2021.
