 Gaussian 16, Revision A.03,
 Gaussian 16:  EM64L-G16RevA.03 25-Dec-2016

 -------------
 #p 6-31g* mp2
 -------------

 ------------------------------------------------------
 Input file generated by CHIRIPA (05-May-2021 14:53:18)
 ------------------------------------------------------
 Symbolic Z-matrix:
 Charge =  0 Multiplicity = 1

                         Standard orientation:
 ---------------------------------------------------------------------
 Center     Atomic      Atomic             Coordinates (Angstroms)
 Number     Number       Type             X           Y           Z
 ---------------------------------------------------------------------
      1          6           0        2.290031    0.735280    0.475761
      2          6           0        2.877801    2.121852    0.211322
      3          6           0        2.263443    3.203684    1.100140
      4          1           0        1.203375    0.768390    0.317559
      5          1           0        2.444322    0.474631    1.532005
      6          1           0        2.723675    2.379225   -0.844434
      7          1           0        3.963210    2.085391    0.369986
      8          1           0        2.429538    2.973715    2.157556
      9          1           0        1.182961    3.269219    0.936236
     10          1           0        2.698037    4.186882    0.894447
     11          6           0        2.894167   -0.356872   -0.405121
     12          6           0        2.306397   -1.743445   -0.140682
     13          6           0        2.920756   -2.825277   -1.029500
     14          1           0        2.739876   -0.096223   -1.461365
     15          1           0        3.980823   -0.389982   -0.246919
     16          1           0        1.220988   -1.706984   -0.299346
     17          1           0        2.460523   -2.000818    0.915074
     18          1           0        4.001238   -2.890811   -0.865596
     19          1           0        2.754660   -2.595308   -2.086916
     20          1           0        2.486161   -3.808474   -0.823807
     21          6           0       -1.774507   -1.666701    1.971437
     22          6           0       -1.399589   -2.114729    0.700521
     23          6           0       -1.534022   -1.281752   -0.414211
     24          6           0       -2.049302   -0.000975   -0.220853
     25          6           0       -2.431702    0.474330    1.032600
     26          6           0       -2.288460   -0.375877    2.133136
     27          1           0       -1.666654   -2.320470    2.831874
     28          1           0       -1.000148   -3.116709    0.571961
     29          1           0       -1.251593   -1.603080   -1.409399
     30          1           0       -2.826752    1.478322    1.129323
     31          1           0       -2.580445   -0.025257    3.118963
     32          7           0       -2.196283    0.889980   -1.393454
     33          8           0       -2.652890    2.013983   -1.196568
     34          8           0       -1.852098    0.447437   -2.487223
 ---------------------------------------------------------------------

 SCF Done:  E(RHF) =  -669.534334242     A.U. after   15 cycles
 E2 =    -0.2094412457D+01 EUMP2 =    -0.67162874669934D+03

 The electronic state is 1-A.
 Alpha  occ. eigenvalues --  -20.60872 -20.60867 -15.85928 -11.31303 -11.27848
 Alpha  occ. eigenvalues --  -11.27844 -11.27566 -11.26860 -11.26845 -11.21741
 Alpha  occ. eigenvalues --  -11.21469 -11.21412 -11.21358 -11.21323 -11.20940
 Alpha  occ. eigenvalues --   -1.59950  -1.39502  -1.19472  -1.08854  -1.08454
 Alpha  occ. eigenvalues --   -1.04881  -1.03578  -0.96030  -0.95693  -0.87047
 Alpha  occ. eigenvalues --   -0.86260  -0.82533  -0.79663  -0.78270  -0.77563
 Alpha  occ. eigenvalues --   -0.72141  -0.71279  -0.70561  -0.65178  -0.65044
 Alpha  occ. eigenvalues --   -0.64858  -0.62234  -0.60970  -0.59426  -0.57644
 Alpha  occ. eigenvalues --   -0.55351  -0.55307  -0.53296  -0.52949  -0.52706
 Alpha  occ. eigenvalues --   -0.52460  -0.49972  -0.48902  -0.48897  -0.47981
 Alpha  occ. eigenvalues --   -0.46702  -0.45776  -0.45693  -0.44900  -0.43821
 Alpha  occ. eigenvalues --   -0.37427  -0.36325
 Alpha virt. eigenvalues --    0.04929   0.11130   0.16348   0.20863   0.22883
 Alpha virt. eigenvalues --    0.24098   0.26406   0.26895   0.27489   0.28121
 Alpha virt. eigenvalues --    0.28570   0.30365   0.31299   0.31769   0.32380

 Mulliken charges:
               1
     1  C   -0.299346
     2  C   -0.300371
     3  C   -0.475985
     4  H    0.150729
     5  H    0.146162
     6  H    0.156682
     7  H    0.150757
     8  H    0.151775
     9  H    0.157492
    10  H    0.161463
    11  C   -0.298562
    12  C   -0.306277
    13  C   -0.476051
    14  H    0.154063
    15  H    0.149241
    16  H    0.155227
    17  H    0.147682
    18  H    0.157182
    19  H    0.158093
    20  H    0.153640
    21  C   -0.171094
    22  C   -0.213453
    23  C   -0.174440
    24  C    0.160008
    25  C   -0.172530
    26  C   -0.217310
    27  H    0.226171
    28  H    0.225474
    29  H    0.276495
    30  H    0.276013
    31  H    0.224073
    32  N    0.487504
    33  O   -0.460112
    34  O   -0.460396
 Sum of Mulliken charges =  -0.00000

 Dipole moment (field-independent basis, Debye):
    X=              0.4246    Y=             -3.0751    Z=              4.1163  Tot=              5.1556
 Quadrupole moment (field-independent basis, Debye-Ang):
   XX=            -96.6030   YY=            -93.4135   ZZ=            -95.0245
   XY=              5.4005   XZ=             -9.5018   YZ=              2.3001

 Normal termination of Gaussian 16 at Wed May  5 22:05:12 2021.
