 Gaussian 16, Revision A.03,
 Gaussian 16:  EM64L-G16RevA.03 25-Dec-2016

 -------------
 #p 6-31g* mp2
 -------------

 ------------------------------------------------------
 Input file generated by CHIRIPA (05-May-2021 14:51:14)
 ------------------------------------------------------
 Symbolic Z-matrix:
 Charge =  0 Multiplicity = 1

                         Standard orientation:
 ---------------------------------------------------------------------
 Center     Atomic      Atomic             Coordinates (Angstroms)
 Number     Number       Type             X           Y           Z
 ---------------------------------------------------------------------
      1          6           0       -3.214808    0.890153    0.327459
      2          6           0       -2.437208    1.942946   -0.463079
      3          6           0       -1.587734    2.846000    0.431730
      4          1           0       -3.859776    1.393676    1.060553
      5          1           0       -2.507268    0.277023    0.902658
      6          1           0       -3.145900    2.553022   -1.037691
      7          1           0       -1.794159    1.436866   -1.194506
      8          1           0       -0.858569    2.254462    0.994759
      9          1           0       -2.217990    3.376960    1.152465
     10          1           0       -1.040381    3.591164   -0.153928
     11          6           0       -4.068746   -0.020291   -0.553227
     12          6           0       -4.846346   -1.073084    0.237311
     13          6           0       -5.695820   -1.976138   -0.657497
     14          1           0       -4.776286    0.592839   -1.128426
     15          1           0       -3.423778   -0.523814   -1.286320
     16          1           0       -5.489395   -0.567004    0.968739
     17          1           0       -4.137654   -1.683160    0.811924
     18          1           0       -5.065564   -2.507098   -1.378233
     19          1           0       -6.424985   -1.384600   -1.220526
     20          1           0       -6.243173   -2.721302   -0.071840
     21          6           0        4.171153   -0.108463   -0.330526
     22          6           0        5.601875   -0.484925    0.055864
     23          6           0        6.649604    0.176015   -0.840358
     24          1           0        3.993503   -0.393648   -1.376497
     25          1           0        4.060775    0.983683   -0.281255
     26          1           0        5.709131   -1.576138    0.007217
     27          1           0        5.776078   -0.198985    1.101094
     28          1           0        6.571450    1.266608   -0.784666
     29          1           0        6.504123   -0.118371   -1.884760
     30          1           0        7.665245   -0.106780   -0.546488
     31          6           0        3.112401   -0.761399    0.556294
     32          6           0        1.681679   -0.384936    0.169903
     33          6           0        0.633950   -1.045877    1.066126
     34          1           0        3.222779   -1.853545    0.507022
     35          1           0        3.290051   -0.476214    1.602264
     36          1           0        1.507476   -0.670877   -0.875328
     37          1           0        1.574423    0.706276    0.218550
     38          1           0        0.779431   -0.751491    2.110527
     39          1           0        0.712104   -2.136470    1.010434
     40          1           0       -0.381692   -0.763083    0.772256
 ---------------------------------------------------------------------

 SCF Done:  E(RHF) =  -470.733273395     A.U. after   11 cycles
 E2 =    -0.1583137296D+01 EUMP2 =    -0.47231641069113D+03

 The electronic state is 1-A.
 Alpha  occ. eigenvalues --  -11.21654 -11.21617 -11.21596 -11.21589 -11.21434
 Alpha  occ. eigenvalues --  -11.21395 -11.21373 -11.21334 -11.21135 -11.21082
 Alpha  occ. eigenvalues --  -11.21063 -11.21061  -1.08469  -1.08422  -1.03582
 Alpha  occ. eigenvalues --   -1.03509  -0.96021  -0.95972  -0.87050  -0.86979
 Alpha  occ. eigenvalues --   -0.79635  -0.79580  -0.78274  -0.78238  -0.65130
 Alpha  occ. eigenvalues --   -0.65060  -0.61048  -0.60879  -0.59406  -0.59296
 Alpha  occ. eigenvalues --   -0.57624  -0.57575  -0.55346  -0.55229  -0.52751
 Alpha  occ. eigenvalues --   -0.52663  -0.52458  -0.52370  -0.49966  -0.49909
 Alpha  occ. eigenvalues --   -0.47956  -0.47892  -0.46675  -0.46595  -0.45819
 Alpha  occ. eigenvalues --   -0.45775  -0.45734  -0.45699  -0.43787  -0.43763
 Alpha virt. eigenvalues --    0.19943   0.22993   0.23662   0.25297   0.26072
 Alpha virt. eigenvalues --    0.26397   0.27029   0.27435   0.27922   0.28980
 Alpha virt. eigenvalues --    0.30963   0.31409   0.31748   0.31800   0.31926

 Mulliken charges:
               1
     1  C   -0.305090
     2  C   -0.299898
     3  C   -0.478506
     4  H    0.150138
     5  H    0.155011
     6  H    0.152110
     7  H    0.152502
     8  H    0.158098
     9  H    0.155110
    10  H    0.160069
    11  C   -0.298310
    12  C   -0.299736
    13  C   -0.475700
    14  H    0.149653
    15  H    0.149475
    16  H    0.151981
    17  H    0.152210
    18  H    0.155166
    19  H    0.155121
    20  H    0.160282
    21  C   -0.298332
    22  C   -0.299680
    23  C   -0.475733
    24  H    0.149643
    25  H    0.149796
    26  H    0.151928
    27  H    0.152025
    28  H    0.155276
    29  H    0.155183
    30  H    0.160315
    31  C   -0.298499
    32  C   -0.301235
    33  C   -0.483666
    34  H    0.149616
    35  H    0.149829
    36  H    0.151758
    37  H    0.154148
    38  H    0.155439
    39  H    0.155514
    40  H    0.166988
 Sum of Mulliken charges =  -0.00000

 Dipole moment (field-independent basis, Debye):
    X=              0.0128    Y=             -0.0012    Z=              0.0049  Tot=              0.0137
 Quadrupole moment (field-independent basis, Debye-Ang):
   XX=            -85.3438   YY=            -84.4264   ZZ=            -84.9492
   XY=             -1.3087   XZ=              0.0861   YZ=              0.4391

 Normal termination of Gaussian 16 at Thu May  6 00:51:10 2021.
