 Gaussian 16, Revision A.03,
 Gaussian 16:  EM64L-G16RevA.03 25-Dec-2016

 -------------
 #p 6-31g* mp2
 -------------

 ------------------------------------------------------
 Input file generated by CHIRIPA (05-May-2021 14:55:25)
 ------------------------------------------------------
 Symbolic Z-matrix:
 Charge =  0 Multiplicity = 1

                         Standard orientation:
 ---------------------------------------------------------------------
 Center     Atomic      Atomic             Coordinates (Angstroms)
 Number     Number       Type             X           Y           Z
 ---------------------------------------------------------------------
      1          6           0       -2.673493   -2.090091   -0.980630
      2          6           0       -1.702491   -1.316829   -1.625410
      3          6           0       -1.506215    0.020105   -1.266756
      4          6           0       -2.302214    0.553996   -0.254513
      5          6           0       -3.277748   -0.190678    0.406611
      6          6           0       -3.456642   -1.525543    0.031538
      7          1           0       -2.819214   -3.127850   -1.265618
      8          1           0       -1.092833   -1.752621   -2.411824
      9          1           0       -0.761645    0.641457   -1.749410
     10          1           0       -3.870156    0.271597    1.186850
     11          1           0       -4.211484   -2.123687    0.534014
     12          7           0       -2.103626    1.968253    0.133869
     13          8           0       -2.817844    2.415094    1.028778
     14          8           0       -1.237515    2.603126   -0.463981
     15          6           0        3.430254    0.185784    0.227105
     16          6           0        4.776219   -0.216754   -0.376490
     17          6           0        5.648283    0.987613   -0.732581
     18          1           0        2.895087    0.830508   -0.483440
     19          1           0        3.606239    0.791122    1.127098
     20          1           0        4.597748   -0.822314   -1.274299
     21          1           0        5.308161   -0.860750    0.335495
     22          1           0        5.855598    1.589850    0.157885
     23          1           0        5.141149    1.628506   -1.461055
     24          1           0        6.605643    0.676968   -1.162488
     25          6           0        2.547202   -1.007311    0.588314
     26          6           0        1.201237   -0.604774    1.191909
     27          6           0        0.329174   -1.809141    1.548000
     28          1           0        2.371217   -1.612650   -0.311679
     29          1           0        3.082369   -1.652035    1.298859
     30          1           0        0.669295    0.039223    0.479924
     31          1           0        1.379708    0.000786    2.089718
     32          1           0        0.836307   -2.450034    2.276474
     33          1           0        0.121858   -2.411378    0.657534
     34          1           0       -0.628186   -1.498495    1.977907
 ---------------------------------------------------------------------

 SCF Done:  E(RHF) =  -669.534098696     A.U. after   15 cycles
 E2 =    -0.2095328210D+01 EUMP2 =    -0.67162942690652D+03

 The electronic state is 1-A.
 Alpha  occ. eigenvalues --  -20.60859 -20.60845 -15.85896 -11.31256 -11.27850
 Alpha  occ. eigenvalues --  -11.27841 -11.27579 -11.26854 -11.26837 -11.21562
 Alpha  occ. eigenvalues --  -11.21453 -11.21381 -11.21265 -11.20990 -11.20973
 Alpha  occ. eigenvalues --   -1.59920  -1.39476  -1.19458  -1.08840  -1.08375
 Alpha  occ. eigenvalues --   -1.04870  -1.03460  -0.95919  -0.95675  -0.86938
 Alpha  occ. eigenvalues --   -0.86261  -0.82509  -0.79531  -0.78187  -0.77554
 Alpha  occ. eigenvalues --   -0.72118  -0.71247  -0.70567  -0.65109  -0.65051
 Alpha  occ. eigenvalues --   -0.64850  -0.62218  -0.60928  -0.59310  -0.57551
 Alpha  occ. eigenvalues --   -0.55373  -0.55349  -0.53117  -0.52954  -0.52403
 Alpha  occ. eigenvalues --   -0.52333  -0.49859  -0.48881  -0.48873  -0.47854
 Alpha  occ. eigenvalues --   -0.46613  -0.45737  -0.45685  -0.44830  -0.43728
 Alpha  occ. eigenvalues --   -0.37343  -0.36378
 Alpha virt. eigenvalues --    0.04953   0.11078   0.16444   0.20999   0.22973
 Alpha virt. eigenvalues --    0.24337   0.26099   0.27086   0.27582   0.27812
 Alpha virt. eigenvalues --    0.28845   0.30784   0.31472   0.31780   0.31893

 Mulliken charges:
               1
     1  C   -0.168676
     2  C   -0.216926
     3  C   -0.174282
     4  C    0.164325
     5  C   -0.172325
     6  C   -0.216901
     7  H    0.226200
     8  H    0.223683
     9  H    0.275478
    10  H    0.276017
    11  H    0.223994
    12  N    0.488740
    13  O   -0.459817
    14  O   -0.460781
    15  C   -0.298616
    16  C   -0.299341
    17  C   -0.475700
    18  H    0.151358
    19  H    0.152832
    20  H    0.148681
    21  H    0.151520
    22  H    0.156777
    23  H    0.156224
    24  H    0.159298
    25  C   -0.297508
    26  C   -0.304214
    27  C   -0.475599
    28  H    0.142365
    29  H    0.149552
    30  H    0.154597
    31  H    0.155610
    32  H    0.152678
    33  H    0.150445
    34  H    0.160311
 Sum of Mulliken charges =  -0.00000

 Dipole moment (field-independent basis, Debye):
    X=             -0.8179    Y=             -4.8954    Z=             -1.3775  Tot=              5.1508
 Quadrupole moment (field-independent basis, Debye-Ang):
   XX=            -89.5357   YY=           -101.6449   ZZ=            -91.4032
   XY=             11.3880   XZ=              1.2242   YZ=              0.5794

 Normal termination of Gaussian 16 at Thu May  6 14:24:37 2021.
