 Gaussian 16, Revision A.03,
 Gaussian 16:  EM64L-G16RevA.03 25-Dec-2016

 -------------
 #p 6-31g* mp2
 -------------

 ------------------------------------------------------
 Input file generated by CHIRIPA (05-May-2021 14:53:13)
 ------------------------------------------------------
 Symbolic Z-matrix:
 Charge =  0 Multiplicity = 1

                         Standard orientation:
 ---------------------------------------------------------------------
 Center     Atomic      Atomic             Coordinates (Angstroms)
 Number     Number       Type             X           Y           Z
 ---------------------------------------------------------------------
      1          6           0       -3.446352    0.744751   -0.554015
      2          6           0       -2.492183    1.834867   -0.064941
      3          6           0       -2.635883    3.140747   -0.847130
      4          1           0       -3.262523    0.557013   -1.620742
      5          1           0       -4.479928    1.109125   -0.474348
      6          1           0       -1.460793    1.468031   -0.144210
      7          1           0       -2.678174    2.019895    1.000792
      8          1           0       -3.654214    3.532847   -0.758469
      9          1           0       -2.429916    2.977847   -1.909976
     10          1           0       -1.944549    3.906172   -0.481012
     11          6           0       -3.314594   -0.566762    0.218191
     12          6           0       -4.268763   -1.656878   -0.270883
     13          6           0       -4.125063   -2.962759    0.511305
     14          1           0       -2.281018   -0.931137    0.138523
     15          1           0       -3.498423   -0.379025    1.284918
     16          1           0       -4.082772   -1.841907   -1.336617
     17          1           0       -5.300153   -1.290042   -0.191615
     18          1           0       -4.331030   -2.799858    1.574152
     19          1           0       -3.106732   -3.354859    0.422644
     20          1           0       -4.816397   -3.728183    0.145187
     21          6           0        1.764641    2.183064    0.854895
     22          6           0        2.985306    2.091349    0.178074
     23          6           0        3.480567    0.848506   -0.227641
     24          6           0        2.725716   -0.287299    0.061216
     25          6           0        1.506133   -0.228545    0.733861
     26          6           0        1.030245    1.024867    1.130143
     27          1           0        1.387434    3.152639    1.166399
     28          1           0        3.557788    2.989144   -0.037040
     29          1           0        4.422560    0.748718   -0.753102
     30          1           0        0.958018   -1.141185    0.934048
     31          1           0        0.081945    1.093076    1.655614
     32          7           0        3.239773   -1.608636   -0.363304
     33          8           0        2.555700   -2.594359   -0.096790
     34          8           0        4.317031   -1.633555   -0.954517
 ---------------------------------------------------------------------

 SCF Done:  E(RHF) =  -669.535043501     A.U. after   15 cycles
 E2 =    -0.2092581712D+01 EUMP2 =    -0.67162762521335D+03

 The electronic state is 1-A.
 Alpha  occ. eigenvalues --  -20.60791 -20.60786 -15.85843 -11.31217 -11.27776
 Alpha  occ. eigenvalues --  -11.27768 -11.27509 -11.26799 -11.26733 -11.22286
 Alpha  occ. eigenvalues --  -11.21963 -11.21915 -11.21877 -11.21753 -11.21265
 Alpha  occ. eigenvalues --   -1.59866  -1.39419  -1.19388  -1.08967  -1.08774
 Alpha  occ. eigenvalues --   -1.04793  -1.04022  -0.96458  -0.95611  -0.87479
 Alpha  occ. eigenvalues --   -0.86186  -0.82448  -0.80131  -0.78804  -0.77475
 Alpha  occ. eigenvalues --   -0.72061  -0.71189  -0.70483  -0.65603  -0.65033
 Alpha  occ. eigenvalues --   -0.64785  -0.62151  -0.61398  -0.59852  -0.58083
 Alpha  occ. eigenvalues --   -0.55726  -0.55282  -0.53226  -0.53094  -0.52967
 Alpha  occ. eigenvalues --   -0.52778  -0.50386  -0.48835  -0.48817  -0.48388
 Alpha  occ. eigenvalues --   -0.47134  -0.46305  -0.46226  -0.44823  -0.44286
 Alpha  occ. eigenvalues --   -0.37344  -0.36341
 Alpha virt. eigenvalues --    0.05022   0.11171   0.16447   0.20403   0.22693
 Alpha virt. eigenvalues --    0.23638   0.25283   0.25745   0.26998   0.28448
 Alpha virt. eigenvalues --    0.29531   0.30312   0.31063   0.31412   0.32221

 Mulliken charges:
               1
     1  C   -0.297019
     2  C   -0.311240
     3  C   -0.473790
     4  H    0.153330
     5  H    0.151233
     6  H    0.157769
     7  H    0.145875
     8  H    0.157669
     9  H    0.159017
    10  H    0.154415
    11  C   -0.300002
    12  C   -0.299905
    13  C   -0.476945
    14  H    0.146565
    15  H    0.147420
    16  H    0.154835
    17  H    0.152668
    18  H    0.154185
    19  H    0.158239
    20  H    0.162552
    21  C   -0.172709
    22  C   -0.218187
    23  C   -0.170928
    24  C    0.159088
    25  C   -0.174729
    26  C   -0.218839
    27  H    0.226154
    28  H    0.223611
    29  H    0.275671
    30  H    0.276225
    31  H    0.230470
    32  N    0.488078
    33  O   -0.460486
    34  O   -0.460289
 Sum of Mulliken charges =  -0.00000

 Dipole moment (field-independent basis, Debye):
    X=             -1.8751    Y=              4.6038    Z=              1.4177  Tot=              5.1692
 Quadrupole moment (field-independent basis, Debye-Ang):
   XX=           -100.7611   YY=            -97.8270   ZZ=            -94.2458
   XY=             15.4142   XZ=              1.9896   YZ=             -0.4801

 Normal termination of Gaussian 16 at Thu May  6 20:17:21 2021.
