 Gaussian 16, Revision A.03,
 Gaussian 16:  EM64L-G16RevA.03 25-Dec-2016

 -------------
 #p 6-31g* mp2
 -------------

 ------------------------------------------------------
 Input file generated by CHIRIPA (05-May-2021 14:57:21)
 ------------------------------------------------------
 Symbolic Z-matrix:
 Charge =  0 Multiplicity = 1

                         Standard orientation:
 ---------------------------------------------------------------------
 Center     Atomic      Atomic             Coordinates (Angstroms)
 Number     Number       Type             X           Y           Z
 ---------------------------------------------------------------------
      1          6           0       -1.435059   -0.954921    0.529460
      2          6           0       -1.612050   -0.136660   -0.591096
      3          6           0       -2.868290    0.401247   -0.886164
      4          6           0       -3.930389    0.098916   -0.035382
      5          6           0       -3.785856   -0.713005    1.088533
      6          6           0       -2.520613   -1.239979    1.364226
      7          1           0       -0.455685   -1.368534    0.751150
      8          1           0       -0.770795    0.086414   -1.241152
      9          1           0       -3.033376    1.037658   -1.747063
     10          1           0       -4.643431   -0.917522    1.717943
     11          1           0       -2.386101   -1.875143    2.235156
     12          7           0       -5.265079    0.662587   -0.337501
     13          8           0       -6.184774    0.381159    0.427741
     14          8           0       -5.366242    1.375148   -1.333825
     15          6           0        4.480933    2.297159    0.669410
     16          6           0        3.772808    1.498755    1.573640
     17          6           0        3.340978    0.221020    1.205585
     18          6           0        3.635925   -0.228679   -0.080521
     19          6           0        4.339481    0.543008   -1.003992
     20          6           0        4.761515    1.817582   -0.614257
     21          1           0        4.812585    3.288507    0.963746
     22          1           0        3.553481    1.868600    2.571215
     23          1           0        2.791037   -0.418064    1.885699
     24          1           0        4.543112    0.146927   -1.991450
     25          1           0        5.311272    2.435434   -1.318580
     26          7           0        3.183952   -1.579687   -0.481640
     27          8           0        3.456469   -1.952739   -1.620588
     28          8           0        2.565735   -2.239973    0.350506
 ---------------------------------------------------------------------

 SCF Done:  E(RHF) =  -868.339569445     A.U. after   16 cycles
 E2 =    -0.2598753766D+01 EUMP2 =    -0.87093832321088D+03

 The electronic state is 1-A.
 Alpha  occ. eigenvalues --  -20.61957 -20.61892 -20.60480 -20.60475 -15.86942
 Alpha  occ. eigenvalues --  -15.85532 -11.32101 -11.30796 -11.28662 -11.28607
 Alpha  occ. eigenvalues --  -11.28293 -11.27585 -11.27560 -11.27374 -11.27369
 Alpha  occ. eigenvalues --  -11.26943 -11.26319 -11.26306  -1.60985  -1.59559
 Alpha  occ. eigenvalues --   -1.40545  -1.39116  -1.20244  -1.18954  -1.09669
 Alpha  occ. eigenvalues --   -1.08340  -1.05606  -1.04353  -0.96539  -0.95194
 Alpha  occ. eigenvalues --   -0.87012  -0.85740  -0.83374  -0.82040  -0.78460
 Alpha  occ. eigenvalues --   -0.77128  -0.73157  -0.72308  -0.71751  -0.71328
 Alpha  occ. eigenvalues --   -0.70883  -0.69971  -0.65888  -0.65590  -0.64595
 Alpha  occ. eigenvalues --   -0.64347  -0.62956  -0.61712  -0.56088  -0.54740
 Alpha  occ. eigenvalues --   -0.53953  -0.53684  -0.52680  -0.52435  -0.49934
 Alpha  occ. eigenvalues --   -0.49890  -0.48513  -0.48500  -0.45976  -0.44544
 Alpha  occ. eigenvalues --   -0.38201  -0.37204  -0.36889  -0.35974
 Alpha virt. eigenvalues --    0.04007   0.05419   0.10438   0.11692   0.15532
 Alpha virt. eigenvalues --    0.16945   0.20515   0.21910   0.26343   0.27154
 Alpha virt. eigenvalues --    0.27676   0.28763   0.30374   0.31053   0.32853

 Mulliken charges:
               1
     1  C   -0.177876
     2  C   -0.219522
     3  C   -0.171575
     4  C    0.157500
     5  C   -0.171360
     6  C   -0.220133
     7  H    0.240544
     8  H    0.222485
     9  H    0.273751
    10  H    0.274072
    11  H    0.223425
    12  N    0.488218
    13  O   -0.461606
    14  O   -0.461887
    15  C   -0.169854
    16  C   -0.217670
    17  C   -0.173048
    18  C    0.155950
    19  C   -0.171380
    20  C   -0.218276
    21  H    0.229237
    22  H    0.226325
    23  H    0.272631
    24  H    0.277233
    25  H    0.226733
    26  N    0.487482
    27  O   -0.454148
    28  O   -0.467252
 Sum of Mulliken charges =  -0.00000

 Dipole moment (field-independent basis, Debye):
    X=              6.7049    Y=              2.8423    Z=              2.4517  Tot=              7.6841
 Quadrupole moment (field-independent basis, Debye-Ang):
   XX=           -129.5790   YY=           -107.2350   ZZ=            -98.0407
   XY=             27.4026   XZ=             -3.3840   YZ=             -3.1722

 Normal termination of Gaussian 16 at Wed May  5 19:18:09 2021.
