 Gaussian 16, Revision A.03,
 Gaussian 16:  EM64L-G16RevA.03 25-Dec-2016

 -------------
 #p 6-31g* mp2
 -------------

 ------------------------------------------------------
 Input file generated by CHIRIPA (05-May-2021 14:53:14)
 ------------------------------------------------------
 Symbolic Z-matrix:
 Charge =  0 Multiplicity = 1

                         Standard orientation:
 ---------------------------------------------------------------------
 Center     Atomic      Atomic             Coordinates (Angstroms)
 Number     Number       Type             X           Y           Z
 ---------------------------------------------------------------------
      1          6           0        2.793830    0.149188    0.151052
      2          6           0        4.239941   -0.315137   -0.025441
      3          6           0        4.492838   -1.700526    0.569989
      4          1           0        2.546213    0.157755    1.221359
      5          1           0        2.121441   -0.581481   -0.319492
      6          1           0        4.909481    0.416896    0.444091
      7          1           0        4.484204   -0.322416   -1.095440
      8          1           0        3.848668   -2.447474    0.094895
      9          1           0        4.276361   -1.703962    1.643174
     10          1           0        5.532789   -2.012784    0.432667
     11          6           0        2.525399    1.532456   -0.439069
     12          6           0        1.079288    1.996782   -0.262576
     13          6           0        0.826391    3.382170   -0.858006
     14          1           0        3.197788    2.263125    0.031475
     15          1           0        2.773016    1.523890   -1.509376
     16          1           0        0.835025    2.004061    0.807423
     17          1           0        0.409748    1.264749   -0.732109
     18          1           0        1.042869    3.385606   -1.931191
     19          1           0        1.470561    4.129119   -0.382912
     20          1           0       -0.213560    3.694429   -0.720684
     21          6           0       -0.627147   -2.643174   -0.449760
     22          6           0       -1.791262   -2.396128   -1.184828
     23          6           0       -2.602608   -1.298572   -0.882114
     24          6           0       -2.218070   -0.464866    0.166864
     25          6           0       -1.064231   -0.684495    0.917670
     26          6           0       -0.267980   -1.788077    0.597297
     27          1           0       -0.002737   -3.498123   -0.691775
     28          1           0       -2.072664   -3.058520   -1.998519
     29          1           0       -3.509119   -1.083926   -1.434908
     30          1           0       -0.809728   -0.006404    1.723176
     31          1           0        0.635533   -1.977484    1.169865
     32          7           0       -3.069016    0.700257    0.496682
     33          8           0       -2.708275    1.419738    1.425580
     34          8           0       -4.080614    0.871939   -0.179951
 ---------------------------------------------------------------------

 SCF Done:  E(RHF) =  -669.533688682     A.U. after   15 cycles
 E2 =    -0.2095258912D+01 EUMP2 =    -0.67162894759320D+03

 The electronic state is 1-A.
 Alpha  occ. eigenvalues --  -20.60790 -20.60780 -15.85833 -11.31172 -11.27750
 Alpha  occ. eigenvalues --  -11.27704 -11.27487 -11.26764 -11.26680 -11.22142
 Alpha  occ. eigenvalues --  -11.21878 -11.21824 -11.21629 -11.21563 -11.20858
 Alpha  occ. eigenvalues --   -1.59858  -1.39411  -1.19363  -1.08815  -1.08740
 Alpha  occ. eigenvalues --   -1.04757  -1.03822  -0.96288  -0.95593  -0.87312
 Alpha  occ. eigenvalues --   -0.86152  -0.82430  -0.79932  -0.78680  -0.77414
 Alpha  occ. eigenvalues --   -0.72053  -0.71179  -0.70463  -0.65460  -0.65002
 Alpha  occ. eigenvalues --   -0.64736  -0.62109  -0.61215  -0.59687  -0.57884
 Alpha  occ. eigenvalues --   -0.55603  -0.55258  -0.53262  -0.52950  -0.52844
 Alpha  occ. eigenvalues --   -0.52614  -0.50249  -0.48813  -0.48809  -0.48223
 Alpha  occ. eigenvalues --   -0.46986  -0.46125  -0.45996  -0.44802  -0.44068
 Alpha  occ. eigenvalues --   -0.37320  -0.36207
 Alpha virt. eigenvalues --    0.05039   0.11194   0.16495   0.20221   0.22927
 Alpha virt. eigenvalues --    0.23486   0.24914   0.26419   0.27602   0.28705
 Alpha virt. eigenvalues --    0.29289   0.29753   0.31199   0.31610   0.32166

 Mulliken charges:
               1
     1  C   -0.304749
     2  C   -0.298509
     3  C   -0.476564
     4  H    0.141874
     5  H    0.152569
     6  H    0.154805
     7  H    0.153716
     8  H    0.147971
     9  H    0.153782
    10  H    0.164221
    11  C   -0.297032
    12  C   -0.304884
    13  C   -0.477096
    14  H    0.150699
    15  H    0.150163
    16  H    0.151866
    17  H    0.155176
    18  H    0.153190
    19  H    0.154741
    20  H    0.169853
    21  C   -0.173626
    22  C   -0.218407
    23  C   -0.171994
    24  C    0.158258
    25  C   -0.168697
    26  C   -0.217559
    27  H    0.225499
    28  H    0.223264
    29  H    0.275473
    30  H    0.276273
    31  H    0.228750
    32  N    0.488370
    33  O   -0.460835
    34  O   -0.460559
 Sum of Mulliken charges =  -0.00000

 Dipole moment (field-independent basis, Debye):
    X=              2.9773    Y=             -3.9971    Z=             -1.1841  Tot=              5.1228
 Quadrupole moment (field-independent basis, Debye-Ang):
   XX=           -106.6144   YY=            -91.9116   ZZ=            -92.2293
   XY=              9.1070   XZ=              5.7702   YZ=              1.7082

 Normal termination of Gaussian 16 at Wed May  5 18:37:28 2021.
