 Gaussian 16, Revision A.03,
 Gaussian 16:  EM64L-G16RevA.03 25-Dec-2016

 -------------
 #p 6-31g* mp2
 -------------

 ------------------------------------------------------
 Input file generated by CHIRIPA (05-May-2021 14:51:14)
 ------------------------------------------------------
 Symbolic Z-matrix:
 Charge =  0 Multiplicity = 1

                         Standard orientation:
 ---------------------------------------------------------------------
 Center     Atomic      Atomic             Coordinates (Angstroms)
 Number     Number       Type             X           Y           Z
 ---------------------------------------------------------------------
      1          6           0        2.732654    0.828965    0.045649
      2          6           0        3.860228    1.817229    0.345477
      3          6           0        3.356400    3.114720    0.978302
      4          1           0        2.003780    1.306146   -0.623670
      5          1           0        2.197816    0.599836    0.977767
      6          1           0        4.393650    2.043359   -0.586693
      7          1           0        4.586600    1.337575    1.014006
      8          1           0        2.841948    2.908441    1.922435
      9          1           0        2.647901    3.618235    0.312641
     10          1           0        4.178919    3.806742    1.184282
     11          6           0        3.220548   -0.473013   -0.587234
     12          6           0        2.092974   -1.461276   -0.887062
     13          6           0        2.596802   -2.758768   -1.519887
     14          1           0        3.755385   -0.243884   -1.519352
     15          1           0        3.949422   -0.950193    0.082085
     16          1           0        1.366602   -0.981622   -1.555591
     17          1           0        1.559552   -1.687406    0.045109
     18          1           0        3.305300   -3.262282   -0.854226
     19          1           0        3.111254   -2.552488   -2.464020
     20          1           0        1.774283   -3.450789   -1.725867
     21          6           0       -2.292346   -0.477785    0.429987
     22          6           0       -2.359169   -1.664176    1.392274
     23          6           0       -0.982376   -2.253129    1.701093
     24          1           0       -1.811096   -0.798202   -0.504185
     25          1           0       -1.648267    0.300356    0.862483
     26          1           0       -3.004044   -2.439277    0.958717
     27          1           0       -2.840489   -1.340947    2.324192
     28          1           0       -0.333707   -1.497964    2.156676
     29          1           0       -0.498190   -2.602535    0.783443
     30          1           0       -1.053484   -3.099971    2.390774
     31          6           0       -3.660855    0.121833    0.111598
     32          6           0       -3.594032    1.308223   -0.850689
     33          6           0       -4.970826    1.897176   -1.159508
     34          1           0       -4.304935   -0.656309   -0.320898
     35          1           0       -4.142105    0.442249    1.045769
     36          1           0       -3.112713    0.984994   -1.782606
     37          1           0       -2.949158    2.083324   -0.417132
     38          1           0       -5.455011    2.246582   -0.241858
     39          1           0       -5.619495    1.142011   -1.615091
     40          1           0       -4.899717    2.744018   -1.849189
 ---------------------------------------------------------------------

 SCF Done:  E(RHF) =  -470.733053300     A.U. after   11 cycles
 E2 =    -0.1583189328D+01 EUMP2 =    -0.47231624262872D+03

 The electronic state is 1-A.
 Alpha  occ. eigenvalues --  -11.21608 -11.21599 -11.21583 -11.21482 -11.21392
 Alpha  occ. eigenvalues --  -11.21366 -11.21331 -11.21303 -11.21079 -11.21070
 Alpha  occ. eigenvalues --  -11.21066 -11.21042  -1.08432  -1.08382  -1.03552
 Alpha  occ. eigenvalues --   -1.03478  -0.95995  -0.95942  -0.87018  -0.86954
 Alpha  occ. eigenvalues --   -0.79691  -0.79482  -0.78310  -0.78116  -0.65058
 Alpha  occ. eigenvalues --   -0.65023  -0.60985  -0.60861  -0.59405  -0.59273
 Alpha  occ. eigenvalues --   -0.57668  -0.57493  -0.55312  -0.55196  -0.52680
 Alpha  occ. eigenvalues --   -0.52652  -0.52452  -0.52354  -0.49976  -0.49847
 Alpha  occ. eigenvalues --   -0.48156  -0.47721  -0.46678  -0.46491  -0.45981
 Alpha  occ. eigenvalues --   -0.45720  -0.45656  -0.45396  -0.43785  -0.43744
 Alpha virt. eigenvalues --    0.21520   0.23146   0.23516   0.24378   0.25582
 Alpha virt. eigenvalues --    0.26369   0.26512   0.27720   0.28205   0.29498
 Alpha virt. eigenvalues --    0.30831   0.31269   0.31586   0.31749   0.32294

 Mulliken charges:
               1
     1  C   -0.298533
     2  C   -0.299623
     3  C   -0.475655
     4  H    0.149994
     5  H    0.149207
     6  H    0.151977
     7  H    0.151904
     8  H    0.154816
     9  H    0.155146
    10  H    0.160231
    11  C   -0.297810
    12  C   -0.307716
    13  C   -0.475944
    14  H    0.149068
    15  H    0.149409
    16  H    0.151277
    17  H    0.161627
    18  H    0.155281
    19  H    0.155065
    20  H    0.159229
    21  C   -0.299121
    22  C   -0.299654
    23  C   -0.480139
    24  H    0.150773
    25  H    0.150112
    26  H    0.151856
    27  H    0.151834
    28  H    0.154730
    29  H    0.160746
    30  H    0.160186
    31  C   -0.298310
    32  C   -0.299615
    33  C   -0.475689
    34  H    0.149402
    35  H    0.149610
    36  H    0.151699
    37  H    0.152080
    38  H    0.155215
    39  H    0.155154
    40  H    0.160183
 Sum of Mulliken charges =  -0.00000

 Dipole moment (field-independent basis, Debye):
    X=             -0.0184    Y=             -0.0099    Z=              0.0152  Tot=              0.0258
 Quadrupole moment (field-independent basis, Debye-Ang):
   XX=            -85.7694   YY=            -85.5041   ZZ=            -83.6546
   XY=              0.7261   XZ=              0.0282   YZ=             -0.2004

 Normal termination of Gaussian 16 at Wed May  5 20:00:45 2021.
