 Gaussian 16, Revision A.03,
 Gaussian 16:  EM64L-G16RevA.03 25-Dec-2016

 -------------
 #p 6-31g* mp2
 -------------

 ------------------------------------------------------
 Input file generated by CHIRIPA (05-May-2021 14:57:22)
 ------------------------------------------------------
 Symbolic Z-matrix:
 Charge =  0 Multiplicity = 1

                         Standard orientation:
 ---------------------------------------------------------------------
 Center     Atomic      Atomic             Coordinates (Angstroms)
 Number     Number       Type             X           Y           Z
 ---------------------------------------------------------------------
      1          6           0       -4.392308   -1.943414    0.191539
      2          6           0       -3.505110   -1.562630    1.203668
      3          6           0       -2.835156   -0.337387    1.136678
      4          6           0       -3.077172    0.486244    0.038338
      5          6           0       -3.955130    0.134998   -0.985921
      6          6           0       -4.614095   -1.094880   -0.898104
      7          1           0       -4.908476   -2.897013    0.251667
      8          1           0       -3.330921   -2.219598    2.051074
      9          1           0       -2.143041   -0.017768    1.906249
     10          1           0       -4.108262    0.811127   -1.818278
     11          1           0       -5.302551   -1.387999   -1.685603
     12          7           0       -2.373738    1.785808   -0.043605
     13          8           0       -2.604269    2.493503   -1.021695
     14          8           0       -1.605175    2.072103    0.871809
     15          6           0        5.687214    0.108916   -0.037537
     16          6           0        4.934400    0.358174    1.114706
     17          6           0        3.551849    0.150598    1.118235
     18          6           0        2.951985   -0.308891   -0.053226
     19          6           0        3.674758   -0.566347   -1.217101
     20          6           0        5.056103   -0.351736   -1.197717
     21          1           0        6.760745    0.272899   -0.031379
     22          1           0        5.421853    0.715972    2.017155
     23          1           0        2.944979    0.335522    1.996262
     24          1           0        3.160649   -0.922501   -2.101558
     25          1           0        5.638226   -0.546155   -2.094032
     26          7           0        1.488978   -0.532366   -0.061618
     27          8           0        0.984298   -0.937613   -1.106469
     28          8           0        0.874655   -0.298049    0.976813
 ---------------------------------------------------------------------

 SCF Done:  E(RHF) =  -868.338701926     A.U. after   16 cycles
 E2 =    -0.2599847891D+01 EUMP2 =    -0.87093854981718D+03

 The electronic state is 1-A.
 Alpha  occ. eigenvalues --  -20.60657 -20.60594 -20.59442 -20.59379 -15.85656
 Alpha  occ. eigenvalues --  -15.84459 -11.30965 -11.29730 -11.27542 -11.27519
 Alpha  occ. eigenvalues --  -11.27287 -11.26554 -11.26536 -11.26426 -11.26257
 Alpha  occ. eigenvalues --  -11.26206 -11.25447 -11.25356  -1.59682  -1.58479
 Alpha  occ. eigenvalues --   -1.39237  -1.38033  -1.19137  -1.17943  -1.08548
 Alpha  occ. eigenvalues --   -1.07380  -1.04536  -1.03359  -0.95394  -0.94220
 Alpha  occ. eigenvalues --   -0.85938  -0.84771  -0.82230  -0.81070  -0.77277
 Alpha  occ. eigenvalues --   -0.76092  -0.71904  -0.70993  -0.70700  -0.70257
 Alpha  occ. eigenvalues --   -0.69758  -0.69118  -0.64799  -0.64550  -0.63633
 Alpha  occ. eigenvalues --   -0.63413  -0.61886  -0.60713  -0.55056  -0.53946
 Alpha  occ. eigenvalues --   -0.52863  -0.52635  -0.51673  -0.51490  -0.48664
 Alpha  occ. eigenvalues --   -0.48640  -0.47471  -0.47433  -0.44674  -0.43409
 Alpha  occ. eigenvalues --   -0.37117  -0.36134  -0.35950  -0.34925
 Alpha virt. eigenvalues --    0.05267   0.06471   0.11522   0.12724   0.16754
 Alpha virt. eigenvalues --    0.17934   0.21626   0.22645   0.27539   0.28438
 Alpha virt. eigenvalues --    0.28601   0.29570   0.31178   0.32109   0.32761

 Mulliken charges:
               1
     1  C   -0.170257
     2  C   -0.220230
     3  C   -0.154794
     4  C    0.160022
     5  C   -0.169834
     6  C   -0.219503
     7  H    0.220032
     8  H    0.219001
     9  H    0.281723
    10  H    0.271277
    11  H    0.217716
    12  N    0.488938
    13  O   -0.468456
    14  O   -0.457223
    15  C   -0.170578
    16  C   -0.218615
    17  C   -0.169144
    18  C    0.159387
    19  C   -0.170348
    20  C   -0.218623
    21  H    0.225034
    22  H    0.223252
    23  H    0.276609
    24  H    0.275022
    25  H    0.222757
    26  N    0.490521
    27  O   -0.463021
    28  O   -0.460665
 Sum of Mulliken charges =  -0.00000

 Dipole moment (field-independent basis, Debye):
    X=              3.0006    Y=             -3.7467    Z=              0.4652  Tot=              4.8226
 Quadrupole moment (field-independent basis, Debye-Ang):
   XX=            -60.8311   YY=           -111.1909   ZZ=            -96.7933
   XY=             13.2613   XZ=              0.6073   YZ=              0.7145

 Normal termination of Gaussian 16 at Thu May  6 11:14:17 2021.
