 Gaussian 16, Revision A.03,
 Gaussian 16:  EM64L-G16RevA.03 25-Dec-2016

 -------------
 #p 6-31g* mp2
 -------------

 ------------------------------------------------------
 Input file generated by CHIRIPA (05-May-2021 14:53:13)
 ------------------------------------------------------
 Symbolic Z-matrix:
 Charge =  0 Multiplicity = 1

                         Standard orientation:
 ---------------------------------------------------------------------
 Center     Atomic      Atomic             Coordinates (Angstroms)
 Number     Number       Type             X           Y           Z
 ---------------------------------------------------------------------
      1          6           0       -3.529571   -0.634701   -0.482982
      2          6           0       -2.925120   -1.765605    0.349893
      3          6           0       -2.723674   -3.049928   -0.454923
      4          1           0       -4.492665   -0.965751   -0.895051
      5          1           0       -2.875348   -0.431357   -1.342074
      6          1           0       -3.579584   -1.965819    1.207918
      7          1           0       -1.963443   -1.431757    0.760184
      8          1           0       -2.053195   -2.872549   -1.302033
      9          1           0       -3.678519   -3.409645   -0.851755
     10          1           0       -2.290581   -3.845161    0.159809
     11          6           0       -3.736988    0.655848    0.307706
     12          6           0       -4.341439    1.786752   -0.525168
     13          6           0       -4.542885    3.071075    0.279647
     14          1           0       -4.391211    0.452503    1.166798
     15          1           0       -2.773894    0.986898    0.719775
     16          1           0       -5.303116    1.452903   -0.935460
     17          1           0       -3.686975    1.986965   -1.383194
     18          1           0       -3.588040    3.430791    0.676479
     19          1           0       -5.213364    2.893695    1.126757
     20          1           0       -4.975978    3.866307   -0.335085
     21          6           0        5.080487    1.002524   -0.495208
     22          6           0        4.707920    0.827051    0.841550
     23          6           0        3.468140    0.268030    1.165571
     24          6           0        2.621753   -0.105980    0.122961
     25          6           0        2.964301    0.056036   -1.218568
     26          6           0        4.209025    0.617137   -1.519196
     27          1           0        6.045499    1.437593   -0.737829
     28          1           0        5.382686    1.125426    1.638864
     29          1           0        3.154432    0.120877    2.191901
     30          1           0        2.270346   -0.251110   -1.991553
     31          1           0        4.495716    0.752226   -2.558236
     32          7           0        1.306636   -0.698891    0.453605
     33          8           0        0.578963   -1.020195   -0.483355
     34          8           0        1.028422   -0.831082    1.643462
 ---------------------------------------------------------------------

 SCF Done:  E(RHF) =  -669.537001571     A.U. after   15 cycles
 E2 =    -0.2092011765D+01 EUMP2 =    -0.67162901333581D+03

 The electronic state is 1-A.
 Alpha  occ. eigenvalues --  -20.61189 -20.61181 -15.86175 -11.31429 -11.27977
 Alpha  occ. eigenvalues --  -11.27972 -11.27699 -11.26964 -11.26955 -11.20699
 Alpha  occ. eigenvalues --  -11.20366 -11.20161 -11.19863 -11.19552 -11.19322
 Alpha  occ. eigenvalues --   -1.60217  -1.39774  -1.19584  -1.09003  -1.07067
 Alpha  occ. eigenvalues --   -1.04967  -1.02145  -0.95855  -0.94663  -0.86371
 Alpha  occ. eigenvalues --   -0.85696  -0.82691  -0.78291  -0.77757  -0.76784
 Alpha  occ. eigenvalues --   -0.72384  -0.71518  -0.70691  -0.65240  -0.64973
 Alpha  occ. eigenvalues --   -0.63688  -0.62314  -0.59524  -0.58102  -0.56247
 Alpha  occ. eigenvalues --   -0.55473  -0.53958  -0.53303  -0.53056  -0.51408
 Alpha  occ. eigenvalues --   -0.51088  -0.49198  -0.49144  -0.48615  -0.46582
 Alpha  occ. eigenvalues --   -0.45320  -0.45180  -0.44352  -0.44096  -0.42421
 Alpha  occ. eigenvalues --   -0.37558  -0.36564
 Alpha virt. eigenvalues --    0.04766   0.11093   0.16280   0.21227   0.24116
 Alpha virt. eigenvalues --    0.25693   0.27163   0.27870   0.28258   0.28833
 Alpha virt. eigenvalues --    0.29239   0.30821   0.32330   0.32693   0.32978

 Mulliken charges:
               1
     1  C   -0.297231
     2  C   -0.305798
     3  C   -0.473460
     4  H    0.141774
     5  H    0.151376
     6  H    0.141272
     7  H    0.181214
     8  H    0.160165
     9  H    0.144109
    10  H    0.156611
    11  C   -0.297757
    12  C   -0.298463
    13  C   -0.474662
    14  H    0.146451
    15  H    0.152679
    16  H    0.149529
    17  H    0.149528
    18  H    0.153554
    19  H    0.154187
    20  H    0.156397
    21  C   -0.170282
    22  C   -0.218611
    23  C   -0.170546
    24  C    0.159051
    25  C   -0.170626
    26  C   -0.218575
    27  H    0.226522
    28  H    0.224331
    29  H    0.276184
    30  H    0.275908
    31  H    0.224330
    32  N    0.488966
    33  O   -0.459568
    34  O   -0.458560
 Sum of Mulliken charges =  -0.00000

 Dipole moment (field-independent basis, Debye):
    X=              5.1711    Y=              2.0946    Z=             -1.1159  Tot=              5.6897
 Quadrupole moment (field-independent basis, Debye-Ang):
   XX=            -71.5483   YY=            -97.7653   ZZ=            -90.4591
   XY=              5.6552   XZ=             -1.7011   YZ=              0.2764

 Normal termination of Gaussian 16 at Wed May  5 23:24:38 2021.
