 Gaussian 16, Revision A.03,
 Gaussian 16:  EM64L-G16RevA.03 25-Dec-2016

 -------------
 #p 6-31g* mp2
 -------------

 ------------------------------------------------------
 Input file generated by CHIRIPA (05-May-2021 14:53:16)
 ------------------------------------------------------
 Symbolic Z-matrix:
 Charge =  0 Multiplicity = 1

                         Standard orientation:
 ---------------------------------------------------------------------
 Center     Atomic      Atomic             Coordinates (Angstroms)
 Number     Number       Type             X           Y           Z
 ---------------------------------------------------------------------
      1          6           0        3.623903    0.626207    0.598757
      2          6           0        3.411675    1.880943   -0.248935
      3          6           0        3.149200    3.127852    0.596120
      4          1           0        2.739340    0.463755    1.229710
      5          1           0        4.468695    0.792031    1.281564
      6          1           0        2.568412    1.712297   -0.930904
      7          1           0        4.296767    2.040319   -0.878083
      8          1           0        3.992733    3.323863    1.265921
      9          1           0        2.254558    2.993977    1.212800
     10          1           0        3.000322    4.013118   -0.029979
     11          6           0        3.887430   -0.628580   -0.231779
     12          6           0        4.099658   -1.883316    0.615913
     13          6           0        4.362133   -3.130225   -0.229142
     14          1           0        3.042638   -0.794404   -0.914585
     15          1           0        4.771993   -0.466128   -0.862732
     16          1           0        3.214566   -2.042693    1.245062
     17          1           0        4.942921   -1.714671    1.297882
     18          1           0        5.256775   -2.996351   -0.845822
     19          1           0        3.518600   -3.326236   -0.898943
     20          1           0        4.511011   -4.015491    0.396957
     21          6           0       -0.740570    0.994739   -0.896096
     22          6           0       -1.794109    1.831980   -0.514520
     23          6           0       -3.013929    1.292353   -0.095724
     24          6           0       -3.146178   -0.095151   -0.070578
     25          6           0       -2.115181   -0.955633   -0.444617
     26          6           0       -0.904179   -0.393949   -0.859989
     27          1           0        0.203590    1.422500   -1.220097
     28          1           0       -1.669894    2.910815   -0.541560
     29          1           0       -3.846019    1.917298    0.205092
     30          1           0       -2.268983   -2.027246   -0.407111
     31          1           0       -0.087713   -1.046595   -1.155758
     32          7           0       -4.432879   -0.678105    0.370971
     33          8           0       -4.524082   -1.903725    0.384215
     34          8           0       -5.325828    0.101633    0.695451
 ---------------------------------------------------------------------

 SCF Done:  E(RHF) =  -669.535519775     A.U. after   15 cycles
 E2 =    -0.2091626209D+01 EUMP2 =    -0.67162714598434D+03

 The electronic state is 1-A.
 Alpha  occ. eigenvalues --  -20.60768 -20.60763 -15.85822 -11.31194 -11.27765
 Alpha  occ. eigenvalues --  -11.27760 -11.27485 -11.26784 -11.26768 -11.22742
 Alpha  occ. eigenvalues --  -11.22373 -11.22324 -11.22279 -11.22041 -11.21738
 Alpha  occ. eigenvalues --   -1.59843  -1.39397  -1.19366  -1.09367  -1.08758
 Alpha  occ. eigenvalues --   -1.04771  -1.04428  -0.96852  -0.95594  -0.87866
 Alpha  occ. eigenvalues --   -0.86167  -0.82429  -0.80498  -0.79168  -0.77472
 Alpha  occ. eigenvalues --   -0.72039  -0.71167  -0.70501  -0.66020  -0.65016
 Alpha  occ. eigenvalues --   -0.64759  -0.62120  -0.61843  -0.60228  -0.58462
 Alpha  occ. eigenvalues --   -0.56155  -0.55263  -0.53536  -0.53264  -0.53098
 Alpha  occ. eigenvalues --   -0.52861  -0.50795  -0.48829  -0.48794  -0.48766
 Alpha  occ. eigenvalues --   -0.47540  -0.46707  -0.46625  -0.44801  -0.44681
 Alpha  occ. eigenvalues --   -0.37342  -0.36377
 Alpha virt. eigenvalues --    0.05051   0.11253   0.16479   0.18257   0.22462
 Alpha virt. eigenvalues --    0.23329   0.24989   0.26319   0.26604   0.27573
 Alpha virt. eigenvalues --    0.29132   0.30509   0.30895   0.31117   0.32177

 Mulliken charges:
               1
     1  C   -0.300331
     2  C   -0.302416
     3  C   -0.477859
     4  H    0.152107
     5  H    0.154194
     6  H    0.140833
     7  H    0.156915
     8  H    0.160576
     9  H    0.155937
    10  H    0.160345
    11  C   -0.297522
    12  C   -0.301015
    13  C   -0.475505
    14  H    0.140349
    15  H    0.152837
    16  H    0.153046
    17  H    0.155130
    18  H    0.156919
    19  H    0.152176
    20  H    0.163731
    21  C   -0.176456
    22  C   -0.220713
    23  C   -0.170735
    24  C    0.158509
    25  C   -0.170910
    26  C   -0.222845
    27  H    0.235432
    28  H    0.224229
    29  H    0.275644
    30  H    0.275708
    31  H    0.224495
    32  N    0.487991
    33  O   -0.460428
    34  O   -0.460365
 Sum of Mulliken charges =  -0.00000

 Dipole moment (field-independent basis, Debye):
    X=              4.7523    Y=              2.0552    Z=             -1.4393  Tot=              5.3740
 Quadrupole moment (field-independent basis, Debye-Ang):
   XX=           -121.1732   YY=            -91.6482   ZZ=            -95.5108
   XY=             -8.5098   XZ=              4.7723   YZ=              0.3514

 Normal termination of Gaussian 16 at Wed May  5 21:59:42 2021.
