 Gaussian 16, Revision A.03,
 Gaussian 16:  EM64L-G16RevA.03 25-Dec-2016

 -------------
 #p 6-31g* mp2
 -------------

 ------------------------------------------------------
 Input file generated by CHIRIPA (05-May-2021 14:53:18)
 ------------------------------------------------------
 Symbolic Z-matrix:
 Charge =  0 Multiplicity = 1

                         Standard orientation:
 ---------------------------------------------------------------------
 Center     Atomic      Atomic             Coordinates (Angstroms)
 Number     Number       Type             X           Y           Z
 ---------------------------------------------------------------------
      1          6           0       -4.254071    0.008501   -0.088018
      2          6           0       -3.967616   -1.488551   -0.209533
      3          6           0       -5.227408   -2.344371   -0.074297
      4          1           0       -4.731260    0.206525    0.881529
      5          1           0       -4.980669    0.299479   -0.859240
      6          1           0       -3.240726   -1.776346    0.560806
      7          1           0       -3.490879   -1.683007   -1.178823
      8          1           0       -5.954044   -2.085775   -0.851298
      9          1           0       -5.702470   -2.179643    0.898216
     10          1           0       -4.999658   -3.411092   -0.164281
     11          6           0       -3.004495    0.877165   -0.221096
     12          6           0       -3.290951    2.374216   -0.099582
     13          6           0       -2.031158    3.230036   -0.234817
     14          1           0       -2.277898    0.586186    0.550126
     15          1           0       -2.527306    0.679140   -1.190643
     16          1           0       -3.767687    2.568673    0.869709
     17          1           0       -4.017840    2.662011   -0.869921
     18          1           0       -1.556097    3.065309   -1.207331
     19          1           0       -1.304523    2.971440    0.542183
     20          1           0       -2.258908    4.296757   -0.144834
     21          6           0        5.162508    0.470073   -0.412612
     22          6           0        4.229471    1.340779    0.159958
     23          6           0        2.937196    0.899497    0.459692
     24          6           0        2.610399   -0.424855    0.172311
     25          6           0        3.517691   -1.316458   -0.397913
     26          6           0        4.804271   -0.853432   -0.689232
     27          1           0        6.164166    0.821317   -0.642183
     28          1           0        4.504898    2.369159    0.375874
     29          1           0        2.195180    1.552305    0.903169
     30          1           0        3.213776   -2.336034   -0.601672
     31          1           0        5.526815   -1.531863   -1.133875
     32          7           0        1.245339   -0.903529    0.485172
     33          8           0        0.982217   -2.074981    0.222299
     34          8           0        0.464375   -0.098198    0.987341
 ---------------------------------------------------------------------

 SCF Done:  E(RHF) =  -669.536269145     A.U. after   15 cycles
 E2 =    -0.2091339714D+01 EUMP2 =    -0.67162760885904D+03

 The electronic state is 1-A.
 Alpha  occ. eigenvalues --  -20.60973 -20.60956 -15.85995 -11.31298 -11.27859
 Alpha  occ. eigenvalues --  -11.27854 -11.27594 -11.26863 -11.26852 -11.20610
 Alpha  occ. eigenvalues --  -11.20300 -11.20287 -11.20177 -11.20051 -11.19888
 Alpha  occ. eigenvalues --   -1.60021  -1.39579  -1.19464  -1.08872  -1.07214
 Alpha  occ. eigenvalues --   -1.04858  -1.02452  -0.95718  -0.94916  -0.86259
 Alpha  occ. eigenvalues --   -0.85946  -0.82554  -0.78498  -0.77609  -0.76971
 Alpha  occ. eigenvalues --   -0.72220  -0.71330  -0.70573  -0.65122  -0.64861
 Alpha  occ. eigenvalues --   -0.63845  -0.62205  -0.59861  -0.58284  -0.56514
 Alpha  occ. eigenvalues --   -0.55364  -0.54213  -0.53191  -0.52950  -0.51670
 Alpha  occ. eigenvalues --   -0.51351  -0.49057  -0.48970  -0.48809  -0.46827
 Alpha  occ. eigenvalues --   -0.45521  -0.45065  -0.44548  -0.44263  -0.42659
 Alpha  occ. eigenvalues --   -0.37442  -0.36458
 Alpha virt. eigenvalues --    0.04912   0.11197   0.16403   0.21225   0.23994
 Alpha virt. eigenvalues --    0.25129   0.26990   0.27585   0.28066   0.29012
 Alpha virt. eigenvalues --    0.29132   0.30816   0.31803   0.32571   0.32873

 Mulliken charges:
               1
     1  C   -0.297736
     2  C   -0.300029
     3  C   -0.475277
     4  H    0.146174
     5  H    0.143275
     6  H    0.163947
     7  H    0.150795
     8  H    0.150976
     9  H    0.152661
    10  H    0.158728
    11  C   -0.307550
    12  C   -0.298178
    13  C   -0.475324
    14  H    0.178632
    15  H    0.144670
    16  H    0.149294
    17  H    0.146974
    18  H    0.151329
    19  H    0.158526
    20  H    0.154147
    21  C   -0.170549
    22  C   -0.218605
    23  C   -0.170605
    24  C    0.157814
    25  C   -0.170592
    26  C   -0.218633
    27  H    0.226022
    28  H    0.224023
    29  H    0.275951
    30  H    0.275817
    31  H    0.223800
    32  N    0.490898
    33  O   -0.459011
    34  O   -0.462365
 Sum of Mulliken charges =  -0.00000

 Dipole moment (field-independent basis, Debye):
    X=              5.1524    Y=              1.5326    Z=             -0.9839  Tot=              5.4648
 Quadrupole moment (field-independent basis, Debye-Ang):
   XX=            -71.9888   YY=            -93.4754   ZZ=            -94.3893
   XY=              0.8806   XZ=             -2.8315   YZ=              2.7382

 Normal termination of Gaussian 16 at Thu May  6 17:21:16 2021.
