 Gaussian 16, Revision A.03,
 Gaussian 16:  EM64L-G16RevA.03 25-Dec-2016

 -------------
 #p 6-31g* mp2
 -------------

 ------------------------------------------------------
 Input file generated by CHIRIPA (05-May-2021 14:57:24)
 ------------------------------------------------------
 Symbolic Z-matrix:
 Charge =  0 Multiplicity = 1

                         Standard orientation:
 ---------------------------------------------------------------------
 Center     Atomic      Atomic             Coordinates (Angstroms)
 Number     Number       Type             X           Y           Z
 ---------------------------------------------------------------------
      1          6           0       -4.604236   -1.929073    0.063994
      2          6           0       -3.215887   -1.882050   -0.099706
      3          6           0       -2.555004   -0.654926   -0.209015
      4          6           0       -3.317023    0.510904   -0.150209
      5          6           0       -4.701481    0.496869    0.012177
      6          6           0       -5.341302   -0.741557    0.119315
      7          1           0       -5.109445   -2.886722    0.148064
      8          1           0       -2.640913   -2.802688   -0.143011
      9          1           0       -1.481261   -0.589568   -0.336375
     10          1           0       -5.247686    1.431487    0.051750
     11          1           0       -6.419624   -0.775041    0.246381
     12          7           0       -2.628524    1.815988   -0.264780
     13          8           0       -3.322622    2.828834   -0.209937
     14          8           0       -1.407818    1.801355   -0.407255
     15          6           0        1.269091   -1.517956    0.579230
     16          6           0        2.174992   -2.019572   -0.361113
     17          6           0        3.375629   -1.350730   -0.617377
     18          6           0        3.639452   -0.177659    0.088024
     19          6           0        2.757073    0.347304    1.030951
     20          6           0        1.562505   -0.338198    1.271041
     21          1           0        0.338765   -2.043998    0.772020
     22          1           0        1.949759   -2.935569   -0.899875
     23          1           0        4.094764   -1.716838   -1.340030
     24          1           0        3.009382    1.262705    1.552293
     25          1           0        0.860838    0.053693    2.001883
     26          7           0        4.907299    0.539233   -0.174710
     27          8           0        5.116268    1.570777    0.460023
     28          8           0        5.668063    0.056014   -1.010398
 ---------------------------------------------------------------------

 SCF Done:  E(RHF) =  -868.336902365     A.U. after   16 cycles
 E2 =    -0.2600966607D+01 EUMP2 =    -0.87093786897213D+03

 The electronic state is 1-A.
 Alpha  occ. eigenvalues --  -20.61379 -20.61363 -20.60595 -20.60580 -15.86428
 Alpha  occ. eigenvalues --  -15.85642 -11.31895 -11.31107 -11.28503 -11.28441
 Alpha  occ. eigenvalues --  -11.28228 -11.27677 -11.27590 -11.27582 -11.27566
 Alpha  occ. eigenvalues --  -11.27458 -11.26838 -11.26711  -1.60449  -1.59660
 Alpha  occ. eigenvalues --   -1.39998  -1.39210  -1.20083  -1.19283  -1.09451
 Alpha  occ. eigenvalues --   -1.08713  -1.05516  -1.04678  -0.96271  -0.95526
 Alpha  occ. eigenvalues --   -0.86898  -0.86103  -0.83113  -0.82332  -0.78149
 Alpha  occ. eigenvalues --   -0.77327  -0.72640  -0.71866  -0.71780  -0.71234
 Alpha  occ. eigenvalues --   -0.70975  -0.70466  -0.65734  -0.65525  -0.64957
 Alpha  occ. eigenvalues --   -0.64705  -0.62863  -0.62013  -0.56003  -0.55316
 Alpha  occ. eigenvalues --   -0.53819  -0.53635  -0.52963  -0.52790  -0.49408
 Alpha  occ. eigenvalues --   -0.49389  -0.48633  -0.48609  -0.45383  -0.44593
 Alpha  occ. eigenvalues --   -0.38051  -0.37339  -0.37117  -0.36224
 Alpha virt. eigenvalues --    0.04379   0.05121   0.10507   0.11380   0.15809
 Alpha virt. eigenvalues --    0.16434   0.19380   0.22007   0.25335   0.27250
 Alpha virt. eigenvalues --    0.27629   0.29615   0.29983   0.31763   0.32268

 Mulliken charges:
               1
     1  C   -0.169936
     2  C   -0.221527
     3  C   -0.180060
     4  C    0.157736
     5  C   -0.169424
     6  C   -0.218462
     7  H    0.227488
     8  H    0.218454
     9  H    0.278945
    10  H    0.278018
    11  H    0.226183
    12  N    0.487129
    13  O   -0.457394
    14  O   -0.460339
    15  C   -0.179881
    16  C   -0.217841
    17  C   -0.170850
    18  C    0.160400
    19  C   -0.167196
    20  C   -0.208408
    21  H    0.215514
    22  H    0.220070
    23  H    0.275497
    24  H    0.279102
    25  H    0.227653
    26  N    0.487985
    27  O   -0.457880
    28  O   -0.460975
 Sum of Mulliken charges =  -0.00000

 Dipole moment (field-independent basis, Debye):
    X=             -6.9075    Y=             -6.8417    Z=              1.3716  Tot=              9.8185
 Quadrupole moment (field-independent basis, Debye-Ang):
   XX=           -116.3572   YY=           -106.1921   ZZ=           -103.7239
   XY=              2.5463   XZ=              0.7273   YZ=              3.5766

 Normal termination of Gaussian 16 at Thu May  6 18:00:31 2021.
