 Gaussian 16, Revision A.03,
 Gaussian 16:  EM64L-G16RevA.03 25-Dec-2016

 -------------
 #p 6-31g* mp2
 -------------

 ------------------------------------------------------
 Input file generated by CHIRIPA (05-May-2021 14:51:12)
 ------------------------------------------------------
 Symbolic Z-matrix:
 Charge =  0 Multiplicity = 1

                         Standard orientation:
 ---------------------------------------------------------------------
 Center     Atomic      Atomic             Coordinates (Angstroms)
 Number     Number       Type             X           Y           Z
 ---------------------------------------------------------------------
      1          6           0       -3.819530    0.089725   -0.444932
      2          6           0       -4.326070   -1.091732    0.383055
      3          6           0       -5.214562   -2.040287   -0.422313
      4          1           0       -4.679334    0.643018   -0.846863
      5          1           0       -3.260517   -0.291228   -1.310827
      6          1           0       -4.882783   -0.708640    1.247883
      7          1           0       -3.464961   -1.642165    0.783220
      8          1           0       -4.665756   -2.450180   -1.276362
      9          1           0       -6.091634   -1.511351   -0.809059
     10          1           0       -5.565551   -2.877596    0.188900
     11          6           0       -2.929956    1.046928    0.346363
     12          6           0       -2.423416    2.228384   -0.481624
     13          6           0       -1.534923    3.176939    0.323744
     14          1           0       -3.488969    1.427881    1.212258
     15          1           0       -2.070151    0.493635    0.748294
     16          1           0       -3.284524    2.778817   -0.881789
     17          1           0       -1.866702    1.845293   -1.346452
     18          1           0       -0.657851    2.648004    0.710490
     19          1           0       -2.083729    3.586832    1.177793
     20          1           0       -1.183934    4.014248   -0.287469
     21          6           0        2.760690   -0.690905    0.486715
     22          6           0        1.577133   -1.280480   -0.281127
     23          6           0        0.356216   -1.520049    0.607557
     24          1           0        3.030688   -1.368428    1.308305
     25          1           0        2.452468    0.256107    0.951000
     26          1           0        1.887898   -2.225408   -0.744972
     27          1           0        1.310044   -0.601568   -1.101101
     28          1           0        0.018729   -0.581791    1.059637
     29          1           0        0.599866   -2.214858    1.417790
     30          1           0       -0.478086   -1.941768    0.038388
     31          6           0        3.988795   -0.445747   -0.388146
     32          6           0        5.172352    0.143828    0.379696
     33          6           0        6.393269    0.383397   -0.508988
     34          1           0        4.297017   -1.392760   -0.852431
     35          1           0        3.718798    0.231776   -1.209736
     36          1           0        5.439441   -0.535084    1.199670
     37          1           0        4.861587    1.088756    0.843541
     38          1           0        6.149619    1.078206   -1.319221
     39          1           0        6.730756   -0.554861   -0.961068
     40          1           0        7.227572    0.805115    0.060181
 ---------------------------------------------------------------------

 SCF Done:  E(RHF) =  -470.733169295     A.U. after   11 cycles
 E2 =    -0.1583176221D+01 EUMP2 =    -0.47231634551607D+03

 The electronic state is 1-A.
 Alpha  occ. eigenvalues --  -11.21692 -11.21631 -11.21584 -11.21551 -11.21463
 Alpha  occ. eigenvalues --  -11.21399 -11.21343 -11.21263 -11.21184 -11.21098
 Alpha  occ. eigenvalues --  -11.21093 -11.21041  -1.08492  -1.08385  -1.03596
 Alpha  occ. eigenvalues --   -1.03504  -0.96057  -0.95946  -0.87074  -0.86967
 Alpha  occ. eigenvalues --   -0.79670  -0.79559  -0.78311  -0.78184  -0.65195
 Alpha  occ. eigenvalues --   -0.64968  -0.61058  -0.60845  -0.59418  -0.59316
 Alpha  occ. eigenvalues --   -0.57658  -0.57563  -0.55448  -0.55150  -0.52755
 Alpha  occ. eigenvalues --   -0.52645  -0.52495  -0.52362  -0.50100  -0.49815
 Alpha  occ. eigenvalues --   -0.48015  -0.47854  -0.46806  -0.46541  -0.45899
 Alpha  occ. eigenvalues --   -0.45797  -0.45712  -0.45451  -0.43837  -0.43745
 Alpha virt. eigenvalues --    0.20248   0.22785   0.23595   0.24962   0.25802
 Alpha virt. eigenvalues --    0.26655   0.26778   0.27587   0.28127   0.29393
 Alpha virt. eigenvalues --    0.29856   0.31599   0.31646   0.31785   0.32448

 Mulliken charges:
               1
     1  C   -0.297556
     2  C   -0.301728
     3  C   -0.475592
     4  H    0.149349
     5  H    0.149001
     6  H    0.151846
     7  H    0.154143
     8  H    0.154790
     9  H    0.155087
    10  H    0.160174
    11  C   -0.306470
    12  C   -0.299231
    13  C   -0.475921
    14  H    0.148899
    15  H    0.159203
    16  H    0.151923
    17  H    0.151448
    18  H    0.153811
    19  H    0.155528
    20  H    0.160221
    21  C   -0.298675
    22  C   -0.299761
    23  C   -0.481789
    24  H    0.149969
    25  H    0.149619
    26  H    0.152408
    27  H    0.151994
    28  H    0.159133
    29  H    0.156208
    30  H    0.161295
    31  C   -0.298367
    32  C   -0.299748
    33  C   -0.475756
    34  H    0.149647
    35  H    0.149842
    36  H    0.152006
    37  H    0.152158
    38  H    0.155282
    39  H    0.155199
    40  H    0.160408
 Sum of Mulliken charges =  -0.00000

 Dipole moment (field-independent basis, Debye):
    X=              0.0426    Y=             -0.0227    Z=              0.0153  Tot=              0.0506
 Quadrupole moment (field-independent basis, Debye-Ang):
   XX=            -85.3939   YY=            -84.2746   ZZ=            -85.1456
   XY=             -1.5150   XZ=              0.0099   YZ=             -0.3028

 Normal termination of Gaussian 16 at Wed May  5 18:20:50 2021.
