 Gaussian 16, Revision A.03,
 Gaussian 16:  EM64L-G16RevA.03 25-Dec-2016

 -------------
 #p 6-31g* mp2
 -------------

 ------------------------------------------------------
 Input file generated by CHIRIPA (05-May-2021 14:55:22)
 ------------------------------------------------------
 Symbolic Z-matrix:
 Charge =  0 Multiplicity = 1

                         Standard orientation:
 ---------------------------------------------------------------------
 Center     Atomic      Atomic             Coordinates (Angstroms)
 Number     Number       Type             X           Y           Z
 ---------------------------------------------------------------------
      1          6           0        0.384290   -2.249467    0.534147
      2          6           0        0.229826   -0.953036    1.036070
      3          6           0        1.218123    0.012827    0.824111
      4          6           0        2.353181   -0.353798    0.102641
      5          6           0        2.536170   -1.637086   -0.410171
      6          6           0        1.534940   -2.586760   -0.186102
      7          1           0       -0.388466   -2.993485    0.703506
      8          1           0       -0.662733   -0.688262    1.595782
      9          1           0        1.124212    1.023875    1.201446
     10          1           0        3.436991   -1.871231   -0.964351
     11          1           0        1.657590   -3.592811   -0.577080
     12          7           0        3.406292    0.660149   -0.128161
     13          8           0        4.396930    0.311996   -0.766959
     14          8           0        3.221141    1.783833    0.334105
     15          6           0       -2.326094    1.202263   -0.465637
     16          6           0       -2.354608    2.512192    0.322562
     17          6           0       -1.421560    3.573657   -0.260970
     18          1           0       -1.297558    0.816761   -0.486764
     19          1           0       -2.605758    1.404044   -1.508933
     20          1           0       -2.076314    2.307779    1.364381
     21          1           0       -3.383229    2.894522    0.341978
     22          1           0       -1.701010    3.806545   -1.293575
     23          1           0       -0.386671    3.216467   -0.265363
     24          1           0       -1.457641    4.501853    0.317831
     25          6           0       -3.253722    0.131263    0.105496
     26          6           0       -3.225208   -1.178666   -0.682703
     27          6           0       -4.158255   -2.240130   -0.099171
     28          1           0       -2.974057   -0.070517    1.148793
     29          1           0       -4.282258    0.516766    0.126623
     30          1           0       -2.196586   -1.560996   -0.702118
     31          1           0       -3.503500   -0.974252   -1.724521
     32          1           0       -5.193145   -1.882941   -0.094778
     33          1           0       -3.878805   -2.473018    0.933434
     34          1           0       -4.122175   -3.168326   -0.677972
 ---------------------------------------------------------------------

 SCF Done:  E(RHF) =  -669.533355946     A.U. after   15 cycles
 E2 =    -0.2096104981D+01 EUMP2 =    -0.67162946092709D+03

 The electronic state is 1-A.
 Alpha  occ. eigenvalues --  -20.60861 -20.60856 -15.85912 -11.31317 -11.27858
 Alpha  occ. eigenvalues --  -11.27853 -11.27585 -11.26894 -11.26855 -11.22322
 Alpha  occ. eigenvalues --  -11.22171 -11.22054 -11.21925 -11.21769 -11.21245
 Alpha  occ. eigenvalues --   -1.59933  -1.39486  -1.19492  -1.09118  -1.08840
 Alpha  occ. eigenvalues --   -1.04897  -1.04121  -0.96558  -0.95705  -0.87560
 Alpha  occ. eigenvalues --   -0.86289  -0.82542  -0.80185  -0.78860  -0.77586
 Alpha  occ. eigenvalues --   -0.72130  -0.71256  -0.70598  -0.66041  -0.65145
 Alpha  occ. eigenvalues --   -0.64705  -0.62166  -0.61529  -0.59934  -0.58149
 Alpha  occ. eigenvalues --   -0.55951  -0.55333  -0.53336  -0.53157  -0.53027
 Alpha  occ. eigenvalues --   -0.52841  -0.50513  -0.48891  -0.48884  -0.48485
 Alpha  occ. eigenvalues --   -0.47263  -0.46380  -0.46323  -0.44878  -0.44357
 Alpha  occ. eigenvalues --   -0.37410  -0.36371
 Alpha virt. eigenvalues --    0.04880   0.11023   0.16251   0.18743   0.22468
 Alpha virt. eigenvalues --    0.23783   0.25073   0.26128   0.27601   0.28187
 Alpha virt. eigenvalues --    0.29922   0.30884   0.31211   0.31469   0.31984

 Mulliken charges:
               1
     1  C   -0.173369
     2  C   -0.218752
     3  C   -0.175159
     4  C    0.159220
     5  C   -0.171138
     6  C   -0.219178
     7  H    0.228168
     8  H    0.231367
     9  H    0.278383
    10  H    0.276087
    11  H    0.224332
    12  N    0.488134
    13  O   -0.459679
    14  O   -0.460446
    15  C   -0.308665
    16  C   -0.300409
    17  C   -0.478410
    18  H    0.158215
    19  H    0.153336
    20  H    0.143920
    21  H    0.154077
    22  H    0.157561
    23  H    0.160560
    24  H    0.162993
    25  C   -0.300183
    26  C   -0.307298
    27  C   -0.476349
    28  H    0.138453
    29  H    0.154698
    30  H    0.153283
    31  H    0.156846
    32  H    0.159883
    33  H    0.148832
    34  H    0.160688
 Sum of Mulliken charges =  -0.00000

 Dipole moment (field-independent basis, Debye):
    X=             -3.6483    Y=             -3.5148    Z=              0.6824  Tot=              5.1117
 Quadrupole moment (field-independent basis, Debye-Ang):
   XX=           -110.9859   YY=            -90.6001   ZZ=            -93.7227
   XY=            -10.2145   XZ=              0.9722   YZ=              1.2748

 Normal termination of Gaussian 16 at Thu May  6 12:34:59 2021.
