 Gaussian 16, Revision A.03,
 Gaussian 16:  EM64L-G16RevA.03 25-Dec-2016

 -------------
 #p 6-31g* mp2
 -------------

 ------------------------------------------------------
 Input file generated by CHIRIPA (05-May-2021 14:53:15)
 ------------------------------------------------------
 Symbolic Z-matrix:
 Charge =  0 Multiplicity = 1

                         Standard orientation:
 ---------------------------------------------------------------------
 Center     Atomic      Atomic             Coordinates (Angstroms)
 Number     Number       Type             X           Y           Z
 ---------------------------------------------------------------------
      1          6           0       -2.754332    1.040365   -0.392957
      2          6           0       -1.373344    1.221312   -1.023920
      3          6           0       -0.938066    2.685805   -1.083813
      4          1           0       -3.490977    1.620183   -0.965766
      5          1           0       -2.744506    1.462706    0.621403
      6          1           0       -1.385376    0.797515   -2.036278
      7          1           0       -0.639933    0.640842   -0.449656
      8          1           0       -0.897899    3.117186   -0.078379
      9          1           0       -1.647578    3.274750   -1.674015
     10          1           0        0.051835    2.792140   -1.538399
     11          6           0       -3.203388   -0.418263   -0.326011
     12          6           0       -4.584376   -0.599210    0.304952
     13          6           0       -5.019653   -2.063703    0.364844
     14          1           0       -3.213214   -0.840604   -1.340372
     15          1           0       -2.466743   -0.998082    0.246797
     16          1           0       -5.317787   -0.018740   -0.269312
     17          1           0       -4.572343   -0.175414    1.317309
     18          1           0       -4.310142   -2.652648    0.955046
     19          1           0       -5.059821   -2.495084   -0.640590
     20          1           0       -6.009555   -2.170038    0.819430
     21          6           0        1.618373    1.916708    1.375863
     22          6           0        1.226373    0.691629    1.925442
     23          6           0        1.613309   -0.511240    1.327166
     24          6           0        2.395764   -0.451802    0.174985
     25          6           0        2.802308    0.752944   -0.396504
     26          6           0        2.403704    1.943410    0.218685
     27          1           0        1.313260    2.846309    1.847188
     28          1           0        0.616473    0.667857    2.824053
     29          1           0        1.323939   -1.473624    1.731516
     30          1           0        3.410276    0.744642   -1.293010
     31          1           0        2.709616    2.893358   -0.210338
     32          7           0        2.811572   -1.718660   -0.467335
     33          8           0        3.500924   -1.639278   -1.481795
     34          8           0        2.440256   -2.767017    0.055837
 ---------------------------------------------------------------------

 SCF Done:  E(RHF) =  -669.534283693     A.U. after   15 cycles
 E2 =    -0.2094929180D+01 EUMP2 =    -0.67162921287225D+03

 The electronic state is 1-A.
 Alpha  occ. eigenvalues --  -20.60832 -20.60826 -15.85888 -11.31294 -11.27867
 Alpha  occ. eigenvalues --  -11.27855 -11.27584 -11.26887 -11.26856 -11.21764
 Alpha  occ. eigenvalues --  -11.21683 -11.21605 -11.21520 -11.21425 -11.21159
 Alpha  occ. eigenvalues --   -1.59906  -1.39459  -1.19483  -1.08871  -1.08597
 Alpha  occ. eigenvalues --   -1.04887  -1.03709  -0.96194  -0.95678  -0.87212
 Alpha  occ. eigenvalues --   -0.86266  -0.82516  -0.79775  -0.78419  -0.77557
 Alpha  occ. eigenvalues --   -0.72104  -0.71231  -0.70571  -0.65272  -0.65120
 Alpha  occ. eigenvalues --   -0.64878  -0.62228  -0.61176  -0.59584  -0.57816
 Alpha  occ. eigenvalues --   -0.55611  -0.55332  -0.53223  -0.52973  -0.52704
 Alpha  occ. eigenvalues --   -0.52600  -0.50143  -0.48867  -0.48857  -0.48083
 Alpha  occ. eigenvalues --   -0.46782  -0.45950  -0.45867  -0.44855  -0.43981
 Alpha  occ. eigenvalues --   -0.37392  -0.36436
 Alpha virt. eigenvalues --    0.04949   0.11125   0.16357   0.20774   0.22861
 Alpha virt. eigenvalues --    0.24203   0.26213   0.26624   0.27005   0.27750
 Alpha virt. eigenvalues --    0.28859   0.30000   0.31422   0.31793   0.32085

 Mulliken charges:
               1
     1  C   -0.297251
     2  C   -0.306185
     3  C   -0.471159
     4  H    0.149920
     5  H    0.143665
     6  H    0.153714
     7  H    0.161479
     8  H    0.144555
     9  H    0.154535
    10  H    0.156881
    11  C   -0.298099
    12  C   -0.299568
    13  C   -0.475734
    14  H    0.152596
    15  H    0.148223
    16  H    0.152338
    17  H    0.149172
    18  H    0.155445
    19  H    0.157130
    20  H    0.160177
    21  C   -0.166677
    22  C   -0.219603
    23  C   -0.174115
    24  C    0.161151
    25  C   -0.172143
    26  C   -0.215100
    27  H    0.226346
    28  H    0.223938
    29  H    0.275980
    30  H    0.276125
    31  H    0.224416
    32  N    0.488129
    33  O   -0.460039
    34  O   -0.460242
 Sum of Mulliken charges =  -0.00000

 Dipole moment (field-independent basis, Debye):
    X=             -1.3639    Y=              4.3883    Z=              2.2554  Tot=              5.1190
 Quadrupole moment (field-independent basis, Debye-Ang):
   XX=           -101.2382   YY=            -99.2030   ZZ=            -91.0011
   XY=             12.7550   XZ=              3.8100   YZ=             -2.1581

 Normal termination of Gaussian 16 at Wed May  5 18:42:16 2021.
