 Gaussian 16, Revision A.03,
 Gaussian 16:  EM64L-G16RevA.03 25-Dec-2016

 -------------
 #p 6-31g* mp2
 -------------

 ------------------------------------------------------
 Input file generated by CHIRIPA (05-May-2021 14:55:19)
 ------------------------------------------------------
 Symbolic Z-matrix:
 Charge =  0 Multiplicity = 1

                         Standard orientation:
 ---------------------------------------------------------------------
 Center     Atomic      Atomic             Coordinates (Angstroms)
 Number     Number       Type             X           Y           Z
 ---------------------------------------------------------------------
      1          6           0        0.218093   -1.086224    1.196218
      2          6           0        0.571872   -1.556515   -0.072714
      3          6           0        1.799217   -1.206014   -0.643084
      4          6           0        2.652463   -0.379765    0.086692
      5          6           0        2.328555    0.104871    1.352987
      6          6           0        1.096016   -0.258492    1.903771
      7          1           0       -0.737355   -1.363498    1.631688
      8          1           0       -0.107950   -2.199487   -0.624505
      9          1           0        2.098310   -1.555914   -1.623661
     10          1           0        3.027140    0.744299    1.878847
     11          1           0        0.823909    0.108229    2.889428
     12          7           0        3.954548   -0.001897   -0.506765
     13          8           0        4.688610    0.727311    0.156593
     14          8           0        4.216404   -0.442088   -1.624039
     15          6           0       -3.697652    0.117693   -0.013728
     16          6           0       -3.600705   -1.309206   -0.554604
     17          6           0       -4.762542   -2.193579   -0.100939
     18          1           0       -3.729011    0.085599    1.083965
     19          1           0       -4.647697    0.562558   -0.340692
     20          1           0       -2.650501   -1.750765   -0.227872
     21          1           0       -3.569380   -1.273700   -1.651132
     22          1           0       -5.717445   -1.778973   -0.439854
     23          1           0       -4.793345   -2.258749    0.991492
     24          1           0       -4.673252   -3.209172   -0.499005
     25          6           0       -2.543280    1.013935   -0.458595
     26          6           0       -2.640227    2.440834    0.082280
     27          6           0       -1.478390    3.325207   -0.371385
     28          1           0       -1.593236    0.569071   -0.131631
     29          1           0       -2.511922    1.046030   -1.556289
     30          1           0       -2.671553    2.405327    1.178808
     31          1           0       -3.590431    2.882393   -0.244452
     32          1           0       -1.447587    3.390377   -1.463816
     33          1           0       -0.523487    2.910601   -0.032470
     34          1           0       -1.567681    4.340801    0.026681
 ---------------------------------------------------------------------

 SCF Done:  E(RHF) =  -669.534410271     A.U. after   15 cycles
 E2 =    -0.2094166302D+01 EUMP2 =    -0.67162857657336D+03

 The electronic state is 1-A.
 Alpha  occ. eigenvalues --  -20.60812 -20.60806 -15.85866 -11.31265 -11.27851
 Alpha  occ. eigenvalues --  -11.27824 -11.27579 -11.26872 -11.26827 -11.22648
 Alpha  occ. eigenvalues --  -11.22174 -11.22051 -11.21941 -11.21808 -11.21358
 Alpha  occ. eigenvalues --   -1.59886  -1.39439  -1.19454  -1.09154  -1.08829
 Alpha  occ. eigenvalues --   -1.04852  -1.04197  -0.96609  -0.95673  -0.87624
 Alpha  occ. eigenvalues --   -0.86256  -0.82496  -0.80307  -0.78913  -0.77528
 Alpha  occ. eigenvalues --   -0.72085  -0.71210  -0.70592  -0.65833  -0.65093
 Alpha  occ. eigenvalues --   -0.64822  -0.62209  -0.61596  -0.59997  -0.58223
 Alpha  occ. eigenvalues --   -0.55929  -0.55341  -0.53350  -0.53271  -0.52978
 Alpha  occ. eigenvalues --   -0.52909  -0.50558  -0.48852  -0.48837  -0.48588
 Alpha  occ. eigenvalues --   -0.47375  -0.46433  -0.46352  -0.44837  -0.44430
 Alpha  occ. eigenvalues --   -0.37321  -0.36443
 Alpha virt. eigenvalues --    0.04971   0.11123   0.16383   0.19300   0.22851
 Alpha virt. eigenvalues --    0.23656   0.25518   0.25902   0.27210   0.28011
 Alpha virt. eigenvalues --    0.29378   0.30257   0.31046   0.31374   0.32002

 Mulliken charges:
               1
     1  C   -0.175215
     2  C   -0.217702
     3  C   -0.170562
     4  C    0.158708
     5  C   -0.171254
     6  C   -0.218677
     7  H    0.228789
     8  H    0.227084
     9  H    0.276215
    10  H    0.276159
    11  H    0.224095
    12  N    0.488067
    13  O   -0.460165
    14  O   -0.460035
    15  C   -0.298628
    16  C   -0.302562
    17  C   -0.475510
    18  H    0.144985
    19  H    0.153721
    20  H    0.139827
    21  H    0.156151
    22  H    0.159759
    23  H    0.154074
    24  H    0.161286
    25  C   -0.309309
    26  C   -0.298632
    27  C   -0.476725
    28  H    0.159032
    29  H    0.150713
    30  H    0.148039
    31  H    0.152858
    32  H    0.157176
    33  H    0.157057
    34  H    0.161182
 Sum of Mulliken charges =  -0.00000

 Dipole moment (field-independent basis, Debye):
    X=             -4.5873    Y=             -1.2990    Z=              2.0275  Tot=              5.1808
 Quadrupole moment (field-independent basis, Debye-Ang):
   XX=           -119.5660   YY=            -93.3368   ZZ=            -90.6062
   XY=             -1.8461   XZ=              7.0562   YZ=              1.5489

 Normal termination of Gaussian 16 at Thu May  6 14:01:48 2021.
