 Gaussian 16, Revision A.03,
 Gaussian 16:  EM64L-G16RevA.03 25-Dec-2016

 -------------
 #p 6-31g* mp2
 -------------

 ------------------------------------------------------
 Input file generated by CHIRIPA (05-May-2021 14:53:13)
 ------------------------------------------------------
 Symbolic Z-matrix:
 Charge =  0 Multiplicity = 1

                         Standard orientation:
 ---------------------------------------------------------------------
 Center     Atomic      Atomic             Coordinates (Angstroms)
 Number     Number       Type             X           Y           Z
 ---------------------------------------------------------------------
      1          6           0       -3.328290    0.952107   -0.186839
      2          6           0       -3.492787    2.203059    0.676900
      3          6           0       -2.653495    3.379990    0.178686
      4          1           0       -2.267954    0.665395   -0.207535
      5          1           0       -3.607851    1.190655   -1.222375
      6          1           0       -3.214320    1.961858    1.710773
      7          1           0       -4.552882    2.486715    0.695698
      8          1           0       -2.935938    3.648819   -0.844328
      9          1           0       -1.589770    3.120980    0.176515
     10          1           0       -2.786203    4.263686    0.810612
     11          6           0       -4.161084   -0.233040    0.298558
     12          6           0       -3.996588   -1.483993   -0.565180
     13          6           0       -4.835879   -2.660924   -0.066967
     14          1           0       -3.881523   -0.471589    1.334094
     15          1           0       -5.221420    0.053671    0.319254
     16          1           0       -2.936492   -1.767648   -0.583979
     17          1           0       -4.275054   -1.242792   -1.599054
     18          1           0       -5.899604   -2.401914   -0.064795
     19          1           0       -4.553437   -2.929753    0.956047
     20          1           0       -4.703171   -3.544620   -0.698893
     21          6           0        5.304555    0.554356    0.048936
     22          6           0        4.987400   -0.712397    0.550205
     23          6           0        3.672620   -1.185448    0.504132
     24          6           0        2.695542   -0.361633   -0.052590
     25          6           0        2.980069    0.905114   -0.560219
     26          6           0        4.301645    1.357652   -0.503702
     27          1           0        6.328547    0.913866    0.088784
     28          1           0        5.764225   -1.338418    0.979957
     29          1           0        3.399327   -2.162022    0.884961
     30          1           0        2.184109    1.506288   -0.982656
     31          1           0        4.545041    2.341859   -0.893753
     32          7           0        1.300046   -0.851574   -0.106894
     33          8           0        0.457462   -0.106480   -0.602399
     34          8           0        1.075264   -1.971405    0.347075
 ---------------------------------------------------------------------

 SCF Done:  E(RHF) =  -669.536604240     A.U. after   15 cycles
 E2 =    -0.2091193563D+01 EUMP2 =    -0.67162779780289D+03

 The electronic state is 1-A.
 Alpha  occ. eigenvalues --  -20.61082 -20.61072 -15.86099 -11.31368 -11.27924
 Alpha  occ. eigenvalues --  -11.27920 -11.27653 -11.26919 -11.26909 -11.20555
 Alpha  occ. eigenvalues --  -11.20247 -11.20198 -11.20079 -11.19944 -11.19837
 Alpha  occ. eigenvalues --   -1.60132  -1.39689  -1.19531  -1.08946  -1.07136
 Alpha  occ. eigenvalues --   -1.04919  -1.02376  -0.95796  -0.94838  -0.86321
 Alpha  occ. eigenvalues --   -0.85869  -0.82631  -0.78428  -0.77691  -0.76910
 Alpha  occ. eigenvalues --   -0.72320  -0.71440  -0.70639  -0.65188  -0.64921
 Alpha  occ. eigenvalues --   -0.63752  -0.62266  -0.59775  -0.58218  -0.56445
 Alpha  occ. eigenvalues --   -0.55426  -0.54127  -0.53253  -0.53009  -0.51594
 Alpha  occ. eigenvalues --   -0.51278  -0.49124  -0.49077  -0.48767  -0.46758
 Alpha  occ. eigenvalues --   -0.45452  -0.45118  -0.44495  -0.44231  -0.42581
 Alpha  occ. eigenvalues --   -0.37507  -0.36517
 Alpha virt. eigenvalues --    0.04823   0.11139   0.16321   0.21242   0.24141
 Alpha virt. eigenvalues --    0.25340   0.27155   0.27677   0.28188   0.28902
 Alpha virt. eigenvalues --    0.29242   0.30863   0.32031   0.32618   0.32963

 Mulliken charges:
               1
     1  C   -0.312410
     2  C   -0.297679
     3  C   -0.474973
     4  H    0.180950
     5  H    0.143615
     6  H    0.149560
     7  H    0.147182
     8  H    0.152723
     9  H    0.156060
    10  H    0.154617
    11  C   -0.296200
    12  C   -0.303229
    13  C   -0.474797
    14  H    0.147994
    15  H    0.142857
    16  H    0.169095
    17  H    0.147278
    18  H    0.150234
    19  H    0.154426
    20  H    0.157709
    21  C   -0.170407
    22  C   -0.218621
    23  C   -0.170378
    24  C    0.157447
    25  C   -0.170809
    26  C   -0.218547
    27  H    0.226310
    28  H    0.224068
    29  H    0.275966
    30  H    0.276044
    31  H    0.224259
    32  N    0.491832
    33  O   -0.463323
    34  O   -0.458855
 Sum of Mulliken charges =  -0.00000

 Dipole moment (field-independent basis, Debye):
    X=              5.3593    Y=              1.5909    Z=              0.1566  Tot=              5.5926
 Quadrupole moment (field-independent basis, Debye-Ang):
   XX=            -69.6586   YY=            -94.0489   ZZ=            -94.4255
   XY=              1.0983   XZ=              1.6905   YZ=             -2.4458

 Normal termination of Gaussian 16 at Wed May  5 21:48:32 2021.
