 Gaussian 16, Revision A.03,
 Gaussian 16:  EM64L-G16RevA.03 25-Dec-2016

 -------------
 #p 6-31g* mp2
 -------------

 ------------------------------------------------------
 Input file generated by CHIRIPA (05-May-2021 14:53:15)
 ------------------------------------------------------
 Symbolic Z-matrix:
 Charge =  0 Multiplicity = 1

                         Standard orientation:
 ---------------------------------------------------------------------
 Center     Atomic      Atomic             Coordinates (Angstroms)
 Number     Number       Type             X           Y           Z
 ---------------------------------------------------------------------
      1          6           0       -3.047003   -0.405966    0.415093
      2          6           0       -3.943502   -0.737368   -0.778410
      3          6           0       -4.435101   -2.185101   -0.764501
      4          1           0       -2.185206   -1.087316    0.418579
      5          1           0       -3.600500   -0.597306    1.344837
      6          1           0       -3.388949   -0.544143   -1.705638
      7          1           0       -4.803166   -0.055024   -0.779164
      8          1           0       -5.011247   -2.387589    0.144155
      9          1           0       -3.588995   -2.879487   -0.787582
     10          1           0       -5.074246   -2.400348   -1.626488
     11          6           0       -2.547599    1.037753    0.415218
     12          6           0       -1.651100    1.369154    1.608720
     13          6           0       -1.159501    2.816887    1.594811
     14          1           0       -1.994102    1.229093   -0.514527
     15          1           0       -3.409396    1.719103    0.411732
     16          1           0       -0.791436    0.686810    1.609475
     17          1           0       -2.205653    1.175930    2.535948
     18          1           0       -2.005607    3.511274    1.617893
     19          1           0       -0.583355    3.019375    0.686155
     20          1           0       -0.520355    3.032134    2.456799
     21          6           0        2.932011   -2.197020    1.091672
     22          6           0        1.667655   -2.209737    0.493541
     23          6           0        1.243487   -1.134631   -0.293083
     24          6           0        2.113211   -0.058251   -0.461235
     25          6           0        3.378871   -0.016085    0.121532
     26          6           0        3.782086   -1.102165    0.904089
     27          1           0        3.253377   -3.036450    1.701162
     28          1           0        1.005370   -3.058679    0.637487
     29          1           0        0.269914   -1.118450   -0.767753
     30          1           0        4.016875    0.844266   -0.040227
     31          1           0        4.764553   -1.089561    1.367387
     32          7           0        1.675255    1.085724   -1.291847
     33          8           0        2.460221    2.022128   -1.424566
     34          8           0        0.555311    1.024307   -1.794432
 ---------------------------------------------------------------------

 SCF Done:  E(RHF) =  -669.536356433     A.U. after   15 cycles
 E2 =    -0.2093426833D+01 EUMP2 =    -0.67162978326629D+03

 The electronic state is 1-A.
 Alpha  occ. eigenvalues --  -20.61026 -20.61018 -15.86049 -11.31338 -11.27894
 Alpha  occ. eigenvalues --  -11.27886 -11.27616 -11.26894 -11.26883 -11.21415
 Alpha  occ. eigenvalues --  -11.21252 -11.21157 -11.21072 -11.20713 -11.20458
 Alpha  occ. eigenvalues --   -1.60080  -1.39637  -1.19501  -1.08908  -1.08094
 Alpha  occ. eigenvalues --   -1.04891  -1.03209  -0.95762  -0.95653  -0.86669
 Alpha  occ. eigenvalues --   -0.86291  -0.82594  -0.79291  -0.77877  -0.77654
 Alpha  occ. eigenvalues --   -0.72276  -0.71398  -0.70607  -0.65164  -0.64963
 Alpha  occ. eigenvalues --   -0.64656  -0.62225  -0.60608  -0.59039  -0.57264
 Alpha  occ. eigenvalues --   -0.55396  -0.54949  -0.53226  -0.52975  -0.52365
 Alpha  occ. eigenvalues --   -0.52070  -0.49608  -0.49026  -0.49014  -0.47604
 Alpha  occ. eigenvalues --   -0.46341  -0.45516  -0.45436  -0.44782  -0.43449
 Alpha  occ. eigenvalues --   -0.37463  -0.36469
 Alpha virt. eigenvalues --    0.04817   0.11091   0.16298   0.19940   0.22919
 Alpha virt. eigenvalues --    0.24501   0.25856   0.27389   0.27930   0.28083
 Alpha virt. eigenvalues --    0.29514   0.31153   0.31498   0.31975   0.32342

 Mulliken charges:
               1
     1  C   -0.296223
     2  C   -0.301557
     3  C   -0.474264
     4  H    0.135628
     5  H    0.148018
     6  H    0.157550
     7  H    0.153861
     8  H    0.154536
     9  H    0.148548
    10  H    0.161299
    11  C   -0.310649
    12  C   -0.299803
    13  C   -0.479807
    14  H    0.176252
    15  H    0.148214
    16  H    0.145785
    17  H    0.147781
    18  H    0.154566
    19  H    0.167204
    20  H    0.156054
    21  C   -0.170312
    22  C   -0.219699
    23  C   -0.172899
    24  C    0.158664
    25  C   -0.170406
    26  C   -0.218412
    27  H    0.226388
    28  H    0.224536
    29  H    0.279811
    30  H    0.276018
    31  H    0.224117
    32  N    0.489642
    33  O   -0.458131
    34  O   -0.462310
 Sum of Mulliken charges =  -0.00000

 Dipole moment (field-independent basis, Debye):
    X=              1.6960    Y=             -3.8983    Z=              2.7458  Tot=              5.0609
 Quadrupole moment (field-independent basis, Debye-Ang):
   XX=            -83.8986   YY=            -94.6699   ZZ=            -98.0689
   XY=             -7.4746   XZ=              6.3459   YZ=              1.7969

 Normal termination of Gaussian 16 at Thu May  6 04:18:24 2021.
