 Gaussian 16, Revision A.03,
 Gaussian 16:  EM64L-G16RevA.03 25-Dec-2016

 -------------
 #p 6-31g* mp2
 -------------

 ------------------------------------------------------
 Input file generated by CHIRIPA (05-May-2021 14:51:08)
 ------------------------------------------------------
 Symbolic Z-matrix:
 Charge =  0 Multiplicity = 1

                         Standard orientation:
 ---------------------------------------------------------------------
 Center     Atomic      Atomic             Coordinates (Angstroms)
 Number     Number       Type             X           Y           Z
 ---------------------------------------------------------------------
      1          6           0       -3.308231   -0.018325    0.108656
      2          6           0       -2.222256   -0.965054    0.620855
      3          6           0       -0.838760   -0.314946    0.653912
      4          1           0       -3.039472    0.326680   -0.899156
      5          1           0       -3.337114    0.875186    0.747559
      6          1           0       -2.196366   -1.857138   -0.017996
      7          1           0       -2.493727   -1.307995    1.627488
      8          1           0       -0.841617    0.563977    1.306666
      9          1           0       -0.542567    0.011714   -0.348168
     10          1           0       -0.077614   -1.009316    1.023191
     11          6           0       -4.696888   -0.653818    0.069789
     12          6           0       -5.782863    0.292910   -0.442410
     13          6           0       -7.166359   -0.357198   -0.475467
     14          1           0       -4.668005   -1.547330   -0.569115
     15          1           0       -4.965647   -0.998823    1.077601
     16          1           0       -5.511392    0.635852   -1.449044
     17          1           0       -5.808753    1.184995    0.196441
     18          1           0       -7.462552   -0.683858    0.526613
     19          1           0       -7.163502   -1.236121   -1.128221
     20          1           0       -7.927505    0.337172   -0.844747
     21          6           0        4.276458   -0.319971    0.190096
     22          6           0        5.382755   -0.930627   -0.670829
     23          6           0        5.920545   -2.242724   -0.099006
     24          1           0        4.662273   -0.148739    1.204380
     25          1           0        3.454825   -1.043216    0.286175
     26          1           0        6.201457   -0.205916   -0.766400
     27          1           0        4.994319   -1.100250   -1.683232
     28          1           0        5.119875   -2.985156   -0.019491
     29          1           0        6.333873   -2.085741    0.902551
     30          1           0        6.710405   -2.661856   -0.730123
     31          6           0        3.728661    0.992115   -0.368541
     32          6           0        2.622364    1.602771    0.492384
     33          6           0        2.084574    2.914867   -0.079439
     34          1           0        4.550294    1.715360   -0.464619
     35          1           0        3.342846    0.820882   -1.382824
     36          1           0        3.010801    1.772393    1.504788
     37          1           0        1.803662    0.878059    0.587955
     38          1           0        1.671246    2.757884   -1.080996
     39          1           0        2.885244    3.657300   -0.158954
     40          1           0        1.294714    3.333999    0.551678
 ---------------------------------------------------------------------

 SCF Done:  E(RHF) =  -470.733200064     A.U. after   11 cycles
 E2 =    -0.1582726084D+01 EUMP2 =    -0.47231592614821D+03

 The electronic state is 1-A.
 Alpha  occ. eigenvalues --  -11.21648 -11.21621 -11.21560 -11.21437 -11.21407
 Alpha  occ. eigenvalues --  -11.21377 -11.21334 -11.21264 -11.21156 -11.21087
 Alpha  occ. eigenvalues --  -11.21043 -11.20977  -1.08467  -1.08347  -1.03582
 Alpha  occ. eigenvalues --   -1.03438  -0.96036  -0.95900  -0.87062  -0.86915
 Alpha  occ. eigenvalues --   -0.79704  -0.79456  -0.78288  -0.78142  -0.65096
 Alpha  occ. eigenvalues --   -0.64982  -0.60975  -0.60850  -0.59406  -0.59264
 Alpha  occ. eigenvalues --   -0.57655  -0.57494  -0.55312  -0.55200  -0.52769
 Alpha  occ. eigenvalues --   -0.52590  -0.52446  -0.52325  -0.49966  -0.49845
 Alpha  occ. eigenvalues --   -0.48006  -0.47786  -0.46666  -0.46534  -0.45868
 Alpha  occ. eigenvalues --   -0.45741  -0.45692  -0.45563  -0.43791  -0.43693
 Alpha virt. eigenvalues --    0.21768   0.22966   0.23798   0.24694   0.25916
 Alpha virt. eigenvalues --    0.26492   0.27117   0.27332   0.27910   0.29140
 Alpha virt. eigenvalues --    0.30400   0.30997   0.31749   0.31929   0.32314

 Mulliken charges:
               1
     1  C   -0.298463
     2  C   -0.300802
     3  C   -0.477418
     4  H    0.149726
     5  H    0.149710
     6  H    0.151945
     7  H    0.152253
     8  H    0.156769
     9  H    0.155502
    10  H    0.160151
    11  C   -0.298365
    12  C   -0.299645
    13  C   -0.475728
    14  H    0.149539
    15  H    0.149734
    16  H    0.151990
    17  H    0.152016
    18  H    0.155214
    19  H    0.155191
    20  H    0.160347
    21  C   -0.298370
    22  C   -0.299549
    23  C   -0.475651
    24  H    0.149499
    25  H    0.149192
    26  H    0.151897
    27  H    0.151769
    28  H    0.154996
    29  H    0.155106
    30  H    0.160094
    31  C   -0.297427
    32  C   -0.311348
    33  C   -0.474768
    34  H    0.148941
    35  H    0.148833
    36  H    0.150635
    37  H    0.168048
    38  H    0.154261
    39  H    0.154540
    40  H    0.159635
 Sum of Mulliken charges =  -0.00000

 Dipole moment (field-independent basis, Debye):
    X=             -0.0578    Y=             -0.0172    Z=              0.0137  Tot=              0.0619
 Quadrupole moment (field-independent basis, Debye-Ang):
   XX=            -85.8212   YY=            -85.5663   ZZ=            -83.6642
   XY=              0.3710   XZ=             -0.0109   YZ=              0.8501

 Normal termination of Gaussian 16 at Thu May  6 03:41:56 2021.
