 Gaussian 16, Revision A.03,
 Gaussian 16:  EM64L-G16RevA.03 25-Dec-2016

 -------------
 #p 6-31g* mp2
 -------------

 ------------------------------------------------------
 Input file generated by CHIRIPA (05-May-2021 14:51:07)
 ------------------------------------------------------
 Symbolic Z-matrix:
 Charge =  0 Multiplicity = 1

                         Standard orientation:
 ---------------------------------------------------------------------
 Center     Atomic      Atomic             Coordinates (Angstroms)
 Number     Number       Type             X           Y           Z
 ---------------------------------------------------------------------
      1          6           0       -3.090931   -0.658431   -0.672168
      2          6           0       -2.722184   -1.844279    0.219895
      3          6           0       -3.266946   -3.172235   -0.306947
      4          1           0       -4.184501   -0.599185   -0.758992
      5          1           0       -2.706146   -0.837406   -1.685727
      6          1           0       -3.106352   -1.662488    1.231815
      7          1           0       -1.629370   -1.900594    0.304761
      8          1           0       -2.873805   -3.380175   -1.307348
      9          1           0       -4.359179   -3.140717   -0.375026
     10          1           0       -2.991651   -4.006415    0.345905
     11          6           0       -2.553450    0.676156   -0.158630
     12          6           0       -2.922196    1.862004   -1.050693
     13          6           0       -2.377434    3.189960   -0.523851
     14          1           0       -2.938235    0.855131    0.854929
     15          1           0       -1.459879    0.616910   -0.071806
     16          1           0       -4.015010    1.918319   -1.135559
     17          1           0       -2.538028    1.680213   -2.062613
     18          1           0       -1.285201    3.158442   -0.455772
     19          1           0       -2.770575    3.397900    0.476549
     20          1           0       -2.652729    4.024140   -1.176704
     21          6           0        2.423921    0.421215    0.905140
     22          6           0        1.155418   -0.261021    1.418405
     23          6           0        0.369432    0.611870    2.397220
     24          1           0        3.062940    0.683377    1.759465
     25          1           0        2.151259    1.367080    0.416890
     26          1           0        1.430259   -1.205988    1.904322
     27          1           0        0.519432   -0.521761    0.562747
     28          1           0        0.066837    1.549500    1.919844
     29          1           0        0.982840    0.861385    3.269042
     30          1           0       -0.533427    0.104775    2.751566
     31          6           0        3.220459   -0.438940   -0.074342
     32          6           0        4.488962    0.243296   -0.587607
     33          6           0        5.274949   -0.629595   -1.566422
     34          1           0        3.493122   -1.384806    0.413908
     35          1           0        2.581440   -0.701102   -0.928667
     36          1           0        5.124948    0.504036    0.268051
     37          1           0        4.214121    1.188263   -1.073524
     38          1           0        4.661540   -0.879110   -2.438244
     39          1           0        5.577543   -1.567225   -1.089046
     40          1           0        6.177807   -0.122500   -1.920766
 ---------------------------------------------------------------------

 SCF Done:  E(RHF) =  -470.732466920     A.U. after   11 cycles
 E2 =    -0.1584562513D+01 EUMP2 =    -0.47231702943308D+03

 The electronic state is 1-A.
 Alpha  occ. eigenvalues --  -11.21627 -11.21606 -11.21604 -11.21587 -11.21437
 Alpha  occ. eigenvalues --  -11.21382 -11.21377 -11.21301 -11.21109 -11.21093
 Alpha  occ. eigenvalues --  -11.21067 -11.21004  -1.08493  -1.08395  -1.03549
 Alpha  occ. eigenvalues --   -1.03531  -0.96025  -0.95945  -0.87026  -0.86975
 Alpha  occ. eigenvalues --   -0.79663  -0.79549  -0.78352  -0.78178  -0.65314
 Alpha  occ. eigenvalues --   -0.64883  -0.60990  -0.60909  -0.59411  -0.59300
 Alpha  occ. eigenvalues --   -0.57669  -0.57515  -0.55377  -0.55186  -0.52718
 Alpha  occ. eigenvalues --   -0.52636  -0.52424  -0.52380  -0.49946  -0.49926
 Alpha  occ. eigenvalues --   -0.47974  -0.47913  -0.46774  -0.46590  -0.46079
 Alpha  occ. eigenvalues --   -0.45782  -0.45701  -0.45235  -0.43787  -0.43778
 Alpha virt. eigenvalues --    0.20498   0.22931   0.23493   0.24210   0.25650
 Alpha virt. eigenvalues --    0.26344   0.26578   0.27639   0.28323   0.29777
 Alpha virt. eigenvalues --    0.30638   0.31198   0.31675   0.31896   0.32568

 Mulliken charges:
               1
     1  C   -0.297863
     2  C   -0.305252
     3  C   -0.475405
     4  H    0.149566
     5  H    0.148610
     6  H    0.151558
     7  H    0.157646
     8  H    0.155041
     9  H    0.155168
    10  H    0.160282
    11  C   -0.306081
    12  C   -0.299253
    13  C   -0.476359
    14  H    0.150086
    15  H    0.159415
    16  H    0.151965
    17  H    0.151323
    18  H    0.154385
    19  H    0.155832
    20  H    0.160495
    21  C   -0.297962
    22  C   -0.307433
    23  C   -0.477731
    24  H    0.150212
    25  H    0.148700
    26  H    0.152390
    27  H    0.156639
    28  H    0.156963
    29  H    0.154860
    30  H    0.162309
    31  C   -0.298265
    32  C   -0.299649
    33  C   -0.475723
    34  H    0.149747
    35  H    0.149014
    36  H    0.152139
    37  H    0.151909
    38  H    0.155084
    39  H    0.155259
    40  H    0.160380
 Sum of Mulliken charges =  -0.00000

 Dipole moment (field-independent basis, Debye):
    X=              0.0013    Y=             -0.0004    Z=              0.0199  Tot=              0.0200
 Quadrupole moment (field-independent basis, Debye-Ang):
   XX=            -84.3609   YY=            -85.9775   ZZ=            -84.4792
   XY=             -0.3623   XZ=              0.3096   YZ=             -0.8633

 Normal termination of Gaussian 16 at Thu May  6 03:39:35 2021.
