 Gaussian 16, Revision A.03,
 Gaussian 16:  EM64L-G16RevA.03 25-Dec-2016

 -------------
 #p 6-31g* mp2
 -------------

 ------------------------------------------------------
 Input file generated by CHIRIPA (05-May-2021 14:55:20)
 ------------------------------------------------------
 Symbolic Z-matrix:
 Charge =  0 Multiplicity = 1

                         Standard orientation:
 ---------------------------------------------------------------------
 Center     Atomic      Atomic             Coordinates (Angstroms)
 Number     Number       Type             X           Y           Z
 ---------------------------------------------------------------------
      1          6           0       -2.481534   -1.968528    1.111832
      2          6           0       -1.862162   -0.959280    1.856358
      3          6           0       -1.804148    0.349416    1.367996
      4          6           0       -2.378345    0.614740    0.125743
      5          6           0       -3.002440   -0.369091   -0.639680
      6          6           0       -3.048697   -1.670737   -0.131619
      7          1           0       -2.522034   -2.982416    1.498854
      8          1           0       -1.420853   -1.187647    2.822349
      9          1           0       -1.330827    1.149895    1.923529
     10          1           0       -3.433472   -0.110870   -1.599342
     11          1           0       -3.530356   -2.452524   -0.712013
     12          7           0       -2.323152    1.996466   -0.401691
     13          8           0       -2.836524    2.204404   -1.498891
     14          8           0       -1.767565    2.845361    0.292093
     15          6           0        2.516198   -1.003844   -0.088944
     16          6           0        1.764302   -1.553680   -1.301509
     17          6           0        0.687774   -2.569717   -0.918691
     18          1           0        2.975522   -1.838030    0.458871
     19          1           0        1.797493   -0.536534    0.598427
     20          1           0        2.484380   -2.018592   -1.987045
     21          1           0        1.306874   -0.718070   -1.846608
     22          1           0       -0.052571   -2.114235   -0.253088
     23          1           0        1.131625   -3.422147   -0.394324
     24          1           0        0.162749   -2.949850   -1.800568
     25          6           0        3.595653    0.013086   -0.455495
     26          6           0        4.347550    0.562922    0.757072
     27          6           0        5.424078    1.578960    0.374253
     28          1           0        4.314359   -0.454224   -1.142865
     29          1           0        3.136329    0.847272   -1.003308
     30          1           0        4.804977   -0.272687    1.302170
     31          1           0        3.627471    1.027835    1.442608
     32          1           0        4.980227    2.431389   -0.150114
     33          1           0        6.164422    1.123478   -0.291349
     34          1           0        5.949102    1.959093    1.256131
 ---------------------------------------------------------------------

 SCF Done:  E(RHF) =  -669.534770176     A.U. after   15 cycles
 E2 =    -0.2093448103D+01 EUMP2 =    -0.67162821827889D+03

 The electronic state is 1-A.
 Alpha  occ. eigenvalues --  -20.60868 -20.60862 -15.85923 -11.31322 -11.27902
 Alpha  occ. eigenvalues --  -11.27872 -11.27578 -11.26889 -11.26858 -11.21630
 Alpha  occ. eigenvalues --  -11.21576 -11.21449 -11.21323 -11.21077 -11.20977
 Alpha  occ. eigenvalues --   -1.59943  -1.39496  -1.19499  -1.08885  -1.08432
 Alpha  occ. eigenvalues --   -1.04890  -1.03528  -0.95991  -0.95702  -0.87009
 Alpha  occ. eigenvalues --   -0.86280  -0.82531  -0.79606  -0.78256  -0.77578
 Alpha  occ. eigenvalues --   -0.72137  -0.71268  -0.70578  -0.65134  -0.65069
 Alpha  occ. eigenvalues --   -0.64876  -0.62228  -0.60956  -0.59360  -0.57619
 Alpha  occ. eigenvalues --   -0.55425  -0.55371  -0.53337  -0.52968  -0.52671
 Alpha  occ. eigenvalues --   -0.52284  -0.49849  -0.48899  -0.48892  -0.47901
 Alpha  occ. eigenvalues --   -0.46604  -0.45789  -0.45708  -0.44895  -0.43796
 Alpha  occ. eigenvalues --   -0.37373  -0.36493
 Alpha virt. eigenvalues --    0.04928   0.11137   0.16389   0.21259   0.22855
 Alpha virt. eigenvalues --    0.24318   0.26455   0.27089   0.27672   0.27908
 Alpha virt. eigenvalues --    0.28462   0.30836   0.31461   0.31827   0.32005

 Mulliken charges:
               1
     1  C   -0.174426
     2  C   -0.218198
     3  C   -0.171615
     4  C    0.159032
     5  C   -0.170862
     6  C   -0.214073
     7  H    0.227209
     8  H    0.224866
     9  H    0.276140
    10  H    0.276201
    11  H    0.224529
    12  N    0.488006
    13  O   -0.459905
    14  O   -0.460316
    15  C   -0.298110
    16  C   -0.298483
    17  C   -0.485116
    18  H    0.147106
    19  H    0.146627
    20  H    0.151414
    21  H    0.154358
    22  H    0.167230
    23  H    0.149710
    24  H    0.155710
    25  C   -0.299008
    26  C   -0.299386
    27  C   -0.476042
    28  H    0.149399
    29  H    0.153870
    30  H    0.149987
    31  H    0.151393
    32  H    0.158108
    33  H    0.154782
    34  H    0.159863
 Sum of Mulliken charges =  -0.00000

 Dipole moment (field-independent basis, Debye):
    X=             -0.3247    Y=             -4.7902    Z=              1.8722  Tot=              5.1534
 Quadrupole moment (field-independent basis, Debye-Ang):
   XX=            -93.3239   YY=           -101.1623   ZZ=            -91.1705
   XY=             11.7276   XZ=             -2.2142   YZ=              1.8499

 Normal termination of Gaussian 16 at Thu May  6 07:43:07 2021.
