 Gaussian 16, Revision A.03,
 Gaussian 16:  EM64L-G16RevA.03 25-Dec-2016

 -------------
 #p 6-31g* mp2
 -------------

 ------------------------------------------------------
 Input file generated by CHIRIPA (05-May-2021 14:55:22)
 ------------------------------------------------------
 Symbolic Z-matrix:
 Charge =  0 Multiplicity = 1

                         Standard orientation:
 ---------------------------------------------------------------------
 Center     Atomic      Atomic             Coordinates (Angstroms)
 Number     Number       Type             X           Y           Z
 ---------------------------------------------------------------------
      1          6           0       -5.075821   -0.176595   -1.408172
      2          6           0       -5.200386   -0.649125   -0.097555
      3          6           0       -4.093563   -0.674744    0.756163
      4          6           0       -2.871756   -0.218238    0.264147
      5          6           0       -2.715738    0.258404   -1.036530
      6          6           0       -3.836080    0.274866   -1.872658
      7          1           0       -5.940879   -0.160250   -2.064529
      8          1           0       -6.161947   -1.000356    0.265876
      9          1           0       -4.161840   -1.035401    1.775321
     10          1           0       -1.744169    0.601995   -1.370321
     11          1           0       -3.736390    0.642381   -2.890028
     12          7           0       -1.692855   -0.240513    1.158629
     13          8           0       -0.627449    0.167185    0.701105
     14          8           0       -1.856563   -0.665247    2.300311
     15          6           0        4.200118   -0.384790    0.120103
     16          6           0        4.972843   -1.191079   -0.924300
     17          6           0        5.517920   -2.507697   -0.370041
     18          1           0        4.857768   -0.179720    0.975900
     19          1           0        3.369823   -0.994246    0.502945
     20          1           0        5.800603   -0.579779   -1.306061
     21          1           0        4.313335   -1.394089   -1.777793
     22          1           0        4.701482   -3.139990   -0.006396
     23          1           0        6.197200   -2.321052    0.468017
     24          1           0        6.066808   -3.068009   -1.133345
     25          6           0        3.648976    0.934082   -0.418920
     26          6           0        2.876251    1.740371    0.625484
     27          6           0        2.331175    3.056990    0.071224
     28          1           0        4.479272    1.543538   -0.801761
     29          1           0        2.991326    0.729012   -1.274717
     30          1           0        3.535760    1.943381    1.478977
     31          1           0        2.048491    1.129071    1.007244
     32          1           0        1.651894    2.870344   -0.766833
     33          1           0        3.147613    3.689281   -0.292421
     34          1           0        1.782287    3.617301    0.834529
 ---------------------------------------------------------------------

 SCF Done:  E(RHF) =  -669.536283711     A.U. after   15 cycles
 E2 =    -0.2090990925D+01 EUMP2 =    -0.67162727463623D+03

 The electronic state is 1-A.
 Alpha  occ. eigenvalues --  -20.61002 -20.60995 -15.86037 -11.31332 -11.27892
 Alpha  occ. eigenvalues --  -11.27888 -11.27624 -11.26893 -11.26884 -11.20880
 Alpha  occ. eigenvalues --  -11.20447 -11.20422 -11.20344 -11.20169 -11.20045
 Alpha  occ. eigenvalues --   -1.60062  -1.39619  -1.19497  -1.08906  -1.07432
 Alpha  occ. eigenvalues --   -1.04890  -1.02559  -0.95753  -0.95061  -0.86291
 Alpha  occ. eigenvalues --   -0.86086  -0.82589  -0.78637  -0.77645  -0.77213
 Alpha  occ. eigenvalues --   -0.72266  -0.71374  -0.70606  -0.65157  -0.64893
 Alpha  occ. eigenvalues --   -0.64046  -0.62238  -0.59937  -0.58439  -0.56656
 Alpha  occ. eigenvalues --   -0.55395  -0.54357  -0.53223  -0.52982  -0.51780
 Alpha  occ. eigenvalues --   -0.51489  -0.49122  -0.49008  -0.48936  -0.46956
 Alpha  occ. eigenvalues --   -0.45633  -0.45037  -0.44797  -0.44584  -0.42821
 Alpha  occ. eigenvalues --   -0.37475  -0.36490
 Alpha virt. eigenvalues --    0.04888   0.11166   0.16391   0.21228   0.23769
 Alpha virt. eigenvalues --    0.25070   0.27111   0.27495   0.28322   0.28575
 Alpha virt. eigenvalues --    0.28901   0.30807   0.31879   0.32619   0.32744

 Mulliken charges:
               1
     1  C   -0.170512
     2  C   -0.218607
     3  C   -0.170390
     4  C    0.157554
     5  C   -0.170668
     6  C   -0.218516
     7  H    0.226161
     8  H    0.223946
     9  H    0.275942
    10  H    0.275499
    11  H    0.224031
    12  N    0.493296
    13  O   -0.465375
    14  O   -0.458700
    15  C   -0.299511
    16  C   -0.298640
    17  C   -0.475244
    18  H    0.147740
    19  H    0.157203
    20  H    0.149274
    21  H    0.149486
    22  H    0.155914
    23  H    0.154514
    24  H    0.157014
    25  C   -0.295749
    26  C   -0.311476
    27  C   -0.472015
    28  H    0.143615
    29  H    0.146253
    30  H    0.146255
    31  H    0.183847
    32  H    0.150084
    33  H    0.148522
    34  H    0.159253
 Sum of Mulliken charges =  -0.00000

 Dipole moment (field-independent basis, Debye):
    X=             -4.4947    Y=             -0.0258    Z=             -3.0227  Tot=              5.4167
 Quadrupole moment (field-independent basis, Debye-Ang):
   XX=            -70.2616   YY=            -96.2493   ZZ=            -94.0533
   XY=              2.5651   XZ=              6.2989   YZ=             -0.5409

 Normal termination of Gaussian 16 at Wed May  5 20:39:30 2021.
