 Gaussian 16, Revision A.03,
 Gaussian 16:  EM64L-G16RevA.03 25-Dec-2016

 -------------
 #p 6-31g* mp2
 -------------

 ------------------------------------------------------
 Input file generated by CHIRIPA (05-May-2021 14:51:09)
 ------------------------------------------------------
 Symbolic Z-matrix:
 Charge =  0 Multiplicity = 1

                         Standard orientation:
 ---------------------------------------------------------------------
 Center     Atomic      Atomic             Coordinates (Angstroms)
 Number     Number       Type             X           Y           Z
 ---------------------------------------------------------------------
      1          6           0        3.458268   -0.169142    0.317607
      2          6           0        3.838772    1.034636   -0.545017
      3          6           0        4.965618    1.867641    0.066633
      4          1           0        3.157078    0.182342    1.313945
      5          1           0        4.344947   -0.801402    0.464040
      6          1           0        2.951312    1.663716   -0.690930
      7          1           0        4.138908    0.680260   -1.539477
      8          1           0        5.866925    1.259935    0.196785
      9          1           0        4.672582    2.248979    1.050154
     10          1           0        5.221647    2.722986   -0.566372
     11          6           0        2.333113   -1.011685   -0.280620
     12          6           0        1.952609   -2.215463    0.582004
     13          6           0        0.825763   -3.048468   -0.029646
     14          1           0        1.446435   -0.379425   -0.427053
     15          1           0        2.634303   -1.363169   -1.276958
     16          1           0        1.652474   -1.861087    1.576464
     17          1           0        2.840069   -2.844542    0.727917
     18          1           0        1.118799   -3.429805   -1.013167
     19          1           0       -0.075544   -2.440762   -0.159798
     20          1           0        0.569735   -3.903813    0.603359
     21          6           0       -2.722758   -0.115372   -0.253852
     22          6           0       -3.731200   -1.170602    0.201689
     23          6           0       -3.371582   -2.577499   -0.276963
     24          1           0       -2.660404   -0.126318   -1.350637
     25          1           0       -1.725231   -0.386615    0.118655
     26          1           0       -4.726767   -0.896717   -0.170400
     27          1           0       -3.791302   -1.157011    1.297508
     28          1           0       -2.390132   -2.875530    0.105835
     29          1           0       -3.330911   -2.613758   -1.370413
     30          1           0       -4.105689   -3.316057    0.059903
     31          6           0       -3.068623    1.296198    0.216865
     32          6           0       -2.060181    2.351429   -0.238676
     33          6           0       -2.419800    3.758325    0.239976
     34          1           0       -4.066150    1.567442   -0.155642
     35          1           0       -3.130977    1.307145    1.313650
     36          1           0       -2.000079    2.337838   -1.334496
     37          1           0       -1.064614    2.077543    0.133413
     38          1           0       -2.460470    3.794584    1.333426
     39          1           0       -3.401249    4.056357   -0.142822
     40          1           0       -1.685693    4.496884   -0.096890
 ---------------------------------------------------------------------

 SCF Done:  E(RHF) =  -470.733045240     A.U. after   11 cycles
 E2 =    -0.1583391813D+01 EUMP2 =    -0.47231643705344D+03

 The electronic state is 1-A.
 Alpha  occ. eigenvalues --  -11.21659 -11.21615 -11.21608 -11.21604 -11.21456
 Alpha  occ. eigenvalues --  -11.21414 -11.21397 -11.21355 -11.21113 -11.21074
 Alpha  occ. eigenvalues --  -11.21047 -11.20999  -1.08476  -1.08434  -1.03572
 Alpha  occ. eigenvalues --   -1.03519  -0.96024  -0.95963  -0.87055  -0.86968
 Alpha  occ. eigenvalues --   -0.79682  -0.79541  -0.78332  -0.78206  -0.65191
 Alpha  occ. eigenvalues --   -0.64993  -0.61090  -0.60818  -0.59383  -0.59346
 Alpha  occ. eigenvalues --   -0.57655  -0.57558  -0.55409  -0.55170  -0.52713
 Alpha  occ. eigenvalues --   -0.52686  -0.52482  -0.52328  -0.50084  -0.49816
 Alpha  occ. eigenvalues --   -0.48067  -0.47797  -0.46815  -0.46505  -0.46010
 Alpha  occ. eigenvalues --   -0.45785  -0.45763  -0.45363  -0.43811  -0.43790
 Alpha virt. eigenvalues --    0.20321   0.22999   0.23494   0.24525   0.25460
 Alpha virt. eigenvalues --    0.26751   0.27065   0.27158   0.28582   0.29696
 Alpha virt. eigenvalues --    0.30673   0.31148   0.31713   0.31809   0.31958

 Mulliken charges:
               1
     1  C   -0.298223
     2  C   -0.299739
     3  C   -0.475703
     4  H    0.149331
     5  H    0.149647
     6  H    0.152120
     7  H    0.152039
     8  H    0.155185
     9  H    0.155109
    10  H    0.160311
    11  C   -0.300317
    12  C   -0.299163
    13  C   -0.484574
    14  H    0.150933
    15  H    0.149982
    16  H    0.151143
    17  H    0.152090
    18  H    0.155812
    19  H    0.163968
    20  H    0.159958
    21  C   -0.303042
    22  C   -0.299647
    23  C   -0.481609
    24  H    0.150131
    25  H    0.152540
    26  H    0.152017
    27  H    0.151664
    28  H    0.162471
    29  H    0.154975
    30  H    0.160065
    31  C   -0.298133
    32  C   -0.299981
    33  C   -0.475742
    34  H    0.150074
    35  H    0.149702
    36  H    0.152347
    37  H    0.151160
    38  H    0.155239
    39  H    0.155476
    40  H    0.160384
 Sum of Mulliken charges =  -0.00000

 Dipole moment (field-independent basis, Debye):
    X=             -0.0094    Y=             -0.0014    Z=             -0.0164  Tot=              0.0189
 Quadrupole moment (field-independent basis, Debye-Ang):
   XX=            -84.6846   YY=            -86.0511   ZZ=            -83.9692
   XY=             -0.9421   XZ=             -0.1202   YZ=             -0.3363

 Normal termination of Gaussian 16 at Thu May  6 06:56:45 2021.
