 Gaussian 16, Revision A.03,
 Gaussian 16:  EM64L-G16RevA.03 25-Dec-2016

 -------------
 #p 6-31g* mp2
 -------------

 ------------------------------------------------------
 Input file generated by CHIRIPA (05-May-2021 14:57:25)
 ------------------------------------------------------
 Symbolic Z-matrix:
 Charge =  0 Multiplicity = 1

                         Standard orientation:
 ---------------------------------------------------------------------
 Center     Atomic      Atomic             Coordinates (Angstroms)
 Number     Number       Type             X           Y           Z
 ---------------------------------------------------------------------
      1          6           0        2.920996    2.063795   -0.395365
      2          6           0        4.317641    2.126550   -0.351045
      3          6           0        5.073641    0.971347   -0.130780
      4          6           0        4.397246   -0.235286    0.041895
      5          6           0        3.007001   -0.330184    0.003130
      6          6           0        2.271279    0.837790   -0.218448
      7          1           0        2.341593    2.966145   -0.566983
      8          1           0        4.824908    3.077307   -0.488108
      9          1           0        6.155996    0.991364   -0.091710
     10          1           0        2.529659   -1.292434    0.143263
     11          1           0        1.186743    0.786059   -0.252370
     12          7           0        5.186856   -1.465008    0.275775
     13          8           0        4.567036   -2.515821    0.424947
     14          8           0        6.410621   -1.354767    0.305490
     15          6           0       -2.478749    1.807960    0.122504
     16          6           0       -3.726127    2.027579    0.716084
     17          6           0       -4.724474    1.050944    0.652578
     18          6           0       -4.440001   -0.139020   -0.015516
     19          6           0       -3.207152   -0.387511   -0.616870
     20          6           0       -2.223692    0.603239   -0.540908
     21          1           0       -1.708991    2.572116    0.176675
     22          1           0       -3.927015    2.962226    1.231957
     23          1           0       -5.698927    1.194780    1.103322
     24          1           0       -3.036479   -1.329278   -1.124179
     25          1           0       -1.255882    0.429935   -1.002810
     26          7           0       -5.489026   -1.180412   -0.089340
     27          8           0       -5.213429   -2.220275   -0.683790
     28          8           0       -6.566985   -0.937074    0.448645
 ---------------------------------------------------------------------

 SCF Done:  E(RHF) =  -868.336256602     A.U. after   16 cycles
 E2 =    -0.2599682765D+01 EUMP2 =    -0.87093593936704D+03

 The electronic state is 1-A.
 Alpha  occ. eigenvalues --  -20.61244 -20.61239 -20.61227 -20.61222 -15.86306
 Alpha  occ. eigenvalues --  -15.86288 -11.31823 -11.31819 -11.28459 -11.28449
 Alpha  occ. eigenvalues --  -11.28396 -11.28396 -11.28293 -11.28265 -11.27602
 Alpha  occ. eigenvalues --  -11.27599 -11.27450 -11.27440  -1.60317  -1.60299
 Alpha  occ. eigenvalues --   -1.39866  -1.39848  -1.20035  -1.20029  -1.09420
 Alpha  occ. eigenvalues --   -1.09404  -1.05480  -1.05452  -0.96214  -0.96207
 Alpha  occ. eigenvalues --   -0.86922  -0.86824  -0.83059  -0.83026  -0.78093
 Alpha  occ. eigenvalues --   -0.78008  -0.72521  -0.72504  -0.71643  -0.71624
 Alpha  occ. eigenvalues --   -0.71185  -0.71152  -0.65762  -0.65694  -0.65676
 Alpha  occ. eigenvalues --   -0.65305  -0.62933  -0.62682  -0.56042  -0.55978
 Alpha  occ. eigenvalues --   -0.53797  -0.53778  -0.53715  -0.53414  -0.49301
 Alpha  occ. eigenvalues --   -0.49270  -0.49264  -0.49246  -0.45237  -0.45216
 Alpha  occ. eigenvalues --   -0.38048  -0.38029  -0.37068  -0.37054
 Alpha virt. eigenvalues --    0.04500   0.04509   0.10497   0.10573   0.15924
 Alpha virt. eigenvalues --    0.15944   0.17684   0.22029   0.24529   0.26575
 Alpha virt. eigenvalues --    0.27826   0.28931   0.29492   0.31203   0.31730

 Mulliken charges:
               1
     1  C   -0.171196
     2  C   -0.218115
     3  C   -0.169649
     4  C    0.159239
     5  C   -0.170898
     6  C   -0.221938
     7  H    0.222519
     8  H    0.225394
     9  H    0.277990
    10  H    0.277402
    11  H    0.217553
    12  N    0.488002
    13  O   -0.458633
    14  O   -0.458569
    15  C   -0.170236
    16  C   -0.218002
    17  C   -0.169512
    18  C    0.159372
    19  C   -0.169306
    20  C   -0.223151
    21  H    0.219726
    22  H    0.225308
    23  H    0.278147
    24  H    0.278419
    25  H    0.219048
    26  N    0.487898
    27  O   -0.458321
    28  O   -0.458492
 Sum of Mulliken charges =  -0.00000

 Dipole moment (field-independent basis, Debye):
    X=              0.8875    Y=              7.9217    Z=             -0.5087  Tot=              7.9874
 Quadrupole moment (field-independent basis, Debye-Ang):
   XX=           -154.8516   YY=           -105.4797   ZZ=           -105.0661
   XY=              3.4613   XZ=             -7.1938   YZ=              1.9818

 Normal termination of Gaussian 16 at Fri May  7 01:57:56 2021.
