 Gaussian 16, Revision A.03,
 Gaussian 16:  EM64L-G16RevA.03 25-Dec-2016

 -------------
 #p 6-31g* mp2
 -------------

 ------------------------------------------------------
 Input file generated by CHIRIPA (05-May-2021 14:51:14)
 ------------------------------------------------------
 Symbolic Z-matrix:
 Charge =  0 Multiplicity = 1

                         Standard orientation:
 ---------------------------------------------------------------------
 Center     Atomic      Atomic             Coordinates (Angstroms)
 Number     Number       Type             X           Y           Z
 ---------------------------------------------------------------------
      1          6           0        3.189914   -0.169337    0.571594
      2          6           0        2.503311   -1.461455    0.127755
      3          6           0        1.251417   -1.777129    0.946842
      4          1           0        3.455974   -0.249416    1.634488
      5          1           0        2.477401    0.663127    0.489594
      6          1           0        3.217328   -2.291005    0.209254
      7          1           0        2.239027   -1.378365   -0.934255
      8          1           0        0.518286   -0.969028    0.856881
      9          1           0        1.502146   -1.886853    2.006888
     10          1           0        0.776449   -2.704848    0.612773
     11          6           0        4.443016    0.159728   -0.237839
     12          6           0        5.129618    1.451846    0.206000
     13          6           0        6.381513    1.767520   -0.613087
     14          1           0        5.155529   -0.672736   -0.155839
     15          1           0        4.176955    0.239807   -1.300733
     16          1           0        5.393903    1.368756    1.268010
     17          1           0        4.415601    2.281396    0.124501
     18          1           0        6.130783    1.877244   -1.673133
     19          1           0        7.114643    0.959419   -0.523126
     20          1           0        6.856481    2.695239   -0.279018
     21          6           0       -3.950454    0.750514   -0.263810
     22          6           0       -5.264295    1.217139    0.363938
     23          6           0       -5.518292    2.711244    0.161628
     24          1           0       -3.120411    1.326698    0.167450
     25          1           0       -3.964237    0.978816   -1.338558
     26          1           0       -5.248606    0.986773    1.436925
     27          1           0       -6.091288    0.639644   -0.068727
     28          1           0       -5.560603    2.953837   -0.905124
     29          1           0       -4.713132    3.302938    0.609083
     30          1           0       -6.462720    3.023357    0.618247
     31          6           0       -3.682475   -0.740905   -0.069944
     32          6           0       -2.368635   -1.207530   -0.697693
     33          6           0       -2.114638   -2.701635   -0.495383
     34          1           0       -3.668694   -0.969207    1.004804
     35          1           0       -4.512519   -1.317090   -0.501204
     36          1           0       -1.541642   -0.630035   -0.265028
     37          1           0       -2.384324   -0.977164   -1.770681
     38          1           0       -2.919797   -3.293330   -0.942838
     39          1           0       -2.072328   -2.944228    0.571369
     40          1           0       -1.170209   -3.013749   -0.952002
 ---------------------------------------------------------------------

 SCF Done:  E(RHF) =  -470.732378741     A.U. after   11 cycles
 E2 =    -0.1583278338D+01 EUMP2 =    -0.47231565707932D+03

 The electronic state is 1-A.
 Alpha  occ. eigenvalues --  -11.21600 -11.21597 -11.21586 -11.21554 -11.21401
 Alpha  occ. eigenvalues --  -11.21393 -11.21341 -11.21331 -11.21070 -11.21070
 Alpha  occ. eigenvalues --  -11.21009 -11.20985  -1.08437  -1.08402  -1.03573
 Alpha  occ. eigenvalues --   -1.03458  -0.96056  -0.95874  -0.87059  -0.86907
 Alpha  occ. eigenvalues --   -0.79593  -0.79574  -0.78254  -0.78215  -0.65134
 Alpha  occ. eigenvalues --   -0.64985  -0.61137  -0.60741  -0.59553  -0.59145
 Alpha  occ. eigenvalues --   -0.57668  -0.57489  -0.55412  -0.55084  -0.52885
 Alpha  occ. eigenvalues --   -0.52481  -0.52443  -0.52250  -0.49951  -0.49858
 Alpha  occ. eigenvalues --   -0.48027  -0.47782  -0.46764  -0.46458  -0.45833
 Alpha  occ. eigenvalues --   -0.45746  -0.45729  -0.45563  -0.43872  -0.43638
 Alpha virt. eigenvalues --    0.21401   0.23084   0.23525   0.25204   0.25868
 Alpha virt. eigenvalues --    0.26790   0.26965   0.27372   0.27800   0.29284
 Alpha virt. eigenvalues --    0.29918   0.31175   0.31410   0.32095   0.32578

 Mulliken charges:
               1
     1  C   -0.298288
     2  C   -0.300150
     3  C   -0.482029
     4  H    0.149630
     5  H    0.149182
     6  H    0.151836
     7  H    0.151804
     8  H    0.158264
     9  H    0.154257
    10  H    0.165472
    11  C   -0.298273
    12  C   -0.299644
    13  C   -0.475701
    14  H    0.149527
    15  H    0.149677
    16  H    0.151897
    17  H    0.151887
    18  H    0.155195
    19  H    0.155180
    20  H    0.160234
    21  C   -0.298226
    22  C   -0.299637
    23  C   -0.475705
    24  H    0.149145
    25  H    0.149430
    26  H    0.152017
    27  H    0.151988
    28  H    0.155123
    29  H    0.155107
    30  H    0.160271
    31  C   -0.298141
    32  C   -0.304237
    33  C   -0.475683
    34  H    0.149735
    35  H    0.149610
    36  H    0.156218
    37  H    0.151412
    38  H    0.154366
    39  H    0.156078
    40  H    0.161170
 Sum of Mulliken charges =  -0.00000

 Dipole moment (field-independent basis, Debye):
    X=             -0.0034    Y=             -0.0186    Z=              0.0047  Tot=              0.0195
 Quadrupole moment (field-independent basis, Debye-Ang):
   XX=            -85.3050   YY=            -85.7107   ZZ=            -83.8544
   XY=             -0.1997   XZ=              1.2162   YZ=              0.0525

 Normal termination of Gaussian 16 at Wed May  5 18:24:56 2021.
