 Gaussian 16, Revision A.03,
 Gaussian 16:  EM64L-G16RevA.03 25-Dec-2016

 -------------
 #p 6-31g* mp2
 -------------

 ------------------------------------------------------
 Input file generated by CHIRIPA (05-May-2021 14:55:23)
 ------------------------------------------------------
 Symbolic Z-matrix:
 Charge =  0 Multiplicity = 1

                         Standard orientation:
 ---------------------------------------------------------------------
 Center     Atomic      Atomic             Coordinates (Angstroms)
 Number     Number       Type             X           Y           Z
 ---------------------------------------------------------------------
      1          6           0        2.850299    2.502867    0.181721
      2          6           0        2.533319    1.788904   -0.978582
      3          6           0        2.663562    0.397379   -1.013848
      4          6           0        3.115617   -0.250978    0.134441
      5          6           0        3.439375    0.432303    1.305594
      6          6           0        3.301519    1.823485    1.318102
      7          1           0        2.746166    3.583703    0.200277
      8          1           0        2.182665    2.313882   -1.862598
      9          1           0        2.425177   -0.180104   -1.898780
     10          1           0        3.786496   -0.118822    2.171149
     11          1           0        3.548424    2.375363    2.220606
     12          7           0        3.257529   -1.723942    0.109153
     13          8           0        3.657840   -2.271673    1.134032
     14          8           0        2.965762   -2.302828   -0.935069
     15          6           0       -4.617184   -0.372276   -0.127953
     16          6           0       -5.643768    0.303050    0.782016
     17          6           0       -6.957184   -0.474671    0.870793
     18          1           0       -5.046191   -0.486140   -1.132906
     19          1           0       -4.419092   -1.387013    0.244154
     20          1           0       -5.838830    1.316708    0.409103
     21          1           0       -5.212196    0.415493    1.784871
     22          1           0       -6.782930   -1.481418    1.264109
     23          1           0       -7.413125   -0.575083   -0.119477
     24          1           0       -7.676610    0.025855    1.526353
     25          6           0       -3.298920    0.393309   -0.226887
     26          6           0       -2.272336   -0.282018   -1.136856
     27          6           0       -0.958920    0.495704   -1.225633
     28          1           0       -3.497012    1.408046   -0.598994
     29          1           0       -2.869913    0.507173    0.778066
     30          1           0       -2.703908   -0.394461   -2.139712
     31          1           0       -2.077274   -1.295676   -0.763942
     32          1           0       -0.502979    0.596115   -0.235363
     33          1           0       -1.133173    1.502451   -1.618949
     34          1           0       -0.239494   -0.004823   -1.881193
 ---------------------------------------------------------------------

 SCF Done:  E(RHF) =  -669.534885213     A.U. after   15 cycles
 E2 =    -0.2092098449D+01 EUMP2 =    -0.67162698366178D+03

 The electronic state is 1-A.
 Alpha  occ. eigenvalues --  -20.60753 -20.60748 -15.85807 -11.31147 -11.27730
 Alpha  occ. eigenvalues --  -11.27719 -11.27467 -11.26737 -11.26710 -11.21670
 Alpha  occ. eigenvalues --  -11.21660 -11.21493 -11.21409 -11.21310 -11.21100
 Alpha  occ. eigenvalues --   -1.59829  -1.39384  -1.19334  -1.08728  -1.08510
 Alpha  occ. eigenvalues --   -1.04739  -1.03623  -0.96099  -0.95564  -0.87123
 Alpha  occ. eigenvalues --   -0.86131  -0.82398  -0.79695  -0.78318  -0.77445
 Alpha  occ. eigenvalues --   -0.72026  -0.71153  -0.70450  -0.65138  -0.64984
 Alpha  occ. eigenvalues --   -0.64738  -0.62105  -0.61022  -0.59464  -0.57696
 Alpha  occ. eigenvalues --   -0.55404  -0.55238  -0.53315  -0.52879  -0.52583
 Alpha  occ. eigenvalues --   -0.52431  -0.50015  -0.48782  -0.48782  -0.48004
 Alpha  occ. eigenvalues --   -0.46706  -0.45863  -0.45779  -0.44794  -0.43896
 Alpha  occ. eigenvalues --   -0.37315  -0.36251
 Alpha virt. eigenvalues --    0.05080   0.11291   0.16537   0.21010   0.22818
 Alpha virt. eigenvalues --    0.24105   0.26332   0.26589   0.27286   0.27977
 Alpha virt. eigenvalues --    0.28540   0.30162   0.31373   0.31522   0.31975

 Mulliken charges:
               1
     1  C   -0.171617
     2  C   -0.215022
     3  C   -0.166713
     4  C    0.157151
     5  C   -0.171726
     6  C   -0.219001
     7  H    0.225501
     8  H    0.223891
     9  H    0.274905
    10  H    0.275345
    11  H    0.223160
    12  N    0.488196
    13  O   -0.460689
    14  O   -0.460841
    15  C   -0.298567
    16  C   -0.299603
    17  C   -0.475804
    18  H    0.149835
    19  H    0.151607
    20  H    0.150878
    21  H    0.151800
    22  H    0.156211
    23  H    0.155283
    24  H    0.160041
    25  C   -0.298509
    26  C   -0.300743
    27  C   -0.475601
    28  H    0.147361
    29  H    0.149530
    30  H    0.151758
    31  H    0.157268
    32  H    0.159405
    33  H    0.148669
    34  H    0.156641
 Sum of Mulliken charges =  -0.00000

 Dipole moment (field-independent basis, Debye):
    X=             -0.5156    Y=              5.1628    Z=              0.1056  Tot=              5.1895
 Quadrupole moment (field-independent basis, Debye-Ang):
   XX=            -99.1015   YY=            -97.9739   ZZ=            -89.8033
   XY=             16.0670   XZ=              2.3325   YZ=              0.4401

 Normal termination of Gaussian 16 at Thu May  6 15:55:56 2021.
