 Gaussian 16, Revision A.03,
 Gaussian 16:  EM64L-G16RevA.03 25-Dec-2016

 -------------
 #p 6-31g* mp2
 -------------

 ------------------------------------------------------
 Input file generated by CHIRIPA (05-May-2021 14:51:11)
 ------------------------------------------------------
 Symbolic Z-matrix:
 Charge =  0 Multiplicity = 1

                         Standard orientation:
 ---------------------------------------------------------------------
 Center     Atomic      Atomic             Coordinates (Angstroms)
 Number     Number       Type             X           Y           Z
 ---------------------------------------------------------------------
      1          6           0       -2.656683   -0.709870    0.487048
      2          6           0       -1.825273   -1.961241    0.202772
      3          6           0       -0.553170   -2.030443    1.048206
      4          1           0       -2.041846    0.181277    0.300559
      5          1           0       -2.922212   -0.688918    1.553092
      6          1           0       -1.562561   -1.980540   -0.862698
      7          1           0       -2.442220   -2.849510    0.389776
      8          1           0       -0.799402   -2.036120    2.114948
      9          1           0        0.085255   -1.162212    0.855358
     10          1           0        0.026019   -2.932834    0.828909
     11          6           0       -3.931577   -0.626411   -0.350453
     12          6           0       -4.762986    0.624961   -0.066177
     13          6           0       -6.035089    0.694162   -0.911611
     14          1           0       -3.666048   -0.647363   -1.416498
     15          1           0       -4.546413   -1.517557   -0.163964
     16          1           0       -4.146039    1.513230   -0.253181
     17          1           0       -5.025698    0.644259    0.999293
     18          1           0       -6.673515   -0.174068   -0.718763
     19          1           0       -5.788857    0.699840   -1.978353
     20          1           0       -6.614278    1.596553   -0.692315
     21          6           0        3.821692    0.356014   -0.524025
     22          6           0        4.440757   -0.919022    0.049583
     23          6           0        5.494384   -1.531700   -0.873612
     24          1           0        3.369655    0.129832   -1.499448
     25          1           0        4.617893    1.089810   -0.711116
     26          1           0        3.643463   -1.649690    0.236831
     27          1           0        4.891206   -0.689820    1.023841
     28          1           0        6.309705   -0.823017   -1.051441
     29          1           0        5.054872   -1.788342   -1.842924
     30          1           0        5.923880   -2.442154   -0.444115
     31          6           0        2.766567    0.980266    0.387430
     32          6           0        2.147503    2.255302   -0.186177
     33          6           0        1.093875    2.867981    0.737017
     34          1           0        1.970367    0.246470    0.574521
     35          1           0        3.218604    1.206448    1.362852
     36          1           0        1.697054    2.026100   -1.160436
     37          1           0        2.944797    2.985970   -0.373425
     38          1           0        1.533388    3.124622    1.706328
     39          1           0        0.278555    2.159298    0.914846
     40          1           0        0.664380    3.778434    0.307520
 ---------------------------------------------------------------------

 SCF Done:  E(RHF) =  -470.733391631     A.U. after   11 cycles
 E2 =    -0.1583090880D+01 EUMP2 =    -0.47231648251113D+03

 The electronic state is 1-A.
 Alpha  occ. eigenvalues --  -11.21658 -11.21621 -11.21616 -11.21577 -11.21450
 Alpha  occ. eigenvalues --  -11.21398 -11.21386 -11.21338 -11.21128 -11.21098
 Alpha  occ. eigenvalues --  -11.21082 -11.21056  -1.08472  -1.08429  -1.03570
 Alpha  occ. eigenvalues --   -1.03529  -0.96027  -0.95975  -0.87048  -0.86987
 Alpha  occ. eigenvalues --   -0.79648  -0.79577  -0.78308  -0.78217  -0.65179
 Alpha  occ. eigenvalues --   -0.65000  -0.61023  -0.60876  -0.59395  -0.59339
 Alpha  occ. eigenvalues --   -0.57660  -0.57566  -0.55433  -0.55164  -0.52715
 Alpha  occ. eigenvalues --   -0.52673  -0.52507  -0.52347  -0.50082  -0.49819
 Alpha  occ. eigenvalues --   -0.48031  -0.47863  -0.46799  -0.46568  -0.45939
 Alpha  occ. eigenvalues --   -0.45771  -0.45757  -0.45420  -0.43824  -0.43784
 Alpha virt. eigenvalues --    0.20035   0.23109   0.23726   0.24608   0.25598
 Alpha virt. eigenvalues --    0.26246   0.27095   0.27147   0.28490   0.29344
 Alpha virt. eigenvalues --    0.30537   0.31495   0.31713   0.31758   0.31876

 Mulliken charges:
               1
     1  C   -0.300506
     2  C   -0.299152
     3  C   -0.484275
     4  H    0.150948
     5  H    0.150005
     6  H    0.151718
     7  H    0.152393
     8  H    0.156117
     9  H    0.161909
    10  H    0.160363
    11  C   -0.298291
    12  C   -0.299803
    13  C   -0.475742
    14  H    0.149525
    15  H    0.149864
    16  H    0.152289
    17  H    0.152071
    18  H    0.155174
    19  H    0.155175
    20  H    0.160404
    21  C   -0.297499
    22  C   -0.300145
    23  C   -0.475719
    24  H    0.149275
    25  H    0.149512
    26  H    0.152839
    27  H    0.151977
    28  H    0.155084
    29  H    0.155066
    30  H    0.160263
    31  C   -0.308392
    32  C   -0.299071
    33  C   -0.478122
    34  H    0.158775
    35  H    0.150034
    36  H    0.151270
    37  H    0.152209
    38  H    0.155729
    39  H    0.156429
    40  H    0.160299
 Sum of Mulliken charges =  -0.00000

 Dipole moment (field-independent basis, Debye):
    X=             -0.0136    Y=             -0.0084    Z=              0.0154  Tot=              0.0222
 Quadrupole moment (field-independent basis, Debye-Ang):
   XX=            -85.4699   YY=            -84.5677   ZZ=            -84.6299
   XY=              1.3078   XZ=             -0.0963   YZ=             -0.3262

 Normal termination of Gaussian 16 at Wed May  5 19:52:03 2021.
