 Gaussian 16, Revision A.03,
 Gaussian 16:  EM64L-G16RevA.03 25-Dec-2016

 -------------
 #p 6-31g* mp2
 -------------

 ------------------------------------------------------
 Input file generated by CHIRIPA (05-May-2021 14:57:26)
 ------------------------------------------------------
 Symbolic Z-matrix:
 Charge =  0 Multiplicity = 1

                         Standard orientation:
 ---------------------------------------------------------------------
 Center     Atomic      Atomic             Coordinates (Angstroms)
 Number     Number       Type             X           Y           Z
 ---------------------------------------------------------------------
      1          6           0        3.835025    2.221730   -0.165552
      2          6           0        2.450754    2.067954   -0.294661
      3          6           0        1.868872    0.798121   -0.235636
      4          6           0        2.704872   -0.301097   -0.045599
      5          6           0        4.087365   -0.180386    0.086433
      6          6           0        4.647480    1.099048    0.024248
      7          1           0        4.278591    3.211896   -0.212632
      8          1           0        1.817337    2.938055   -0.442148
      9          1           0        0.800136    0.650396   -0.332588
     10          1           0        4.692929   -1.066592    0.232546
     11          1           0        5.722829    1.215466    0.124830
     12          7           0        2.100381   -1.650495    0.018561
     13          8           0        2.858728   -2.602996    0.186751
     14          8           0        0.879680   -1.730100   -0.100556
     15          6           0       -2.530956   -2.423215   -0.121365
     16          6           0       -2.892745   -1.676922   -1.247720
     17          6           0       -3.047145   -0.290132   -1.160998
     18          6           0       -2.830945    0.320576    0.073337
     19          6           0       -2.469683   -0.395494    1.213523
     20          6           0       -2.320949   -1.781250    1.103503
     21          1           0       -2.413215   -3.500105   -0.197782
     22          1           0       -3.056482   -2.172807   -2.200260
     23          1           0       -3.326523    0.311871   -2.017128
     24          1           0       -2.313249    0.126991    2.149449
     25          1           0       -2.039904   -2.358290    1.979907
     26          7           0       -2.991401    1.788162    0.177479
     27          8           0       -2.795197    2.302419    1.276424
     28          8           0       -3.310333    2.396409   -0.841813
 ---------------------------------------------------------------------

 SCF Done:  E(RHF) =  -868.339360367     A.U. after   16 cycles
 E2 =    -0.2600364188D+01 EUMP2 =    -0.87093972455472D+03

 The electronic state is 1-A.
 Alpha  occ. eigenvalues --  -20.61055 -20.61049 -20.60591 -20.60586 -15.86078
 Alpha  occ. eigenvalues --  -15.85632 -11.31232 -11.30609 -11.27790 -11.27730
 Alpha  occ. eigenvalues --  -11.27455 -11.27136 -11.27088 -11.26760 -11.26664
 Alpha  occ. eigenvalues --  -11.26650 -11.26004 -11.25923  -1.60137  -1.59689
 Alpha  occ. eigenvalues --   -1.39693  -1.39247  -1.19379  -1.18698  -1.08817
 Alpha  occ. eigenvalues --   -1.08141  -1.04738  -1.04041  -0.95691  -0.95058
 Alpha  occ. eigenvalues --   -0.86147  -0.85461  -0.82521  -0.81918  -0.77597
 Alpha  occ. eigenvalues --   -0.77039  -0.72333  -0.71849  -0.71450  -0.71031
 Alpha  occ. eigenvalues --   -0.70479  -0.69773  -0.65029  -0.64727  -0.64346
 Alpha  occ. eigenvalues --   -0.64045  -0.62084  -0.61428  -0.55248  -0.54498
 Alpha  occ. eigenvalues --   -0.53092  -0.52829  -0.52322  -0.52145  -0.49085
 Alpha  occ. eigenvalues --   -0.49061  -0.48628  -0.48572  -0.45156  -0.44738
 Alpha  occ. eigenvalues --   -0.37353  -0.36533  -0.36332  -0.35581
 Alpha virt. eigenvalues --    0.04881   0.05487   0.11310   0.12069   0.16433
 Alpha virt. eigenvalues --    0.17145   0.21453   0.22173   0.27256   0.28017
 Alpha virt. eigenvalues --    0.28166   0.29047   0.30962   0.31706   0.32269

 Mulliken charges:
               1
     1  C   -0.170402
     2  C   -0.218970
     3  C   -0.171810
     4  C    0.156369
     5  C   -0.171473
     6  C   -0.218766
     7  H    0.227218
     8  H    0.230872
     9  H    0.275923
    10  H    0.274275
    11  H    0.223335
    12  N    0.490740
    13  O   -0.462451
    14  O   -0.466502
    15  C   -0.154826
    16  C   -0.216725
    17  C   -0.174774
    18  C    0.151960
    19  C   -0.174991
    20  C   -0.203271
    21  H    0.228439
    22  H    0.221533
    23  H    0.271273
    24  H    0.271330
    25  H    0.224188
    26  N    0.485931
    27  O   -0.464313
    28  O   -0.464112
 Sum of Mulliken charges =  -0.00000

 Dipole moment (field-independent basis, Debye):
    X=              2.8131    Y=             -0.6858    Z=             -0.5698  Tot=              2.9510
 Quadrupole moment (field-independent basis, Debye-Ang):
   XX=            -93.5539   YY=           -110.7105   ZZ=           -101.0855
   XY=             26.4443   XZ=              2.2813   YZ=             -1.3182

 Normal termination of Gaussian 16 at Wed May  5 22:49:12 2021.
