 Gaussian 16, Revision A.03,
 Gaussian 16:  EM64L-G16RevA.03 25-Dec-2016

 -------------
 #p 6-31g* mp2
 -------------

 ------------------------------------------------------
 Input file generated by CHIRIPA (05-May-2021 14:55:20)
 ------------------------------------------------------
 Symbolic Z-matrix:
 Charge =  0 Multiplicity = 1

                         Standard orientation:
 ---------------------------------------------------------------------
 Center     Atomic      Atomic             Coordinates (Angstroms)
 Number     Number       Type             X           Y           Z
 ---------------------------------------------------------------------
      1          6           0       -2.728870   -2.453855   -0.551066
      2          6           0       -1.807182   -2.243063    0.479749
      3          6           0       -1.475814   -0.945658    0.881598
      4          6           0       -2.087905    0.122692    0.227945
      5          6           0       -3.009938   -0.054863   -0.802404
      6          6           0       -3.326253   -1.361008   -1.187731
      7          1           0       -2.980437   -3.465105   -0.856815
      8          1           0       -1.341683   -3.089888    0.975979
      9          1           0       -0.765569   -0.753827    1.676689
     10          1           0       -3.457497    0.809253   -1.278233
     11          1           0       -4.042393   -1.521709   -1.988582
     12          7           0       -1.745069    1.500824    0.644619
     13          8           0       -2.298228    2.425191    0.052845
     14          8           0       -0.929685    1.630541    1.555091
     15          6           0        2.385536    0.768076    0.023895
     16          6           0        2.552799    1.940245   -0.943591
     17          6           0        1.828280    3.202199   -0.474192
     18          1           0        1.315306    0.553368    0.148212
     19          1           0        2.762412    1.061767    1.013392
     20          1           0        2.176990    1.643961   -1.931316
     21          1           0        3.622763    2.152063   -1.065769
     22          1           0        2.208797    3.524938    0.500307
     23          1           0        0.754809    3.013949   -0.370159
     24          1           0        1.961082    4.027597   -1.180550
     25          6           0        3.104150   -0.500709   -0.431632
     26          6           0        2.936886   -1.672877    0.535855
     27          6           0        3.661405   -2.934832    0.066456
     28          1           0        2.727274   -0.794400   -1.421129
     29          1           0        4.174379   -0.286000   -0.555948
     30          1           0        1.866923   -1.884696    0.658032
     31          1           0        3.312696   -1.376594    1.523580
     32          1           0        4.734877   -2.746581   -0.037577
     33          1           0        3.280890   -3.257571   -0.908043
     34          1           0        3.528605   -3.760230    0.772814
 ---------------------------------------------------------------------

 SCF Done:  E(RHF) =  -669.535983498     A.U. after   15 cycles
 E2 =    -0.2094244193D+01 EUMP2 =    -0.67163022769102D+03

 The electronic state is 1-A.
 Alpha  occ. eigenvalues --  -20.61053 -20.61037 -15.86032 -11.31360 -11.27920
 Alpha  occ. eigenvalues --  -11.27910 -11.27649 -11.26920 -11.26910 -11.21664
 Alpha  occ. eigenvalues --  -11.21207 -11.21120 -11.20854 -11.20722 -11.19823
 Alpha  occ. eigenvalues --   -1.60094  -1.39647  -1.19529  -1.08931  -1.08041
 Alpha  occ. eigenvalues --   -1.04917  -1.03088  -0.95773  -0.95496  -0.86509
 Alpha  occ. eigenvalues --   -0.86315  -0.82607  -0.79224  -0.77857  -0.77575
 Alpha  occ. eigenvalues --   -0.72256  -0.71428  -0.70626  -0.65180  -0.64920
 Alpha  occ. eigenvalues --   -0.64681  -0.62256  -0.60494  -0.58965  -0.57092
 Alpha  occ. eigenvalues --   -0.55419  -0.54792  -0.53244  -0.53000  -0.52224
 Alpha  occ. eigenvalues --   -0.51905  -0.49535  -0.49040  -0.48928  -0.47478
 Alpha  occ. eigenvalues --   -0.46278  -0.45695  -0.45238  -0.44546  -0.43331
 Alpha  occ. eigenvalues --   -0.37496  -0.36495
 Alpha virt. eigenvalues --    0.04790   0.11041   0.16215   0.20752   0.23176
 Alpha virt. eigenvalues --    0.24696   0.25643   0.27299   0.27727   0.28494
 Alpha virt. eigenvalues --    0.29090   0.30759   0.31912   0.32030   0.32438

 Mulliken charges:
               1
     1  C   -0.170437
     2  C   -0.219579
     3  C   -0.171990
     4  C    0.159021
     5  C   -0.170757
     6  C   -0.218501
     7  H    0.226507
     8  H    0.225067
     9  H    0.278129
    10  H    0.276154
    11  H    0.224211
    12  N    0.486176
    13  O   -0.458780
    14  O   -0.455286
    15  C   -0.299320
    16  C   -0.301452
    17  C   -0.477237
    18  H    0.150730
    19  H    0.152007
    20  H    0.146759
    21  H    0.148130
    22  H    0.156342
    23  H    0.171412
    24  H    0.154560
    25  C   -0.297523
    26  C   -0.299007
    27  C   -0.475291
    28  H    0.147033
    29  H    0.149483
    30  H    0.141887
    31  H    0.153555
    32  H    0.157397
    33  H    0.153844
    34  H    0.156755
 Sum of Mulliken charges =  -0.00000

 Dipole moment (field-independent basis, Debye):
    X=             -1.4444    Y=             -4.7446    Z=             -1.3699  Tot=              5.1453
 Quadrupole moment (field-independent basis, Debye-Ang):
   XX=            -87.8755   YY=            -96.7569   ZZ=            -93.3607
   XY=              9.6434   XZ=              6.1627   YZ=             -2.4565

 Normal termination of Gaussian 16 at Wed May  5 18:53:45 2021.
