 Gaussian 16, Revision A.03,
 Gaussian 16:  EM64L-G16RevA.03 25-Dec-2016

 -------------
 #p 6-31g* mp2
 -------------

 ------------------------------------------------------
 Input file generated by CHIRIPA (05-May-2021 14:57:24)
 ------------------------------------------------------
 Symbolic Z-matrix:
 Charge =  0 Multiplicity = 1

                         Standard orientation:
 ---------------------------------------------------------------------
 Center     Atomic      Atomic             Coordinates (Angstroms)
 Number     Number       Type             X           Y           Z
 ---------------------------------------------------------------------
      1          6           0        2.816148    2.589949   -0.153115
      2          6           0        2.588616    2.123888    1.145937
      3          6           0        2.501700    0.752461    1.403191
      4          6           0        2.647746   -0.128806    0.332990
      5          6           0        2.875224    0.304599   -0.972270
      6          6           0        2.958475    1.680421   -1.206216
      7          1           0        2.882243    3.657014   -0.343903
      8          1           0        2.477691    2.827935    1.965729
      9          1           0        2.326242    0.364348    2.399184
     10          1           0        2.981666   -0.421516   -1.769042
     11          1           0        3.135252    2.039508   -2.216093
     12          7           0        2.557672   -1.583001    0.592996
     13          8           0        2.689829   -2.338894   -0.367106
     14          8           0        2.356620   -1.939371    1.751968
     15          6           0       -0.714130   -1.128501   -1.528618
     16          6           0       -0.943405    0.249706   -1.595712
     17          6           0       -2.019933    0.824422   -0.913559
     18          6           0       -2.850962   -0.012482   -0.170406
     19          6           0       -2.648712   -1.389043   -0.084027
     20          6           0       -1.566013   -1.942043   -0.774320
     21          1           0        0.124540   -1.566520   -2.061694
     22          1           0       -0.283461    0.883950   -2.180736
     23          1           0       -2.220533    1.888364   -0.948264
     24          1           0       -3.323850   -1.995608    0.507315
     25          1           0       -1.390376   -3.012692   -0.720407
     26          7           0       -3.993901    0.584450    0.556067
     27          8           0       -4.711453   -0.174547    1.203895
     28          8           0       -4.150540    1.800018    0.463895
 ---------------------------------------------------------------------

 SCF Done:  E(RHF) =  -868.338965301     A.U. after   16 cycles
 E2 =    -0.2601724081D+01 EUMP2 =    -0.87094068938166D+03

 The electronic state is 1-A.
 Alpha  occ. eigenvalues --  -20.61666 -20.61603 -20.60649 -20.60631 -15.86666
 Alpha  occ. eigenvalues --  -15.85692 -11.31946 -11.30969 -11.28594 -11.28445
 Alpha  occ. eigenvalues --  -11.28217 -11.27569 -11.27560 -11.27461 -11.27432
 Alpha  occ. eigenvalues --  -11.27144 -11.26556 -11.26401  -1.60695  -1.59720
 Alpha  occ. eigenvalues --   -1.40257  -1.39276  -1.20117  -1.19119  -1.09518
 Alpha  occ. eigenvalues --   -1.08520  -1.05519  -1.04502  -0.96372  -0.95372
 Alpha  occ. eigenvalues --   -0.86914  -0.85896  -0.83213  -0.82205  -0.78278
 Alpha  occ. eigenvalues --   -0.77280  -0.72895  -0.72025  -0.71911  -0.71223
 Alpha  occ. eigenvalues --   -0.71043  -0.70162  -0.65774  -0.65509  -0.64761
 Alpha  occ. eigenvalues --   -0.64495  -0.62867  -0.61857  -0.55997  -0.54954
 Alpha  occ. eigenvalues --   -0.53916  -0.53597  -0.52783  -0.52560  -0.49664
 Alpha  occ. eigenvalues --   -0.49634  -0.48673  -0.48658  -0.45677  -0.44702
 Alpha  occ. eigenvalues --   -0.38152  -0.37296  -0.36831  -0.36073
 Alpha virt. eigenvalues --    0.04217   0.05229   0.10443   0.11581   0.15704
 Alpha virt. eigenvalues --    0.16772   0.20278   0.21932   0.26185   0.27061
 Alpha virt. eigenvalues --    0.27680   0.28872   0.30088   0.31168   0.32715

 Mulliken charges:
               1
     1  C   -0.170822
     2  C   -0.217494
     3  C   -0.168278
     4  C    0.163974
     5  C   -0.176849
     6  C   -0.222958
     7  H    0.228720
     8  H    0.228188
     9  H    0.278988
    10  H    0.270979
    11  H    0.223517
    12  N    0.489197
    13  O   -0.468443
    14  O   -0.454492
    15  C   -0.179340
    16  C   -0.215567
    17  C   -0.173222
    18  C    0.157856
    19  C   -0.171146
    20  C   -0.217624
    21  H    0.233563
    22  H    0.217111
    23  H    0.271665
    24  H    0.276177
    25  H    0.231289
    26  N    0.488088
    27  O   -0.459684
    28  O   -0.463393
 Sum of Mulliken charges =  -0.00000

 Dipole moment (field-independent basis, Debye):
    X=              4.4952    Y=              2.9536    Z=             -3.2188  Tot=              6.2683
 Quadrupole moment (field-independent basis, Debye-Ang):
   XX=           -127.3921   YY=           -102.0379   ZZ=            -99.9085
   XY=             21.4551   XZ=              3.3815   YZ=              1.6557

 Normal termination of Gaussian 16 at Wed May  5 22:43:39 2021.
