 Gaussian 16, Revision A.03,
 Gaussian 16:  EM64L-G16RevA.03 25-Dec-2016

 -------------
 #p 6-31g* mp2
 -------------

 ------------------------------------------------------
 Input file generated by CHIRIPA (05-May-2021 14:53:15)
 ------------------------------------------------------
 Symbolic Z-matrix:
 Charge =  0 Multiplicity = 1

                         Standard orientation:
 ---------------------------------------------------------------------
 Center     Atomic      Atomic             Coordinates (Angstroms)
 Number     Number       Type             X           Y           Z
 ---------------------------------------------------------------------
      1          6           0        4.540810   -0.606923   -0.041513
      2          6           0        5.834956   -0.336991   -0.809829
      3          6           0        6.458575   -1.609890   -1.383085
      4          1           0        4.746260   -1.315153    0.772825
      5          1           0        3.821538   -1.099674   -0.710273
      6          1           0        6.551080    0.156352   -0.140207
      7          1           0        5.626440    0.370826   -1.622314
      8          1           0        5.764912   -2.101997   -2.072479
      9          1           0        6.694806   -2.317689   -0.581951
     10          1           0        7.382645   -1.393853   -1.928321
     11          6           0        3.905454    0.655881    0.537604
     12          6           0        2.611309    0.385949    1.305919
     13          6           0        1.987690    1.658847    1.879175
     14          1           0        4.624726    1.148631    1.206364
     15          1           0        3.700004    1.364110   -0.276734
     16          1           0        2.819825   -0.321869    2.118405
     17          1           0        1.895184   -0.107395    0.636298
     18          1           0        1.751458    2.366646    1.078041
     19          1           0        2.681353    2.150954    2.568569
     20          1           0        1.063620    1.442810    2.424412
     21          6           0       -2.022356    2.046292   -0.878867
     22          6           0       -1.436182    1.115293   -0.015061
     23          6           0       -2.134411   -0.032671    0.371210
     24          6           0       -3.422775   -0.218801   -0.127554
     25          6           0       -4.033956    0.690369   -0.989620
     26          6           0       -3.317089    1.831238   -1.362537
     27          1           0       -1.472715    2.935303   -1.173744
     28          1           0       -0.430824    1.279705    0.362125
     29          1           0       -1.704583   -0.769662    1.038674
     30          1           0       -5.037719    0.499056   -1.349174
     31          1           0       -3.774832    2.552561   -2.033513
     32          7           0       -4.171824   -1.430343    0.274305
     33          8           0       -5.305547   -1.571176   -0.178988
     34          8           0       -3.611022   -2.216177    1.034964
 ---------------------------------------------------------------------

 SCF Done:  E(RHF) =  -669.535344366     A.U. after   15 cycles
 E2 =    -0.2091504674D+01 EUMP2 =    -0.67162684903957D+03

 The electronic state is 1-A.
 Alpha  occ. eigenvalues --  -20.60718 -20.60713 -15.85770 -11.31124 -11.27693
 Alpha  occ. eigenvalues --  -11.27673 -11.27421 -11.26712 -11.26613 -11.22573
 Alpha  occ. eigenvalues --  -11.22252 -11.22126 -11.22042 -11.21907 -11.21403
 Alpha  occ. eigenvalues --   -1.59794  -1.39348  -1.19290  -1.09124  -1.08688
 Alpha  occ. eigenvalues --   -1.04696  -1.04255  -0.96715  -0.95527  -0.87731
 Alpha  occ. eigenvalues --   -0.86085  -0.82359  -0.80328  -0.78878  -0.77411
 Alpha  occ. eigenvalues --   -0.71989  -0.71117  -0.70406  -0.65816  -0.64940
 Alpha  occ. eigenvalues --   -0.64704  -0.62211  -0.61501  -0.60081  -0.58291
 Alpha  occ. eigenvalues --   -0.56027  -0.55172  -0.53446  -0.53135  -0.53017
 Alpha  occ. eigenvalues --   -0.52687  -0.50637  -0.48745  -0.48742  -0.48633
 Alpha  occ. eigenvalues --   -0.47370  -0.46428  -0.46325  -0.44756  -0.44482
 Alpha  occ. eigenvalues --   -0.37274  -0.36290
 Alpha virt. eigenvalues --    0.05114   0.11344   0.16577   0.19582   0.22690
 Alpha virt. eigenvalues --    0.23826   0.25859   0.26275   0.26764   0.28068
 Alpha virt. eigenvalues --    0.29282   0.30529   0.30920   0.30966   0.31768

 Mulliken charges:
               1
     1  C   -0.299225
     2  C   -0.300138
     3  C   -0.476175
     4  H    0.151930
     5  H    0.150756
     6  H    0.152668
     7  H    0.151654
     8  H    0.156164
     9  H    0.156432
    10  H    0.161438
    11  C   -0.297904
    12  C   -0.304423
    13  C   -0.485963
    14  H    0.152156
    15  H    0.148308
    16  H    0.158499
    17  H    0.148984
    18  H    0.148731
    19  H    0.165872
    20  H    0.160221
    21  C   -0.173999
    22  C   -0.229442
    23  C   -0.175451
    24  C    0.159040
    25  C   -0.171490
    26  C   -0.218316
    27  H    0.225383
    28  H    0.243695
    29  H    0.275454
    30  H    0.275312
    31  H    0.223029
    32  N    0.488082
    33  O   -0.460745
    34  O   -0.460536
 Sum of Mulliken charges =  -0.00000

 Dipole moment (field-independent basis, Debye):
    X=              2.8932    Y=              4.2418    Z=             -1.3647  Tot=              5.3128
 Quadrupole moment (field-independent basis, Debye-Ang):
   XX=           -109.3312   YY=            -97.5174   ZZ=            -92.7082
   XY=            -16.3094   XZ=              8.0004   YZ=             -1.6791

 Normal termination of Gaussian 16 at Wed May  5 21:55:44 2021.
