 Gaussian 16, Revision A.03,
 Gaussian 16:  EM64L-G16RevA.03 25-Dec-2016

 -------------
 #p 6-31g* mp2
 -------------

 ------------------------------------------------------
 Input file generated by CHIRIPA (05-May-2021 14:55:23)
 ------------------------------------------------------
 Symbolic Z-matrix:
 Charge =  0 Multiplicity = 1

                         Standard orientation:
 ---------------------------------------------------------------------
 Center     Atomic      Atomic             Coordinates (Angstroms)
 Number     Number       Type             X           Y           Z
 ---------------------------------------------------------------------
      1          6           0       -5.370490    1.712690    0.220175
      2          6           0       -4.142324    2.160313   -0.277582
      3          6           0       -3.069618    1.275408   -0.421779
      4          6           0       -3.260951   -0.056320   -0.056840
      5          6           0       -4.472365   -0.532633    0.442051
      6          6           0       -5.531307    0.370012    0.577773
      7          1           0       -6.198448    2.406996    0.328899
      8          1           0       -4.014554    3.202498   -0.556097
      9          1           0       -2.108014    1.595178   -0.804511
     10          1           0       -4.569416   -1.577396    0.711254
     11          1           0       -6.483985    0.019576    0.964612
     12          7           0       -2.132611   -1.002520   -0.205009
     13          8           0       -2.326770   -2.170826    0.123624
     14          8           0       -1.075423   -0.557929   -0.646972
     15          6           0        4.851051    0.425351   -0.250127
     16          6           0        6.027019    0.804449    0.650633
     17          6           0        6.896001    1.911793    0.053596
     18          1           0        5.235079    0.104859   -1.228264
     19          1           0        4.235773    1.317225   -0.432853
     20          1           0        6.639128   -0.088175    0.832735
     21          1           0        5.640157    1.123894    1.626804
     22          1           0        6.304845    2.818246   -0.112172
     23          1           0        7.309492    1.599290   -0.910753
     24          1           0        7.730668    2.167131    0.713894
     25          6           0        3.973052   -0.680391    0.333122
     26          6           0        2.797084   -1.059489   -0.567637
     27          6           0        1.928102   -2.166833    0.029400
     28          1           0        4.588330   -1.572265    0.515849
     29          1           0        3.589025   -0.359899    1.311260
     30          1           0        3.183946   -1.378933   -1.543808
     31          1           0        2.184975   -0.166865   -0.749739
     32          1           0        1.514612   -1.854330    0.993749
     33          1           0        2.519259   -3.073285    0.195167
     34          1           0        1.093435   -2.422170   -0.630898
 ---------------------------------------------------------------------

 SCF Done:  E(RHF) =  -669.536032982     A.U. after   15 cycles
 E2 =    -0.2091450291D+01 EUMP2 =    -0.67162748327315D+03

 The electronic state is 1-A.
 Alpha  occ. eigenvalues --  -20.60995 -20.60989 -15.86015 -11.31330 -11.27890
 Alpha  occ. eigenvalues --  -11.27885 -11.27624 -11.26893 -11.26884 -11.20970
 Alpha  occ. eigenvalues --  -11.20582 -11.20563 -11.20273 -11.20052 -11.19021
 Alpha  occ. eigenvalues --   -1.60046  -1.39603  -1.19495  -1.08901  -1.07426
 Alpha  occ. eigenvalues --   -1.04889  -1.02384  -0.95748  -0.94814  -0.86290
 Alpha  occ. eigenvalues --   -0.85842  -0.82577  -0.78528  -0.77634  -0.77159
 Alpha  occ. eigenvalues --   -0.72234  -0.71358  -0.70603  -0.65151  -0.64893
 Alpha  occ. eigenvalues --   -0.64073  -0.62237  -0.59794  -0.58294  -0.56395
 Alpha  occ. eigenvalues --   -0.55391  -0.54143  -0.53221  -0.52980  -0.51505
 Alpha  occ. eigenvalues --   -0.51271  -0.49047  -0.48985  -0.48656  -0.46789
 Alpha  occ. eigenvalues --   -0.45606  -0.45011  -0.44705  -0.44593  -0.42603
 Alpha  occ. eigenvalues --   -0.37473  -0.36490
 Alpha virt. eigenvalues --    0.04892   0.11166   0.16391   0.21292   0.23754
 Alpha virt. eigenvalues --    0.25521   0.27217   0.27542   0.28135   0.28477
 Alpha virt. eigenvalues --    0.29225   0.30874   0.32282   0.32501   0.32677

 Mulliken charges:
               1
     1  C   -0.170550
     2  C   -0.218534
     3  C   -0.170782
     4  C    0.158033
     5  C   -0.170674
     6  C   -0.218579
     7  H    0.226118
     8  H    0.223927
     9  H    0.275608
    10  H    0.276007
    11  H    0.223956
    12  N    0.489682
    13  O   -0.458671
    14  O   -0.459836
    15  C   -0.296876
    16  C   -0.298676
    17  C   -0.474972
    18  H    0.148079
    19  H    0.147025
    20  H    0.151131
    21  H    0.150393
    22  H    0.153456
    23  H    0.154436
    24  H    0.158055
    25  C   -0.297245
    26  C   -0.300415
    27  C   -0.470408
    28  H    0.146556
    29  H    0.146935
    30  H    0.145636
    31  H    0.156925
    32  H    0.151074
    33  H    0.141557
    34  H    0.181627
 Sum of Mulliken charges =  -0.00000

 Dipole moment (field-independent basis, Debye):
    X=             -4.4309    Y=              3.3128    Z=              0.4666  Tot=              5.5520
 Quadrupole moment (field-independent basis, Debye-Ang):
   XX=            -69.2749   YY=            -92.9910   ZZ=            -94.9857
   XY=             -9.3500   XZ=             -2.9277   YZ=             -1.0850

 Normal termination of Gaussian 16 at Wed May  5 20:42:05 2021.
