 Gaussian 16, Revision A.03,
 Gaussian 16:  EM64L-G16RevA.03 25-Dec-2016

 -------------
 #p 6-31g* mp2
 -------------

 ------------------------------------------------------
 Input file generated by CHIRIPA (05-May-2021 14:57:21)
 ------------------------------------------------------
 Symbolic Z-matrix:
 Charge =  0 Multiplicity = 1

                         Standard orientation:
 ---------------------------------------------------------------------
 Center     Atomic      Atomic             Coordinates (Angstroms)
 Number     Number       Type             X           Y           Z
 ---------------------------------------------------------------------
      1          6           0       -4.438189    1.479672   -0.558234
      2          6           0       -4.466812    0.842194    0.686484
      3          6           0       -3.502473   -0.114741    1.016446
      4          6           0       -2.519435   -0.411227    0.073567
      5          6           0       -2.464222    0.206642   -1.174824
      6          6           0       -3.438747    1.160424   -1.483285
      7          1           0       -5.191267    2.221817   -0.806205
      8          1           0       -5.241814    1.088130    1.406854
      9          1           0       -3.501077   -0.623489    1.972789
     10          1           0       -1.679255   -0.059557   -1.872235
     11          1           0       -3.414050    1.653901   -2.450712
     12          7           0       -1.493140   -1.422622    0.411502
     13          8           0       -0.637556   -1.666065   -0.436643
     14          8           0       -1.563748   -1.952761    1.518120
     15          6           0        2.817885    2.628055    0.799470
     16          6           0        2.829692    2.356969   -0.572716
     17          6           0        2.758519    1.040164   -1.036943
     18          6           0        2.676080    0.014107   -0.096889
     19          6           0        2.662211    0.252041    1.276605
     20          6           0        2.734330    1.576579    1.718132
     21          1           0        2.873541    3.653985    1.151276
     22          1           0        2.894507    3.171565   -1.288451
     23          1           0        2.765802    0.801925   -2.093639
     24          1           0        2.596812   -0.580995    1.965947
     25          1           0        2.724966    1.784134    2.784376
     26          7           0        2.600231   -1.384029   -0.576329
     27          8           0        2.528268   -2.270251    0.272239
     28          8           0        2.614181   -1.567191   -1.791604
 ---------------------------------------------------------------------

 SCF Done:  E(RHF) =  -868.336448876     A.U. after   16 cycles
 E2 =    -0.2601625910D+01 EUMP2 =    -0.87093807478627D+03

 The electronic state is 1-A.
 Alpha  occ. eigenvalues --  -20.60536 -20.60521 -20.59453 -20.59367 -15.85592
 Alpha  occ. eigenvalues --  -15.84492 -11.31099 -11.30355 -11.27698 -11.27672
 Alpha  occ. eigenvalues --  -11.27470 -11.27023 -11.26927 -11.26853 -11.26745
 Alpha  occ. eigenvalues --  -11.26731 -11.26172 -11.26109  -1.59602  -1.58442
 Alpha  occ. eigenvalues --   -1.39156  -1.38005  -1.19290  -1.18579  -1.08659
 Alpha  occ. eigenvalues --   -1.07880  -1.04715  -1.04067  -0.95467  -0.94636
 Alpha  occ. eigenvalues --   -0.86106  -0.85437  -0.82301  -0.81486  -0.77323
 Alpha  occ. eigenvalues --   -0.76429  -0.71897  -0.70983  -0.70745  -0.70403
 Alpha  occ. eigenvalues --   -0.69697  -0.69572  -0.64935  -0.64718  -0.64229
 Alpha  occ. eigenvalues --   -0.64086  -0.62057  -0.61406  -0.55214  -0.54568
 Alpha  occ. eigenvalues --   -0.53040  -0.52808  -0.52369  -0.52169  -0.48558
 Alpha  occ. eigenvalues --   -0.48534  -0.47515  -0.47444  -0.44553  -0.43280
 Alpha  occ. eigenvalues --   -0.37287  -0.36581  -0.36328  -0.35705
 Alpha virt. eigenvalues --    0.05169   0.06192   0.11323   0.11944   0.16657
 Alpha virt. eigenvalues --    0.17546   0.21444   0.21995   0.27342   0.27864
 Alpha virt. eigenvalues --    0.28347   0.28959   0.30957   0.31507   0.32592

 Mulliken charges:
               1
     1  C   -0.171420
     2  C   -0.218821
     3  C   -0.171534
     4  C    0.158111
     5  C   -0.171516
     6  C   -0.218967
     7  H    0.224623
     8  H    0.222591
     9  H    0.275185
    10  H    0.278060
    11  H    0.222579
    12  N    0.488653
    13  O   -0.457192
    14  O   -0.458978
    15  C   -0.173284
    16  C   -0.219608
    17  C   -0.174132
    18  C    0.163753
    19  C   -0.171324
    20  C   -0.219580
    21  H    0.221196
    22  H    0.218444
    23  H    0.272437
    24  H    0.279818
    25  H    0.220969
    26  N    0.497635
    27  O   -0.450687
    28  O   -0.467011
 Sum of Mulliken charges =  -0.00000

 Dipole moment (field-independent basis, Debye):
    X=             -3.4402    Y=              8.0889    Z=              0.5458  Tot=              8.8070
 Quadrupole moment (field-independent basis, Debye-Ang):
   XX=            -86.4519   YY=           -108.5479   ZZ=            -97.2256
   XY=              5.4018   XZ=              5.1064   YZ=             -2.2748

 Normal termination of Gaussian 16 at Thu May  6 12:51:13 2021.
