 Gaussian 16, Revision A.03,
 Gaussian 16:  EM64L-G16RevA.03 25-Dec-2016

 -------------
 #p 6-31g* mp2
 -------------

 ------------------------------------------------------
 Input file generated by CHIRIPA (05-May-2021 14:53:13)
 ------------------------------------------------------
 Symbolic Z-matrix:
 Charge =  0 Multiplicity = 1

                         Standard orientation:
 ---------------------------------------------------------------------
 Center     Atomic      Atomic             Coordinates (Angstroms)
 Number     Number       Type             X           Y           Z
 ---------------------------------------------------------------------
      1          6           0        3.179443   -0.104827    0.745347
      2          6           0        3.712390   -1.482392    0.350037
      3          6           0        3.971841   -2.384514    1.556956
      4          1           0        3.898832    0.380009    1.419408
      5          1           0        2.249792   -0.229457    1.317720
      6          1           0        4.640023   -1.355144   -0.222606
      7          1           0        2.991738   -1.963926   -0.323314
      8          1           0        3.049866   -2.540980    2.126238
      9          1           0        4.707516   -1.928739    2.227518
     10          1           0        4.352342   -3.364192    1.251487
     11          6           0        2.915173    0.808490   -0.450371
     12          6           0        2.382227    2.186054   -0.055062
     13          6           0        2.122776    3.088177   -1.261981
     14          1           0        3.844825    0.933119   -1.022744
     15          1           0        2.195785    0.323654   -1.124433
     16          1           0        3.102878    2.667588    0.618289
     17          1           0        1.454594    2.058806    0.517582
     18          1           0        1.387101    2.632401   -1.932543
     19          1           0        3.044751    3.244642   -1.831262
     20          1           0        1.742275    4.067854   -0.956512
     21          6           0       -3.704105    1.205819    1.441090
     22          6           0       -2.427236    1.594256    1.022468
     23          6           0       -1.684948    0.781750    0.160267
     24          6           0       -2.252768   -0.418015   -0.265684
     25          6           0       -3.522392   -0.832565    0.133686
     26          6           0       -4.246651   -0.004219    0.996148
     27          1           0       -4.273730    1.843146    2.110969
     28          1           0       -2.003367    2.533449    1.366410
     29          1           0       -0.694187    1.058165   -0.179446
     30          1           0       -3.918351   -1.774477   -0.226087
     31          1           0       -5.238048   -0.308433    1.319616
     32          7           0       -1.476485   -1.286564   -1.178594
     33          8           0       -1.999171   -2.338765   -1.539577
     34          8           0       -0.360046   -0.898686   -1.515865
 ---------------------------------------------------------------------

 SCF Done:  E(RHF) =  -669.536052073     A.U. after   15 cycles
 E2 =    -0.2092606194D+01 EUMP2 =    -0.67162865826698D+03

 The electronic state is 1-A.
 Alpha  occ. eigenvalues --  -20.60978 -20.60961 -15.86011 -11.31285 -11.27849
 Alpha  occ. eigenvalues --  -11.27824 -11.27579 -11.26851 -11.26835 -11.21634
 Alpha  occ. eigenvalues --  -11.21079 -11.20939 -11.20880 -11.20763 -11.20551
 Alpha  occ. eigenvalues --   -1.60035  -1.39593  -1.19453  -1.08866  -1.08012
 Alpha  occ. eigenvalues --   -1.04844  -1.03209  -0.95717  -0.95629  -0.86662
 Alpha  occ. eigenvalues --   -0.86247  -0.82556  -0.79279  -0.77782  -0.77607
 Alpha  occ. eigenvalues --   -0.72246  -0.71348  -0.70571  -0.65119  -0.64946
 Alpha  occ. eigenvalues --   -0.64555  -0.62208  -0.60579  -0.59031  -0.57235
 Alpha  occ. eigenvalues --   -0.55354  -0.54901  -0.53178  -0.52934  -0.52386
 Alpha  occ. eigenvalues --   -0.52055  -0.49598  -0.49002  -0.48980  -0.47586
 Alpha  occ. eigenvalues --   -0.46293  -0.45359  -0.45206  -0.44943  -0.43407
 Alpha  occ. eigenvalues --   -0.37432  -0.36440
 Alpha virt. eigenvalues --    0.04895   0.11187   0.16403   0.19489   0.23026
 Alpha virt. eigenvalues --    0.24370   0.26300   0.27227   0.28021   0.28423
 Alpha virt. eigenvalues --    0.29350   0.30775   0.31522   0.31891   0.32391

 Mulliken charges:
               1
     1  C   -0.295181
     2  C   -0.303161
     3  C   -0.475300
     4  H    0.145144
     5  H    0.145355
     6  H    0.149961
     7  H    0.165692
     8  H    0.153858
     9  H    0.151857
    10  H    0.160359
    11  C   -0.311836
    12  C   -0.300066
    13  C   -0.478754
    14  H    0.148207
    15  H    0.178761
    16  H    0.152665
    17  H    0.135682
    18  H    0.159582
    19  H    0.159004
    20  H    0.155198
    21  C   -0.170319
    22  C   -0.221349
    23  C   -0.178890
    24  C    0.157878
    25  C   -0.170120
    26  C   -0.218915
    27  H    0.226110
    28  H    0.224515
    29  H    0.287821
    30  H    0.275716
    31  H    0.223851
    32  N    0.493457
    33  O   -0.458653
    34  O   -0.468131
 Sum of Mulliken charges =  -0.00000

 Dipole moment (field-independent basis, Debye):
    X=             -2.8217    Y=              2.9036    Z=              3.0304  Tot=              5.0573
 Quadrupole moment (field-independent basis, Debye-Ang):
   XX=            -79.0300   YY=            -96.3145   ZZ=            -97.8747
   XY=             -2.6267   XZ=             -7.3836   YZ=             -1.3832

 Normal termination of Gaussian 16 at Wed May  5 17:04:26 2021.
