 Gaussian 16, Revision A.03,
 Gaussian 16:  EM64L-G16RevA.03 25-Dec-2016

 -------------
 #p 6-31g* mp2
 -------------

 ------------------------------------------------------
 Input file generated by CHIRIPA (05-May-2021 14:55:24)
 ------------------------------------------------------
 Symbolic Z-matrix:
 Charge =  0 Multiplicity = 1

                         Standard orientation:
 ---------------------------------------------------------------------
 Center     Atomic      Atomic             Coordinates (Angstroms)
 Number     Number       Type             X           Y           Z
 ---------------------------------------------------------------------
      1          6           0       -1.052216   -1.251194   -0.314119
      2          6           0       -1.288769    0.121454   -0.442195
      3          6           0       -2.579933    0.636389   -0.292911
      4          6           0       -3.615841   -0.253979   -0.014651
      5          6           0       -3.412093   -1.626556    0.118800
      6          6           0       -2.112764   -2.119287   -0.034523
      7          1           0       -0.046038   -1.642583   -0.431655
      8          1           0       -0.467052    0.797982   -0.659304
      9          1           0       -2.791241    1.694657   -0.386905
     10          1           0       -4.251435   -2.276136    0.335525
     11          1           0       -1.932008   -3.185763    0.065482
     12          7           0       -4.987061    0.279406    0.145528
     13          8           0       -5.882631   -0.525961    0.390422
     14          8           0       -5.140287    1.492741    0.023148
     15          6           0        5.017221    0.150084    0.254483
     16          6           0        5.231460   -1.287931   -0.219013
     17          6           0        6.592808   -1.849236    0.192647
     18          1           0        5.815678    0.785959   -0.151810
     19          1           0        5.114469    0.186883    1.348368
     20          1           0        5.132468   -1.322252   -1.311551
     21          1           0        4.432292   -1.920422    0.188298
     22          1           0        6.698094   -1.844061    1.282366
     23          1           0        7.402248   -1.242492   -0.226005
     24          1           0        6.724893   -2.878220   -0.156072
     25          6           0        3.660788    0.725148   -0.149396
     26          6           0        3.446549    2.163163    0.324101
     27          6           0        2.085202    2.724468   -0.087559
     28          1           0        3.563541    0.688349   -1.243281
     29          1           0        2.862331    0.089272    0.256897
     30          1           0        4.245717    2.795654   -0.083211
     31          1           0        3.545542    2.197484    1.416638
     32          1           0        1.275761    2.117724    0.331092
     33          1           0        1.979915    2.719292   -1.177279
     34          1           0        1.953117    3.753452    0.261159
 ---------------------------------------------------------------------

 SCF Done:  E(RHF) =  -669.535701044     A.U. after   15 cycles
 E2 =    -0.2091092556D+01 EUMP2 =    -0.67162679360007D+03

 The electronic state is 1-A.
 Alpha  occ. eigenvalues --  -20.60718 -20.60713 -15.85770 -11.31128 -11.27703
 Alpha  occ. eigenvalues --  -11.27685 -11.27434 -11.26716 -11.26651 -11.22499
 Alpha  occ. eigenvalues --  -11.22362 -11.22350 -11.22149 -11.22143 -11.21676
 Alpha  occ. eigenvalues --   -1.59794  -1.39347  -1.19299  -1.09288  -1.08695
 Alpha  occ. eigenvalues --   -1.04700  -1.04366  -0.96831  -0.95532  -0.87851
 Alpha  occ. eigenvalues --   -0.86097  -0.82363  -0.80442  -0.79108  -0.77411
 Alpha  occ. eigenvalues --   -0.71989  -0.71117  -0.70407  -0.65918  -0.64949
 Alpha  occ. eigenvalues --   -0.64718  -0.62099  -0.61719  -0.60186  -0.58437
 Alpha  occ. eigenvalues --   -0.56135  -0.55197  -0.53496  -0.53348  -0.53030
 Alpha  occ. eigenvalues --   -0.52708  -0.50758  -0.48808  -0.48745  -0.48679
 Alpha  occ. eigenvalues --   -0.47459  -0.46649  -0.46553  -0.44754  -0.44620
 Alpha  occ. eigenvalues --   -0.37282  -0.36301
 Alpha virt. eigenvalues --    0.05117   0.11286   0.16582   0.19758   0.22408
 Alpha virt. eigenvalues --    0.23598   0.25294   0.25717   0.26337   0.28495
 Alpha virt. eigenvalues --    0.29271   0.30426   0.30860   0.31112   0.31726

 Mulliken charges:
               1
     1  C   -0.173342
     2  C   -0.225846
     3  C   -0.172489
     4  C    0.158698
     5  C   -0.171123
     6  C   -0.218496
     7  H    0.226485
     8  H    0.233498
     9  H    0.275877
    10  H    0.275369
    11  H    0.223100
    12  N    0.488076
    13  O   -0.460703
    14  O   -0.460446
    15  C   -0.298661
    16  C   -0.299808
    17  C   -0.476123
    18  H    0.152611
    19  H    0.151834
    20  H    0.152205
    21  H    0.148634
    22  H    0.156534
    23  H    0.157000
    24  H    0.161462
    25  C   -0.299090
    26  C   -0.299433
    27  C   -0.483184
    28  H    0.149491
    29  H    0.142367
    30  H    0.156164
    31  H    0.155631
    32  H    0.151364
    33  H    0.155110
    34  H    0.167234
 Sum of Mulliken charges =  -0.00000

 Dipole moment (field-independent basis, Debye):
    X=              5.0849    Y=             -1.7984    Z=             -0.5395  Tot=              5.4205
 Quadrupole moment (field-independent basis, Debye-Ang):
   XX=           -129.4376   YY=            -89.4126   ZZ=            -94.7597
   XY=              8.3172   XZ=              1.1908   YZ=             -0.8670

 Normal termination of Gaussian 16 at Thu May  6 14:21:32 2021.
