 Gaussian 16, Revision A.03,
 Gaussian 16:  EM64L-G16RevA.03 25-Dec-2016

 -------------
 #p 6-31g* mp2
 -------------

 ------------------------------------------------------
 Input file generated by CHIRIPA (05-May-2021 14:57:23)
 ------------------------------------------------------
 Symbolic Z-matrix:
 Charge =  0 Multiplicity = 1

                         Standard orientation:
 ---------------------------------------------------------------------
 Center     Atomic      Atomic             Coordinates (Angstroms)
 Number     Number       Type             X           Y           Z
 ---------------------------------------------------------------------
      1          6           0       -5.697617   -0.791426    0.285241
      2          6           0       -4.729269   -1.782846    0.095741
      3          6           0       -3.383947   -1.439347   -0.067553
      4          6           0       -3.040689   -0.088622   -0.035837
      5          6           0       -3.982205    0.922258    0.151139
      6          6           0       -5.321657    0.555587    0.312287
      7          1           0       -6.740416   -1.067265    0.411258
      8          1           0       -5.018348   -2.829755    0.074296
      9          1           0       -2.613750   -2.186485   -0.215870
     10          1           0       -3.663514    1.957426    0.167869
     11          1           0       -6.071537    1.327673    0.459286
     12          7           0       -1.619564    0.287290   -0.207573
     13          8           0       -1.342924    1.484408   -0.175706
     14          8           0       -0.809236   -0.622305   -0.370794
     15          6           0        4.767925   -1.869494    0.244465
     16          6           0        4.179475   -1.574877   -0.989815
     17          6           0        3.350489   -0.458220   -1.132676
     18          6           0        3.130568    0.345870   -0.015373
     19          6           0        3.702402    0.078708    1.227575
     20          6           0        4.527935   -1.043218    1.347277
     21          1           0        5.410560   -2.738985    0.346447
     22          1           0        4.364081   -2.214802   -1.847989
     23          1           0        2.882176   -0.206869   -2.076563
     24          1           0        3.499677    0.735279    2.064973
     25          1           0        4.983596   -1.269581    2.307056
     26          7           0        2.254786    1.530813   -0.154355
     27          8           0        2.076825    2.223462    0.845248
     28          8           0        1.762894    1.744486   -1.260258
 ---------------------------------------------------------------------

 SCF Done:  E(RHF) =  -868.336235197     A.U. after   16 cycles
 E2 =    -0.2601218222D+01 EUMP2 =    -0.87093745341852D+03

 The electronic state is 1-A.
 Alpha  occ. eigenvalues --  -20.60147 -20.60024 -20.58982 -20.58902 -15.85126
 Alpha  occ. eigenvalues --  -15.84018 -11.30728 -11.29797 -11.27354 -11.27291
 Alpha  occ. eigenvalues --  -11.27120 -11.26464 -11.26414 -11.26409 -11.26373
 Alpha  occ. eigenvalues --  -11.26317 -11.25602 -11.25569  -1.59148  -1.57966
 Alpha  occ. eigenvalues --   -1.38695  -1.37535  -1.18924  -1.18020  -1.08278
 Alpha  occ. eigenvalues --   -1.07344  -1.04361  -1.03510  -0.95072  -0.94114
 Alpha  occ. eigenvalues --   -0.85749  -0.84891  -0.81901  -0.80975  -0.76914
 Alpha  occ. eigenvalues --   -0.75927  -0.71332  -0.70495  -0.70261  -0.70037
 Alpha  occ. eigenvalues --   -0.69265  -0.69174  -0.64572  -0.64367  -0.63692
 Alpha  occ. eigenvalues --   -0.63550  -0.61706  -0.60868  -0.54861  -0.54038
 Alpha  occ. eigenvalues --   -0.52680  -0.52459  -0.51789  -0.51634  -0.48180
 Alpha  occ. eigenvalues --   -0.48115  -0.46987  -0.46913  -0.44051  -0.42823
 Alpha  occ. eigenvalues --   -0.36920  -0.36019  -0.35976  -0.35124
 Alpha virt. eigenvalues --    0.05626   0.06678   0.11675   0.12527   0.17079
 Alpha virt. eigenvalues --    0.18063   0.21776   0.22480   0.27667   0.28347
 Alpha virt. eigenvalues --    0.28696   0.29422   0.31303   0.31964   0.32955

 Mulliken charges:
               1
     1  C   -0.171615
     2  C   -0.218597
     3  C   -0.171719
     4  C    0.159226
     5  C   -0.170879
     6  C   -0.218650
     7  H    0.223839
     8  H    0.221073
     9  H    0.273060
    10  H    0.278578
    11  H    0.222785
    12  N    0.487487
    13  O   -0.442038
    14  O   -0.471629
    15  C   -0.172701
    16  C   -0.219337
    17  C   -0.164671
    18  C    0.166986
    19  C   -0.171811
    20  C   -0.219022
    21  H    0.219769
    22  H    0.218334
    23  H    0.275231
    24  H    0.272406
    25  H    0.217909
    26  N    0.494144
    27  O   -0.465814
    28  O   -0.452342
 Sum of Mulliken charges =  -0.00000

 Dipole moment (field-independent basis, Debye):
    X=             -2.1930    Y=             -5.1337    Z=              0.9614  Tot=              5.6647
 Quadrupole moment (field-independent basis, Debye-Ang):
   XX=            -58.3923   YY=           -103.5076   ZZ=           -101.3067
   XY=             -8.7878   XZ=              0.1907   YZ=              1.8383

 Normal termination of Gaussian 16 at Thu May  6 00:14:55 2021.
