 Gaussian 16, Revision A.03,
 Gaussian 16:  EM64L-G16RevA.03 25-Dec-2016

 -------------
 #p 6-31g* mp2
 -------------

 ------------------------------------------------------
 Input file generated by CHIRIPA (05-May-2021 14:57:24)
 ------------------------------------------------------
 Symbolic Z-matrix:
 Charge =  0 Multiplicity = 1

                         Standard orientation:
 ---------------------------------------------------------------------
 Center     Atomic      Atomic             Coordinates (Angstroms)
 Number     Number       Type             X           Y           Z
 ---------------------------------------------------------------------
      1          6           0        2.242320    2.280233   -0.956795
      2          6           0        1.599098    1.040484   -0.880581
      3          6           0        2.277922   -0.083242   -0.399972
      4          6           0        3.605265    0.069437   -0.002305
      5          6           0        4.273548    1.291160   -0.066187
      6          6           0        3.575142    2.401401   -0.550072
      7          1           0        1.707387    3.147932   -1.331416
      8          1           0        0.564064    0.943428   -1.195748
      9          1           0        1.804159   -1.054899   -0.330336
     10          1           0        5.305887    1.356766    0.255356
     11          1           0        4.077214    3.362960   -0.608146
     12          7           0        4.334271   -1.113063    0.508229
     13          8           0        5.503184   -0.952259    0.852352
     14          8           0        3.722948   -2.178320    0.554594
     15          6           0       -4.943742    1.694296    0.720580
     16          6           0       -5.486082    0.619015    0.009131
     17          6           0       -4.687263   -0.471500   -0.347539
     18          6           0       -3.344101   -0.453680    0.025142
     19          6           0       -2.774456    0.602807    0.734105
     20          6           0       -3.592045    1.682781    1.080163
     21          1           0       -5.571575    2.537340    0.993529
     22          1           0       -6.535498    0.625249   -0.271459
     23          1           0       -5.081271   -1.317043   -0.898205
     24          1           0       -1.724868    0.568045    0.999759
     25          1           0       -3.168147    2.516485    1.632695
     26          7           0       -2.488493   -1.602579   -0.346832
     27          8           0       -1.308103   -1.562778   -0.006636
     28          8           0       -3.014458   -2.521133   -0.971538
 ---------------------------------------------------------------------

 SCF Done:  E(RHF) =  -868.339016556     A.U. after   16 cycles
 E2 =    -0.2599432716D+01 EUMP2 =    -0.87093844927144D+03

 The electronic state is 1-A.
 Alpha  occ. eigenvalues --  -20.61572 -20.61509 -20.60178 -20.60143 -15.86580
 Alpha  occ. eigenvalues --  -15.85216 -11.31845 -11.30597 -11.28416 -11.28363
 Alpha  occ. eigenvalues --  -11.28096 -11.27395 -11.27356 -11.27274 -11.27057
 Alpha  occ. eigenvalues --  -11.27031 -11.26312 -11.26177  -1.60598  -1.59242
 Alpha  occ. eigenvalues --   -1.40159  -1.38790  -1.20001  -1.18811  -1.09409
 Alpha  occ. eigenvalues --   -1.08229  -1.05386  -1.04193  -0.96261  -0.95037
 Alpha  occ. eigenvalues --   -0.86788  -0.85610  -0.83100  -0.81848  -0.78167
 Alpha  occ. eigenvalues --   -0.76863  -0.72799  -0.71913  -0.71433  -0.71097
 Alpha  occ. eigenvalues --   -0.70570  -0.69930  -0.65653  -0.65381  -0.64459
 Alpha  occ. eigenvalues --   -0.64206  -0.62732  -0.61491  -0.55875  -0.54772
 Alpha  occ. eigenvalues --   -0.53724  -0.53472  -0.52569  -0.52271  -0.49555
 Alpha  occ. eigenvalues --   -0.49526  -0.48209  -0.48174  -0.45578  -0.44190
 Alpha  occ. eigenvalues --   -0.37970  -0.36991  -0.36863  -0.35810
 Alpha virt. eigenvalues --    0.04331   0.05629   0.10621   0.11805   0.15847
 Alpha virt. eigenvalues --    0.17032   0.20641   0.21986   0.26318   0.27163
 Alpha virt. eigenvalues --    0.28379   0.28886   0.30504   0.31171   0.32588

 Mulliken charges:
               1
     1  C   -0.172165
     2  C   -0.225923
     3  C   -0.174036
     4  C    0.157364
     5  C   -0.171246
     6  C   -0.219743
     7  H    0.220797
     8  H    0.225051
     9  H    0.295399
    10  H    0.273820
    11  H    0.220269
    12  N    0.487501
    13  O   -0.464182
    14  O   -0.455401
    15  C   -0.170396
    16  C   -0.218246
    17  C   -0.170342
    18  C    0.157989
    19  C   -0.175870
    20  C   -0.218726
    21  H    0.227577
    22  H    0.225804
    23  H    0.277501
    24  H    0.274919
    25  H    0.224599
    26  N    0.491031
    27  O   -0.469666
    28  O   -0.453678
 Sum of Mulliken charges =  -0.00000

 Dipole moment (field-independent basis, Debye):
    X=             -5.9698    Y=              7.9663    Z=             -0.4848  Tot=              9.9667
 Quadrupole moment (field-independent basis, Debye-Ang):
   XX=            -96.8238   YY=           -106.3967   ZZ=           -105.2016
   XY=              6.7123   XZ=             -8.3806   YZ=              1.1931

 Normal termination of Gaussian 16 at Thu May  6 06:37:51 2021.
