 Gaussian 16, Revision A.03,
 Gaussian 16:  EM64L-G16RevA.03 25-Dec-2016

 -------------
 #p 6-31g* mp2
 -------------

 ------------------------------------------------------
 Input file generated by CHIRIPA (05-May-2021 14:51:14)
 ------------------------------------------------------
 Symbolic Z-matrix:
 Charge =  0 Multiplicity = 1

                         Standard orientation:
 ---------------------------------------------------------------------
 Center     Atomic      Atomic             Coordinates (Angstroms)
 Number     Number       Type             X           Y           Z
 ---------------------------------------------------------------------
      1          6           0       -2.321094   -1.615333    0.167980
      2          6           0       -0.919658   -2.108785   -0.193222
      3          6           0       -0.690603   -3.570982    0.190584
      4          1           0       -2.480522   -1.741831    1.247575
      5          1           0       -3.065847   -2.248203   -0.334229
      6          1           0       -0.177753   -1.474314    0.308415
      7          1           0       -0.763477   -1.980920   -1.272052
      8          1           0       -1.408468   -4.220478   -0.320714
      9          1           0       -0.819416   -3.710994    1.268733
     10          1           0        0.317487   -3.902996   -0.076591
     11          6           0       -2.565291   -0.155334   -0.209510
     12          6           0       -3.966727    0.338119    0.151692
     13          6           0       -4.195782    1.800316   -0.232115
     14          1           0       -1.820538    0.477536    0.292698
     15          1           0       -2.405863   -0.028836   -1.289106
     16          1           0       -4.122908    0.210254    1.230522
     17          1           0       -4.708632   -0.296352   -0.349946
     18          1           0       -4.066969    1.940327   -1.310264
     19          1           0       -3.477917    2.449811    0.279184
     20          1           0       -5.203872    2.132329    0.035061
     21          6           0        2.042268    1.413456    0.399946
     22          6           0        1.781987    2.679448   -0.417064
     23          6           0        0.978805    3.726594    0.355060
     24          1           0        1.081333    0.982866    0.713222
     25          1           0        2.578771    1.683161    1.320173
     26          1           0        1.247354    2.407259   -1.336137
     27          1           0        2.743648    3.106968   -0.728594
     28          1           0        1.510419    4.026749    1.263847
     29          1           0        0.005622    3.323063    0.652852
     30          1           0        0.804207    4.623304   -0.247674
     31          6           0        2.844117    0.357210   -0.358416
     32          6           0        3.104398   -0.908781    0.458595
     33          6           0        3.907581   -1.955927   -0.313530
     34          1           0        2.307613    0.087506   -1.278643
     35          1           0        3.805052    0.787800   -0.671692
     36          1           0        2.142738   -1.336302    0.770124
     37          1           0        3.639031   -0.636592    1.377668
     38          1           0        4.880763   -1.552397   -0.611323
     39          1           0        3.375966   -2.256082   -1.222317
     40          1           0        4.082177   -2.852636    0.289204
 ---------------------------------------------------------------------

 SCF Done:  E(RHF) =  -470.733251593     A.U. after   11 cycles
 E2 =    -0.1584163964D+01 EUMP2 =    -0.47231741555678D+03

 The electronic state is 1-A.
 Alpha  occ. eigenvalues --  -11.21665 -11.21654 -11.21592 -11.21564 -11.21479
 Alpha  occ. eigenvalues --  -11.21418 -11.21399 -11.21333 -11.21126 -11.21110
 Alpha  occ. eigenvalues --  -11.21079 -11.21063  -1.08511  -1.08409  -1.03604
 Alpha  occ. eigenvalues --   -1.03506  -0.96038  -0.95970  -0.87054  -0.86985
 Alpha  occ. eigenvalues --   -0.79690  -0.79557  -0.78383  -0.78177  -0.65300
 Alpha  occ. eigenvalues --   -0.64904  -0.61128  -0.60812  -0.59417  -0.59307
 Alpha  occ. eigenvalues --   -0.57660  -0.57563  -0.55340  -0.55241  -0.52731
 Alpha  occ. eigenvalues --   -0.52661  -0.52459  -0.52398  -0.50017  -0.49881
 Alpha  occ. eigenvalues --   -0.48063  -0.47841  -0.46898  -0.46476  -0.46225
 Alpha  occ. eigenvalues --   -0.45839  -0.45717  -0.45187  -0.43842  -0.43772
 Alpha virt. eigenvalues --    0.19483   0.21622   0.23657   0.24754   0.25533
 Alpha virt. eigenvalues --    0.26340   0.26487   0.27692   0.28250   0.29649
 Alpha virt. eigenvalues --    0.31175   0.31297   0.31801   0.32125   0.32210

 Mulliken charges:
               1
     1  C   -0.297503
     2  C   -0.308453
     3  C   -0.476630
     4  H    0.149838
     5  H    0.149960
     6  H    0.159460
     7  H    0.151671
     8  H    0.155658
     9  H    0.155325
    10  H    0.161533
    11  C   -0.301224
    12  C   -0.299721
    13  C   -0.476012
    14  H    0.151104
    15  H    0.149733
    16  H    0.152203
    17  H    0.152305
    18  H    0.155327
    19  H    0.155354
    20  H    0.160606
    21  C   -0.302957
    22  C   -0.299334
    23  C   -0.476281
    24  H    0.152536
    25  H    0.149420
    26  H    0.152712
    27  H    0.151968
    28  H    0.155090
    29  H    0.154843
    30  H    0.160584
    31  C   -0.298043
    32  C   -0.305861
    33  C   -0.475720
    34  H    0.150527
    35  H    0.149679
    36  H    0.158125
    37  H    0.151660
    38  H    0.155209
    39  H    0.155236
    40  H    0.160072
 Sum of Mulliken charges =  -0.00000

 Dipole moment (field-independent basis, Debye):
    X=             -0.0225    Y=             -0.0142    Z=             -0.0089  Tot=              0.0281
 Quadrupole moment (field-independent basis, Debye-Ang):
   XX=            -84.3095   YY=            -86.3202   ZZ=            -84.0303
   XY=              1.3030   XZ=              0.7839   YZ=              0.2527

 Normal termination of Gaussian 16 at Thu May  6 02:26:06 2021.
