 Gaussian 16, Revision A.03,
 Gaussian 16:  EM64L-G16RevA.03 25-Dec-2016

 -------------
 #p 6-31g* mp2
 -------------

 ------------------------------------------------------
 Input file generated by CHIRIPA (05-May-2021 14:51:09)
 ------------------------------------------------------
 Symbolic Z-matrix:
 Charge =  0 Multiplicity = 1

                         Standard orientation:
 ---------------------------------------------------------------------
 Center     Atomic      Atomic             Coordinates (Angstroms)
 Number     Number       Type             X           Y           Z
 ---------------------------------------------------------------------
      1          6           0       -4.695551   -0.669677    0.006408
      2          6           0       -5.743725    0.443132   -0.024768
      3          6           0       -7.175100   -0.091190    0.034055
      4          1           0       -4.868840   -1.351645   -0.837295
      5          1           0       -4.828819   -1.263855    0.921060
      6          1           0       -5.607639    1.035881   -0.938411
      7          1           0       -5.567804    1.122637    0.818998
      8          1           0       -7.334434   -0.665634    0.952330
      9          1           0       -7.374497   -0.752883   -0.815065
     10          1           0       -7.908157    0.721174    0.010568
     11          6           0       -3.259719   -0.151282   -0.051730
     12          6           0       -2.211544   -1.264091   -0.020554
     13          6           0       -0.780169   -0.729770   -0.079377
     14          1           0       -3.126451    0.442895   -0.966381
     15          1           0       -3.086429    0.530686    0.791974
     16          1           0       -2.387466   -1.943597   -0.864319
     17          1           0       -2.347630   -1.856840    0.893090
     18          1           0       -0.580773   -0.068076    0.769743
     19          1           0       -0.620835   -0.155326   -0.997651
     20          1           0       -0.047112   -1.542134   -0.055890
     21          6           0        4.371191   -0.162227    0.339761
     22          6           0        5.582661   -0.595804   -0.486276
     23          6           0        6.359841   -1.742395    0.161114
     24          1           0        4.707324    0.140103    1.341038
     25          1           0        3.704798   -1.024437    0.480858
     26          1           0        6.245890    0.267303   -0.626946
     27          1           0        5.243628   -0.896955   -1.485766
     28          1           0        5.717885   -2.620295    0.286762
     29          1           0        6.725843   -1.449421    1.150461
     30          1           0        7.221667   -2.036418   -0.446067
     31          6           0        3.584079    0.983187   -0.294440
     32          6           0        2.372608    1.416763    0.531597
     33          6           0        1.595428    2.563355   -0.115792
     34          1           0        4.250472    1.845396   -0.435537
     35          1           0        3.247946    0.680857   -1.295717
     36          1           0        2.711642    1.717914    1.531087
     37          1           0        1.709379    0.553656    0.672267
     38          1           0        1.229427    2.270380   -1.105139
     39          1           0        2.237384    3.441254   -0.241440
     40          1           0        0.733604    2.857377    0.491388
 ---------------------------------------------------------------------

 SCF Done:  E(RHF) =  -470.732780040     A.U. after   11 cycles
 E2 =    -0.1583081452D+01 EUMP2 =    -0.47231586149230D+03

 The electronic state is 1-A.
 Alpha  occ. eigenvalues --  -11.21638 -11.21615 -11.21554 -11.21430 -11.21404
 Alpha  occ. eigenvalues --  -11.21370 -11.21326 -11.21256 -11.21134 -11.21082
 Alpha  occ. eigenvalues --  -11.21038 -11.20972  -1.08460  -1.08340  -1.03583
 Alpha  occ. eigenvalues --   -1.03427  -0.96042  -0.95884  -0.87049  -0.86916
 Alpha  occ. eigenvalues --   -0.79692  -0.79462  -0.78282  -0.78140  -0.65093
 Alpha  occ. eigenvalues --   -0.64975  -0.60992  -0.60841  -0.59387  -0.59278
 Alpha  occ. eigenvalues --   -0.57669  -0.57475  -0.55310  -0.55200  -0.52739
 Alpha  occ. eigenvalues --   -0.52598  -0.52416  -0.52324  -0.50041  -0.49780
 Alpha  occ. eigenvalues --   -0.48019  -0.47760  -0.46766  -0.46429  -0.45867
 Alpha  occ. eigenvalues --   -0.45740  -0.45681  -0.45494  -0.43798  -0.43693
 Alpha virt. eigenvalues --    0.21651   0.22939   0.23656   0.24828   0.26181
 Alpha virt. eigenvalues --    0.26298   0.27016   0.27401   0.27924   0.29350
 Alpha virt. eigenvalues --    0.29810   0.31097   0.31681   0.32182   0.32296

 Mulliken charges:
               1
     1  C   -0.298335
     2  C   -0.299659
     3  C   -0.475725
     4  H    0.149676
     5  H    0.149560
     6  H    0.152024
     7  H    0.151993
     8  H    0.155195
     9  H    0.155186
    10  H    0.160335
    11  C   -0.298409
    12  C   -0.300450
    13  C   -0.478321
    14  H    0.149734
    15  H    0.149757
    16  H    0.151860
    17  H    0.152092
    18  H    0.157940
    19  H    0.156798
    20  H    0.159344
    21  C   -0.298232
    22  C   -0.299573
    23  C   -0.475637
    24  H    0.149422
    25  H    0.149205
    26  H    0.151848
    27  H    0.151804
    28  H    0.154995
    29  H    0.155089
    30  H    0.160073
    31  C   -0.297534
    32  C   -0.308757
    33  C   -0.474884
    34  H    0.148832
    35  H    0.149219
    36  H    0.150433
    37  H    0.164385
    38  H    0.155000
    39  H    0.154395
    40  H    0.159322
 Sum of Mulliken charges =  -0.00000

 Dipole moment (field-independent basis, Debye):
    X=             -0.0546    Y=             -0.0198    Z=              0.0023  Tot=              0.0581
 Quadrupole moment (field-independent basis, Debye-Ang):
   XX=            -86.2887   YY=            -85.1900   ZZ=            -83.6004
   XY=              0.6296   XZ=              0.1251   YZ=              0.6777

 Normal termination of Gaussian 16 at Wed May  5 22:57:06 2021.
