 Gaussian 16, Revision A.03,
 Gaussian 16:  EM64L-G16RevA.03 25-Dec-2016

 -------------
 #p 6-31g* mp2
 -------------

 ------------------------------------------------------
 Input file generated by CHIRIPA (05-May-2021 14:57:26)
 ------------------------------------------------------
 Symbolic Z-matrix:
 Charge =  0 Multiplicity = 1

                         Standard orientation:
 ---------------------------------------------------------------------
 Center     Atomic      Atomic             Coordinates (Angstroms)
 Number     Number       Type             X           Y           Z
 ---------------------------------------------------------------------
      1          6           0       -3.986468    1.626204    0.974490
      2          6           0       -3.587053    0.558362    1.784861
      3          6           0       -2.966666   -0.563263    1.226624
      4          6           0       -2.760314   -0.583799   -0.151885
      5          6           0       -3.146877    0.464325   -0.985728
      6          6           0       -3.765495    1.575867   -0.405785
      7          1           0       -4.467713    2.493593    1.416573
      8          1           0       -3.757386    0.594715    2.857106
      9          1           0       -2.647406   -1.403886    1.830646
     10          1           0       -2.963622    0.399223   -2.051372
     11          1           0       -4.074634    2.403706   -1.037575
     12          7           0       -2.104475   -1.765876   -0.754355
     13          8           0       -1.934040   -1.759600   -1.971544
     14          8           0       -1.773280   -2.676279    0.002027
     15          6           0        1.236369    2.241458   -0.467701
     16          6           0        2.609185    2.450262   -0.635924
     17          6           0        3.522588    1.430993   -0.350735
     18          6           0        3.026183    0.209888    0.102890
     19          6           0        1.664303   -0.028838    0.280603
     20          6           0        0.769133    1.004754   -0.010780
     21          1           0        0.533897    3.038815   -0.691648
     22          1           0        2.974903    3.409679   -0.990625
     23          1           0        4.590573    1.565562   -0.472049
     24          1           0        1.329838   -0.996006    0.635762
     25          1           0       -0.296468    0.839757    0.120799
     26          7           0        3.983512   -0.876749    0.408085
     27          8           0        3.520766   -1.943449    0.806400
     28          8           0        5.178483   -0.641179    0.243203
 ---------------------------------------------------------------------

 SCF Done:  E(RHF) =  -868.336852989     A.U. after   16 cycles
 E2 =    -0.2602127512D+01 EUMP2 =    -0.87093898050087D+03

 The electronic state is 1-A.
 Alpha  occ. eigenvalues --  -20.61609 -20.61599 -20.60354 -20.60327 -15.86654
 Alpha  occ. eigenvalues --  -15.85398 -11.32195 -11.30828 -11.28770 -11.28748
 Alpha  occ. eigenvalues --  -11.28496 -11.27808 -11.27758 -11.27445 -11.27352
 Alpha  occ. eigenvalues --  -11.27237 -11.26498 -11.26382  -1.60684  -1.59419
 Alpha  occ. eigenvalues --   -1.40225  -1.38968  -1.20417  -1.19020  -1.09746
 Alpha  occ. eigenvalues --   -1.08419  -1.05792  -1.04437  -0.96539  -0.95237
 Alpha  occ. eigenvalues --   -0.87165  -0.85840  -0.83342  -0.82074  -0.78378
 Alpha  occ. eigenvalues --   -0.77101  -0.72841  -0.72056  -0.71617  -0.71422
 Alpha  occ. eigenvalues --   -0.70742  -0.70158  -0.66004  -0.65738  -0.64681
 Alpha  occ. eigenvalues --   -0.64491  -0.63096  -0.61800  -0.56231  -0.55034
 Alpha  occ. eigenvalues --   -0.54232  -0.53832  -0.52764  -0.52378  -0.49626
 Alpha  occ. eigenvalues --   -0.49604  -0.48386  -0.48362  -0.45570  -0.44360
 Alpha  occ. eigenvalues --   -0.38383  -0.37450  -0.37020  -0.36022
 Alpha virt. eigenvalues --    0.04099   0.05445   0.10173   0.11643   0.15564
 Alpha virt. eigenvalues --    0.16899   0.20549   0.21618   0.26471   0.27214
 Alpha virt. eigenvalues --    0.27498   0.28469   0.30265   0.31135   0.31704

 Mulliken charges:
               1
     1  C   -0.172307
     2  C   -0.216379
     3  C   -0.176439
     4  C    0.148285
     5  C   -0.178083
     6  C   -0.219245
     7  H    0.229292
     8  H    0.228487
     9  H    0.280288
    10  H    0.279029
    11  H    0.226151
    12  N    0.488310
    13  O   -0.455141
    14  O   -0.457012
    15  C   -0.173372
    16  C   -0.218554
    17  C   -0.171161
    18  C    0.158678
    19  C   -0.173546
    20  C   -0.225190
    21  H    0.220547
    22  H    0.221085
    23  H    0.274760
    24  H    0.282924
    25  H    0.230044
    26  N    0.487851
    27  O   -0.456654
    28  O   -0.462648
 Sum of Mulliken charges =  -0.00000

 Dipole moment (field-independent basis, Debye):
    X=             -5.9405    Y=              7.8067    Z=              1.0909  Tot=              9.8703
 Quadrupole moment (field-independent basis, Debye-Ang):
   XX=           -109.9724   YY=           -106.3013   ZZ=           -101.8393
   XY=              2.7532   XZ=            -10.1412   YZ=             -4.7090

 Normal termination of Gaussian 16 at Thu May  6 16:28:47 2021.
