 Gaussian 16, Revision A.03,
 Gaussian 16:  EM64L-G16RevA.03 25-Dec-2016

 -------------
 #p 6-31g* mp2
 -------------

 ------------------------------------------------------
 Input file generated by CHIRIPA (05-May-2021 14:53:18)
 ------------------------------------------------------
 Symbolic Z-matrix:
 Charge =  0 Multiplicity = 1

                         Standard orientation:
 ---------------------------------------------------------------------
 Center     Atomic      Atomic             Coordinates (Angstroms)
 Number     Number       Type             X           Y           Z
 ---------------------------------------------------------------------
      1          6           0       -1.860432    1.300349   -0.339202
      2          6           0       -1.916273    2.706939    0.257767
      3          6           0       -0.658860    3.525002   -0.038002
      4          1           0       -0.979107    0.776258    0.055183
      5          1           0       -1.718514    1.376261   -1.426166
      6          1           0       -2.059429    2.628417    1.343104
      7          1           0       -2.797674    3.227676   -0.137937
      8          1           0       -0.514667    3.632956   -1.117889
      9          1           0        0.227772    3.030292    0.371568
     10          1           0       -0.720058    4.527033    0.397944
     11          6           0       -3.110339    0.470294   -0.052026
     12          6           0       -3.054498   -0.936295   -0.648996
     13          6           0       -4.311911   -1.754359   -0.353226
     14          1           0       -3.252257    0.394383    1.034938
     15          1           0       -3.991664    0.994386   -0.446411
     16          1           0       -2.173097   -1.457032   -0.253291
     17          1           0       -2.911342   -0.857773   -1.734333
     18          1           0       -5.198543   -1.259648   -0.762796
     19          1           0       -4.456104   -1.862312    0.726660
     20          1           0       -4.250713   -2.756389   -0.789173
     21          6           0        0.271985   -2.481663    0.764240
     22          6           0        1.089763   -2.641561   -0.359233
     23          6           0        2.018445   -1.656251   -0.707461
     24          6           0        2.103130   -0.518606    0.093714
     25          6           0        1.302354   -0.330211    1.219127
     26          6           0        0.380698   -1.328531    1.548452
     27          1           0       -0.446708   -3.252129    1.027410
     28          1           0        1.007521   -3.536059   -0.970098
     29          1           0        2.663892   -1.754374   -1.571862
     30          1           0        1.407365    0.572433    1.808726
     31          1           0       -0.253105   -1.201662    2.421517
     32          7           0        3.082564    0.531385   -0.264934
     33          8           0        3.137731    1.524394    0.457232
     34          8           0        3.776533    0.341475   -1.261416
 ---------------------------------------------------------------------

 SCF Done:  E(RHF) =  -669.533962842     A.U. after   15 cycles
 E2 =    -0.2096129025D+01 EUMP2 =    -0.67163009186636D+03

 The electronic state is 1-A.
 Alpha  occ. eigenvalues --  -20.60936 -20.60931 -15.85971 -11.31362 -11.27926
 Alpha  occ. eigenvalues --  -11.27922 -11.27663 -11.26944 -11.26934 -11.21879
 Alpha  occ. eigenvalues --  -11.21623 -11.21551 -11.21546 -11.21286 -11.20748
 Alpha  occ. eigenvalues --   -1.59994  -1.39549  -1.19557  -1.08948  -1.08562
 Alpha  occ. eigenvalues --   -1.04961  -1.03656  -0.96089  -0.95769  -0.87096
 Alpha  occ. eigenvalues --   -0.86347  -0.82596  -0.79728  -0.78374  -0.77631
 Alpha  occ. eigenvalues --   -0.72191  -0.71308  -0.70659  -0.65272  -0.65200
 Alpha  occ. eigenvalues --   -0.64940  -0.62291  -0.61078  -0.59497  -0.57695
 Alpha  occ. eigenvalues --   -0.55459  -0.55404  -0.53414  -0.53033  -0.52751
 Alpha  occ. eigenvalues --   -0.52483  -0.50050  -0.48951  -0.48947  -0.48044
 Alpha  occ. eigenvalues --   -0.46813  -0.45876  -0.45790  -0.44897  -0.43885
 Alpha  occ. eigenvalues --   -0.37436  -0.36431
 Alpha virt. eigenvalues --    0.04829   0.10973   0.16239   0.20449   0.23243
 Alpha virt. eigenvalues --    0.23672   0.26236   0.27009   0.27655   0.27917
 Alpha virt. eigenvalues --    0.28238   0.30682   0.31299   0.31547   0.31849

 Mulliken charges:
               1
     1  C   -0.307851
     2  C   -0.299670
     3  C   -0.479590
     4  H    0.158313
     5  H    0.150257
     6  H    0.146126
     7  H    0.151579
     8  H    0.157157
     9  H    0.162164
    10  H    0.160582
    11  C   -0.296023
    12  C   -0.306513
    13  C   -0.475492
    14  H    0.142968
    15  H    0.150948
    16  H    0.153224
    17  H    0.153152
    18  H    0.158151
    19  H    0.151382
    20  H    0.157050
    21  C   -0.171405
    22  C   -0.217154
    23  C   -0.170554
    24  C    0.163613
    25  C   -0.177699
    26  C   -0.215398
    27  H    0.227866
    28  H    0.224747
    29  H    0.276427
    30  H    0.277191
    31  H    0.225204
    32  N    0.488534
    33  O   -0.460419
    34  O   -0.458866
 Sum of Mulliken charges =  -0.00000

 Dipole moment (field-independent basis, Debye):
    X=             -3.1947    Y=             -3.7311    Z=              1.2110  Tot=              5.0590
 Quadrupole moment (field-independent basis, Debye-Ang):
   XX=           -110.5565   YY=            -90.1843   ZZ=            -90.9651
   XY=             -7.7352   XZ=              1.5825   YZ=              1.1284

 Normal termination of Gaussian 16 at Thu May  6 04:26:17 2021.
