 Gaussian 16, Revision A.03,
 Gaussian 16:  EM64L-G16RevA.03 25-Dec-2016

 -------------
 #p 6-31g* mp2
 -------------

 ------------------------------------------------------
 Input file generated by CHIRIPA (05-May-2021 14:55:22)
 ------------------------------------------------------
 Symbolic Z-matrix:
 Charge =  0 Multiplicity = 1

                         Standard orientation:
 ---------------------------------------------------------------------
 Center     Atomic      Atomic             Coordinates (Angstroms)
 Number     Number       Type             X           Y           Z
 ---------------------------------------------------------------------
      1          6           0        0.906534    2.295778    0.775264
      2          6           0        1.125772    1.170800    1.577061
      3          6           0        2.051090    0.195304    1.193991
      4          6           0        2.742787    0.377568   -0.002514
      5          6           0        2.546551    1.487395   -0.822921
      6          6           0        1.616372    2.450213   -0.420061
      7          1           0        0.185837    3.048642    1.080528
      8          1           0        0.575940    1.048237    2.505882
      9          1           0        2.240404   -0.685338    1.795696
     10          1           0        3.109790    1.581897   -1.743383
     11          1           0        1.448162    3.322867   -1.044741
     12          7           0        3.724953   -0.648434   -0.418529
     13          8           0        4.321557   -0.464494   -1.477238
     14          8           0        3.879572   -1.617128    0.321986
     15          6           0       -3.895927   -0.464717   -0.505629
     16          6           0       -4.747897    0.599485    0.186909
     17          6           0       -5.929086    1.059578   -0.668019
     18          1           0       -3.526126   -0.065362   -1.459939
     19          1           0       -4.529329   -1.327995   -0.752504
     20          1           0       -4.112780    1.459928    0.433646
     21          1           0       -5.115555    0.197617    1.139772
     22          1           0       -6.586098    0.216006   -0.903227
     23          1           0       -5.577625    1.485489   -1.613364
     24          1           0       -6.524629    1.820334   -0.153784
     25          6           0       -2.711212   -0.934748    0.336541
     26          6           0       -1.859242   -1.998950   -0.355997
     27          6           0       -0.678053   -2.459043    0.498931
     28          1           0       -2.077810   -0.071470    0.583417
     29          1           0       -3.081013   -1.334104    1.290850
     30          1           0       -1.491584   -1.597082   -1.308859
     31          1           0       -2.494360   -2.859393   -0.602734
     32          1           0       -1.029513   -2.884955    1.444276
     33          1           0       -0.021041   -1.615472    0.734139
     34          1           0       -0.082510   -3.219799   -0.015304
 ---------------------------------------------------------------------

 SCF Done:  E(RHF) =  -669.535114473     A.U. after   15 cycles
 E2 =    -0.2092877188D+01 EUMP2 =    -0.67162799166137D+03

 The electronic state is 1-A.
 Alpha  occ. eigenvalues --  -20.60816 -20.60809 -15.85871 -11.31280 -11.27858
 Alpha  occ. eigenvalues --  -11.27844 -11.27617 -11.26884 -11.26870 -11.22007
 Alpha  occ. eigenvalues --  -11.21730 -11.21695 -11.21635 -11.21426 -11.21042
 Alpha  occ. eigenvalues --   -1.59889  -1.39441  -1.19473  -1.08849  -1.08705
 Alpha  occ. eigenvalues --   -1.04888  -1.03764  -0.96215  -0.95675  -0.87234
 Alpha  occ. eigenvalues --   -0.86264  -0.82507  -0.79846  -0.78533  -0.77541
 Alpha  occ. eigenvalues --   -0.72088  -0.71214  -0.70571  -0.65343  -0.65119
 Alpha  occ. eigenvalues --   -0.64867  -0.62230  -0.61172  -0.59577  -0.57830
 Alpha  occ. eigenvalues --   -0.55559  -0.55359  -0.53266  -0.52977  -0.52867
 Alpha  occ. eigenvalues --   -0.52580  -0.50152  -0.48851  -0.48839  -0.48154
 Alpha  occ. eigenvalues --   -0.46885  -0.46067  -0.45994  -0.44833  -0.44020
 Alpha  occ. eigenvalues --   -0.37442  -0.36394
 Alpha virt. eigenvalues --    0.04961   0.11074   0.16409   0.21098   0.22643
 Alpha virt. eigenvalues --    0.24126   0.26144   0.26804   0.27185   0.28077
 Alpha virt. eigenvalues --    0.28551   0.30749   0.31322   0.31638   0.31946

 Mulliken charges:
               1
     1  C   -0.171514
     2  C   -0.217134
     3  C   -0.174126
     4  C    0.160183
     5  C   -0.171055
     6  C   -0.218454
     7  H    0.226351
     8  H    0.225631
     9  H    0.278269
    10  H    0.276083
    11  H    0.223913
    12  N    0.488301
    13  O   -0.460383
    14  O   -0.459713
    15  C   -0.298251
    16  C   -0.298698
    17  C   -0.475714
    18  H    0.149877
    19  H    0.151356
    20  H    0.146726
    21  H    0.152203
    22  H    0.156931
    23  H    0.155086
    24  H    0.159946
    25  C   -0.299360
    26  C   -0.298380
    27  C   -0.483547
    28  H    0.145384
    29  H    0.148333
    30  H    0.153128
    31  H    0.152887
    32  H    0.152170
    33  H    0.156356
    34  H    0.167216
 Sum of Mulliken charges =  -0.00000

 Dipole moment (field-independent basis, Debye):
    X=             -3.3756    Y=              3.6075    Z=              1.4273  Tot=              5.1426
 Quadrupole moment (field-independent basis, Debye-Ang):
   XX=           -114.7240   YY=            -90.6444   ZZ=            -91.6728
   XY=             10.1400   XZ=              2.5601   YZ=             -1.9609

 Normal termination of Gaussian 16 at Thu May  6 10:57:28 2021.
