 Gaussian 16, Revision A.03,
 Gaussian 16:  EM64L-G16RevA.03 25-Dec-2016

 -------------
 #p 6-31g* mp2
 -------------

 ------------------------------------------------------
 Input file generated by CHIRIPA (05-May-2021 14:51:10)
 ------------------------------------------------------
 Symbolic Z-matrix:
 Charge =  0 Multiplicity = 1

                         Standard orientation:
 ---------------------------------------------------------------------
 Center     Atomic      Atomic             Coordinates (Angstroms)
 Number     Number       Type             X           Y           Z
 ---------------------------------------------------------------------
      1          6           0       -4.274152   -0.206094    0.117065
      2          6           0       -4.289795   -1.563763   -0.586124
      3          6           0       -5.386979   -2.489492   -0.059810
      4          1           0       -4.138872   -0.360807    1.196281
      5          1           0       -5.253567    0.275757   -0.009274
      6          1           0       -3.310191   -2.042305   -0.459673
      7          1           0       -4.424861   -1.405790   -1.663815
      8          1           0       -6.373630   -2.036354   -0.200475
      9          1           0       -5.252627   -2.676486    1.010509
     10          1           0       -5.380056   -3.454413   -0.576280
     11          6           0       -3.182765    0.730468   -0.398157
     12          6           0       -3.167122    2.088137    0.305033
     13          6           0       -2.069938    3.013867   -0.221282
     14          1           0       -2.203350    0.248617   -0.271817
     15          1           0       -3.318044    0.885182   -1.477373
     16          1           0       -3.032056    1.930164    1.382723
     17          1           0       -4.146726    2.566679    0.178581
     18          1           0       -2.204290    3.200860   -1.291601
     19          1           0       -1.083287    2.560728   -0.080617
     20          1           0       -2.076861    3.978787    0.295188
     21          6           0        4.433551   -0.520341    0.280664
     22          6           0        5.488599    0.053559   -0.665643
     23          6           0        6.894106   -0.472327   -0.372743
     24          1           0        4.708678   -0.278369    1.316376
     25          1           0        4.439369   -1.616438    0.203648
     26          1           0        5.479841    1.148317   -0.587884
     27          1           0        5.210828   -0.189642   -1.699234
     28          1           0        6.925499   -1.562392   -0.469545
     29          1           0        7.196041   -0.216831    0.648119
     30          1           0        7.632556   -0.049215   -1.060877
     31          6           0        3.023366   -0.004033    0.000428
     32          6           0        1.968317   -0.577934    0.946734
     33          6           0        0.562811   -0.052048    0.653835
     34          1           0        3.017549    1.092065    0.077444
     35          1           0        2.748239   -0.246006   -1.035284
     36          1           0        2.246089   -0.334733    1.980326
     37          1           0        1.977076   -1.672691    0.868976
     38          1           0        0.260876   -0.307542   -0.367027
     39          1           0        0.531418    1.038018    0.750637
     40          1           0       -0.175639   -0.475159    1.341969
 ---------------------------------------------------------------------

 SCF Done:  E(RHF) =  -470.732459252     A.U. after   11 cycles
 E2 =    -0.1583621403D+01 EUMP2 =    -0.47231608065439D+03

 The electronic state is 1-A.
 Alpha  occ. eigenvalues --  -11.21680 -11.21629 -11.21545 -11.21483 -11.21456
 Alpha  occ. eigenvalues --  -11.21394 -11.21292 -11.21205 -11.21170 -11.21093
 Alpha  occ. eigenvalues --  -11.21031 -11.20933  -1.08489  -1.08321  -1.03608
 Alpha  occ. eigenvalues --   -1.03432  -0.96062  -0.95886  -0.87092  -0.86906
 Alpha  occ. eigenvalues --   -0.79728  -0.79469  -0.78317  -0.78100  -0.65118
 Alpha  occ. eigenvalues --   -0.64963  -0.61043  -0.60822  -0.59427  -0.59258
 Alpha  occ. eigenvalues --   -0.57692  -0.57484  -0.55519  -0.55030  -0.52786
 Alpha  occ. eigenvalues --   -0.52593  -0.52513  -0.52291  -0.50151  -0.49661
 Alpha  occ. eigenvalues --   -0.48110  -0.47735  -0.46699  -0.46501  -0.45942
 Alpha  occ. eigenvalues --   -0.45752  -0.45661  -0.45419  -0.43806  -0.43681
 Alpha virt. eigenvalues --    0.21530   0.22944   0.23847   0.24614   0.25918
 Alpha virt. eigenvalues --    0.26295   0.27045   0.27499   0.27908   0.29406
 Alpha virt. eigenvalues --    0.30367   0.31205   0.31801   0.32033   0.32184

 Mulliken charges:
               1
     1  C   -0.297582
     2  C   -0.299635
     3  C   -0.475574
     4  H    0.148817
     5  H    0.149054
     6  H    0.151554
     7  H    0.151721
     8  H    0.155149
     9  H    0.154964
    10  H    0.159922
    11  C   -0.309109
    12  C   -0.298085
    13  C   -0.481772
    14  H    0.163805
    15  H    0.148267
    16  H    0.151081
    17  H    0.151242
    18  H    0.154580
    19  H    0.161266
    20  H    0.159152
    21  C   -0.298366
    22  C   -0.299700
    23  C   -0.475746
    24  H    0.149752
    25  H    0.149621
    26  H    0.152089
    27  H    0.152064
    28  H    0.155214
    29  H    0.155218
    30  H    0.160398
    31  C   -0.298681
    32  C   -0.300201
    33  C   -0.481510
    34  H    0.149708
    35  H    0.150033
    36  H    0.152196
    37  H    0.152237
    38  H    0.156734
    39  H    0.159722
    40  H    0.160400
 Sum of Mulliken charges =  -0.00000

 Dipole moment (field-independent basis, Debye):
    X=              0.0885    Y=             -0.0236    Z=              0.0039  Tot=              0.0917
 Quadrupole moment (field-independent basis, Debye-Ang):
   XX=            -86.3121   YY=            -84.9043   ZZ=            -83.9711
   XY=             -0.3036   XZ=              0.6559   YZ=              0.5080

 Normal termination of Gaussian 16 at Wed May  5 19:48:49 2021.
