 Gaussian 16, Revision A.03,
 Gaussian 16:  EM64L-G16RevA.03 25-Dec-2016

 -------------
 #p 6-31g* mp2
 -------------

 ------------------------------------------------------
 Input file generated by CHIRIPA (05-May-2021 14:55:25)
 ------------------------------------------------------
 Symbolic Z-matrix:
 Charge =  0 Multiplicity = 1

                         Standard orientation:
 ---------------------------------------------------------------------
 Center     Atomic      Atomic             Coordinates (Angstroms)
 Number     Number       Type             X           Y           Z
 ---------------------------------------------------------------------
      1          6           0        2.046726    1.857159    1.242974
      2          6           0        1.757103    1.455224   -0.065111
      3          6           0        2.473832    0.414514   -0.663249
      4          6           0        3.478099   -0.205022    0.078986
      5          6           0        3.790217    0.172622    1.384075
      6          6           0        3.060571    1.215706    1.962125
      7          1           0        1.484936    2.666530    1.699819
      8          1           0        0.970278    1.951576   -0.625993
      9          1           0        2.270403    0.083219   -1.674327
     10          1           0        4.580265   -0.341227    1.918116
     11          1           0        3.287675    1.525744    2.978168
     12          7           0        4.243705   -1.308032   -0.543602
     13          8           0        5.123650   -1.837751    0.131477
     14          8           0        3.949345   -1.621967   -1.694877
     15          6           0       -4.045509    0.686597   -0.535707
     16          6           0       -2.584366    0.639918   -0.983893
     17          6           0       -2.108971    1.961385   -1.588473
     18          1           0       -4.678007    0.946667   -1.395507
     19          1           0       -4.170591    1.493376    0.199723
     20          1           0       -2.461790   -0.167431   -1.717227
     21          1           0       -1.955292    0.379743   -0.122969
     22          1           0       -2.202533    2.773795   -0.860574
     23          1           0       -2.711909    2.223513   -2.463891
     24          1           0       -1.061862    1.905738   -1.902043
     25          6           0       -4.535401   -0.627121    0.070820
     26          6           0       -5.996543   -0.580442    0.519007
     27          6           0       -6.471938   -1.901908    1.123587
     28          1           0       -4.410319   -1.433900   -0.664610
     29          1           0       -3.902903   -0.887190    0.930620
     30          1           0       -6.625617   -0.320266   -0.341917
     31          1           0       -6.119119    0.226906    1.252341
     32          1           0       -5.869001   -2.164037    1.999005
     33          1           0       -6.378377   -2.714319    0.395687
     34          1           0       -7.519048   -1.846262    1.437157
 ---------------------------------------------------------------------

 SCF Done:  E(RHF) =  -669.535525906     A.U. after   15 cycles
 E2 =    -0.2090968409D+01 EUMP2 =    -0.67162649431473D+03

 The electronic state is 1-A.
 Alpha  occ. eigenvalues --  -20.60741 -20.60736 -15.85794 -11.31158 -11.27730
 Alpha  occ. eigenvalues --  -11.27720 -11.27468 -11.26746 -11.26700 -11.22305
 Alpha  occ. eigenvalues --  -11.22080 -11.21944 -11.21934 -11.21775 -11.21330
 Alpha  occ. eigenvalues --   -1.59817  -1.39370  -1.19330  -1.08949  -1.08725
 Alpha  occ. eigenvalues --   -1.04734  -1.04090  -0.96559  -0.95561  -0.87579
 Alpha  occ. eigenvalues --   -0.86128  -0.82394  -0.80150  -0.78721  -0.77443
 Alpha  occ. eigenvalues --   -0.72013  -0.71140  -0.70441  -0.65580  -0.64982
 Alpha  occ. eigenvalues --   -0.64763  -0.62137  -0.61469  -0.59940  -0.58149
 Alpha  occ. eigenvalues --   -0.55836  -0.55233  -0.53377  -0.53062  -0.53028
 Alpha  occ. eigenvalues --   -0.52645  -0.50480  -0.48772  -0.48768  -0.48462
 Alpha  occ. eigenvalues --   -0.47167  -0.46272  -0.46174  -0.44776  -0.44336
 Alpha  occ. eigenvalues --   -0.37312  -0.36331
 Alpha virt. eigenvalues --    0.05091   0.11281   0.16556   0.19971   0.22608
 Alpha virt. eigenvalues --    0.23769   0.26037   0.26166   0.27021   0.28149
 Alpha virt. eigenvalues --    0.28816   0.30132   0.30887   0.31556   0.32319

 Mulliken charges:
               1
     1  C   -0.172732
     2  C   -0.224166
     3  C   -0.172721
     4  C    0.158599
     5  C   -0.171153
     6  C   -0.218486
     7  H    0.225843
     8  H    0.233120
     9  H    0.275260
    10  H    0.275486
    11  H    0.223173
    12  N    0.488129
    13  O   -0.460613
    14  O   -0.460438
    15  C   -0.298682
    16  C   -0.301493
    17  C   -0.479238
    18  H    0.151381
    19  H    0.148717
    20  H    0.156053
    21  H    0.152460
    22  H    0.153621
    23  H    0.161765
    24  H    0.151980
    25  C   -0.298878
    26  C   -0.300028
    27  C   -0.476016
    28  H    0.151659
    29  H    0.150179
    30  H    0.152643
    31  H    0.151491
    32  H    0.155533
    33  H    0.156437
    34  H    0.161116
 Sum of Mulliken charges =  -0.00000

 Dipole moment (field-independent basis, Debye):
    X=             -2.8797    Y=              3.8388    Z=              2.1904  Tot=              5.2752
 Quadrupole moment (field-independent basis, Debye-Ang):
   XX=           -112.2508   YY=            -97.7937   ZZ=            -90.3934
   XY=             13.5915   XZ=             10.7364   YZ=              0.1674

 Normal termination of Gaussian 16 at Thu May  6 00:04:06 2021.
