 Gaussian 16, Revision A.03,
 Gaussian 16:  EM64L-G16RevA.03 25-Dec-2016

 -------------
 #p 6-31g* mp2
 -------------

 ------------------------------------------------------
 Input file generated by CHIRIPA (05-May-2021 14:53:13)
 ------------------------------------------------------
 Symbolic Z-matrix:
 Charge =  0 Multiplicity = 1

                         Standard orientation:
 ---------------------------------------------------------------------
 Center     Atomic      Atomic             Coordinates (Angstroms)
 Number     Number       Type             X           Y           Z
 ---------------------------------------------------------------------
      1          6           0        3.602912   -0.781916   -0.257290
      2          6           0        2.089217   -0.668976   -0.441559
      3          6           0        1.415939   -2.026135   -0.647989
      4          1           0        4.036850   -1.278209   -1.136117
      5          1           0        3.813001   -1.431258    0.603880
      6          1           0        1.882028   -0.018927   -1.301283
      7          1           0        1.658856   -0.172723    0.437723
      8          1           0        1.593333   -2.679066    0.212716
      9          1           0        1.817774   -2.524396   -1.536170
     10          1           0        0.334170   -1.922053   -0.777611
     11          6           0        4.290224    0.566524   -0.049831
     12          6           0        5.803919    0.453585    0.134439
     13          6           0        6.477197    1.810743    0.340868
     14          1           0        4.080135    1.215866   -0.911001
     15          1           0        3.856286    1.062817    0.828996
     16          1           0        6.234281   -0.042669   -0.744844
     17          1           0        6.011108   -0.196465    0.994162
     18          1           0        6.075363    2.309004    1.229050
     19          1           0        6.299803    2.463674   -0.519837
     20          1           0        7.558966    1.706661    0.470490
     21          6           0       -2.111122   -2.177997    0.670991
     22          6           0       -2.309373   -1.235389    1.685244
     23          6           0       -2.847309    0.021147    1.391496
     24          6           0       -3.177238    0.302832    0.066698
     25          6           0       -2.991641   -0.615103   -0.965890
     26          6           0       -2.452289   -1.865397   -0.649011
     27          1           0       -1.692691   -3.151681    0.908166
     28          1           0       -2.045342   -1.475407    2.711268
     29          1           0       -3.011308    0.769595    2.157229
     30          1           0       -3.264569   -0.346834   -1.979281
     31          1           0       -2.299429   -2.595477   -1.438734
     32          7           0       -3.747477    1.629767   -0.256523
     33          8           0       -4.029933    1.853440   -1.431609
     34          8           0       -3.901178    2.421019    0.671341
 ---------------------------------------------------------------------

 SCF Done:  E(RHF) =  -669.534522239     A.U. after   15 cycles
 E2 =    -0.2092557842D+01 EUMP2 =    -0.67162708008144D+03

 The electronic state is 1-A.
 Alpha  occ. eigenvalues --  -20.60800 -20.60794 -15.85856 -11.31239 -11.27832
 Alpha  occ. eigenvalues --  -11.27825 -11.27557 -11.26826 -11.26809 -11.21898
 Alpha  occ. eigenvalues --  -11.21757 -11.21643 -11.21540 -11.21441 -11.21176
 Alpha  occ. eigenvalues --   -1.59875  -1.39428  -1.19434  -1.08830  -1.08652
 Alpha  occ. eigenvalues --   -1.04842  -1.03770  -0.96244  -0.95641  -0.87270
 Alpha  occ. eigenvalues --   -0.86231  -0.82476  -0.79841  -0.78458  -0.77519
 Alpha  occ. eigenvalues --   -0.72074  -0.71199  -0.70529  -0.65289  -0.65084
 Alpha  occ. eigenvalues --   -0.64842  -0.62185  -0.61174  -0.59657  -0.57869
 Alpha  occ. eigenvalues --   -0.55554  -0.55304  -0.53564  -0.52926  -0.52761
 Alpha  occ. eigenvalues --   -0.52408  -0.50182  -0.48834  -0.48827  -0.48152
 Alpha  occ. eigenvalues --   -0.46869  -0.46005  -0.45926  -0.44831  -0.44052
 Alpha  occ. eigenvalues --   -0.37310  -0.36416
 Alpha virt. eigenvalues --    0.05014   0.11107   0.16475   0.21125   0.22688
 Alpha virt. eigenvalues --    0.24210   0.26392   0.26959   0.27176   0.27652
 Alpha virt. eigenvalues --    0.28724   0.30564   0.31327   0.31846   0.31917

 Mulliken charges:
               1
     1  C   -0.298364
     2  C   -0.297673
     3  C   -0.485283
     4  H    0.149685
     5  H    0.147890
     6  H    0.154214
     7  H    0.152452
     8  H    0.148609
     9  H    0.153646
    10  H    0.166970
    11  C   -0.298554
    12  C   -0.299731
    13  C   -0.475854
    14  H    0.151116
    15  H    0.149962
    16  H    0.151965
    17  H    0.151184
    18  H    0.155546
    19  H    0.156163
    20  H    0.160455
    21  C   -0.166655
    22  C   -0.218960
    23  C   -0.170446
    24  C    0.158444
    25  C   -0.170686
    26  C   -0.222742
    27  H    0.227988
    28  H    0.223735
    29  H    0.275934
    30  H    0.276080
    31  H    0.225398
    32  N    0.488149
    33  O   -0.460288
    34  O   -0.460347
 Sum of Mulliken charges =  -0.00000

 Dipole moment (field-independent basis, Debye):
    X=              1.9518    Y=             -4.6228    Z=              1.1525  Tot=              5.1486
 Quadrupole moment (field-independent basis, Debye-Ang):
   XX=           -108.6885   YY=            -98.8469   ZZ=            -88.9565
   XY=             15.4372   XZ=             -3.4505   YZ=              1.1688

 Normal termination of Gaussian 16 at Thu May  6 00:58:57 2021.
