 Gaussian 16, Revision A.03,
 Gaussian 16:  EM64L-G16RevA.03 25-Dec-2016

 -------------
 #p 6-31g* mp2
 -------------

 ------------------------------------------------------
 Input file generated by CHIRIPA (05-May-2021 14:55:20)
 ------------------------------------------------------
 Symbolic Z-matrix:
 Charge =  0 Multiplicity = 1

                         Standard orientation:
 ---------------------------------------------------------------------
 Center     Atomic      Atomic             Coordinates (Angstroms)
 Number     Number       Type             X           Y           Z
 ---------------------------------------------------------------------
      1          6           0        5.528498    1.062060   -0.490154
      2          6           0        4.279584    1.554545   -0.882829
      3          6           0        3.121482    0.799201   -0.675935
      4          6           0        3.249506   -0.450121   -0.070877
      5          6           0        4.479549   -0.968218    0.331438
      6          6           0        5.624326   -0.195533    0.114660
      7          1           0        6.422963    1.655565   -0.654713
      8          1           0        4.202153    2.530870   -1.352763
      9          1           0        2.142015    1.156269   -0.970152
     10          1           0        4.525017   -1.945023    0.797487
     11          1           0        6.592928   -0.580539    0.420641
     12          7           0        2.030529   -1.258949    0.153384
     13          8           0        2.170097   -2.356600    0.688472
     14          8           0        0.958608   -0.779941   -0.210174
     15          6           0       -5.137339    0.425731   -0.113853
     16          6           0       -5.737350   -0.961240   -0.346840
     17          6           0       -7.179829   -0.904295   -0.850631
     18          1           0       -5.758867    0.970229    0.610143
     19          1           0       -5.176880    0.996948   -1.051693
     20          1           0       -5.695427   -1.530157    0.590812
     21          1           0       -5.114214   -1.502569   -1.070220
     22          1           0       -7.235519   -0.359806   -1.798804
     23          1           0       -7.820034   -0.387551   -0.128333
     24          1           0       -7.589110   -1.906689   -1.010492
     25          6           0       -3.695705    0.385317    0.389918
     26          6           0       -3.095693    1.772289    0.622904
     27          6           0       -1.653215    1.715344    1.126696
     28          1           0       -3.656164   -0.185899    1.327757
     29          1           0       -3.074177   -0.159180   -0.334079
     30          1           0       -3.718829    2.313619    1.346285
     31          1           0       -3.137617    2.341207   -0.314748
     32          1           0       -1.013010    1.198600    0.404398
     33          1           0       -1.597524    1.170855    2.074869
     34          1           0       -1.243933    2.717738    1.286556
 ---------------------------------------------------------------------

 SCF Done:  E(RHF) =  -669.536059717     A.U. after   15 cycles
 E2 =    -0.2090846848D+01 EUMP2 =    -0.67162690656478D+03

 The electronic state is 1-A.
 Alpha  occ. eigenvalues --  -20.60896 -20.60890 -15.85935 -11.31256 -11.27822
 Alpha  occ. eigenvalues --  -11.27818 -11.27562 -11.26832 -11.26822 -11.20940
 Alpha  occ. eigenvalues --  -11.20799 -11.20678 -11.20540 -11.20452 -11.20046
 Alpha  occ. eigenvalues --   -1.59957  -1.39514  -1.19426  -1.08830  -1.07653
 Alpha  occ. eigenvalues --   -1.04824  -1.02772  -0.95674  -0.95210  -0.86229
 Alpha  occ. eigenvalues --   -0.86223  -0.82509  -0.78844  -0.77569  -0.77430
 Alpha  occ. eigenvalues --   -0.72164  -0.71270  -0.70537  -0.65085  -0.64828
 Alpha  occ. eigenvalues --   -0.64286  -0.62173  -0.60170  -0.58601  -0.56817
 Alpha  occ. eigenvalues --   -0.55330  -0.54486  -0.53155  -0.52917  -0.51945
 Alpha  occ. eigenvalues --   -0.51615  -0.49174  -0.48912  -0.48873  -0.47150
 Alpha  occ. eigenvalues --   -0.45884  -0.45050  -0.44941  -0.44779  -0.43033
 Alpha  occ. eigenvalues --   -0.37405  -0.36425
 Alpha virt. eigenvalues --    0.04954   0.11228   0.16433   0.21221   0.23601
 Alpha virt. eigenvalues --    0.24918   0.26835   0.27446   0.27772   0.28384
 Alpha virt. eigenvalues --    0.29071   0.30646   0.31751   0.32377   0.32560

 Mulliken charges:
               1
     1  C   -0.170617
     2  C   -0.218662
     3  C   -0.170339
     4  C    0.158177
     5  C   -0.170888
     6  C   -0.218580
     7  H    0.225855
     8  H    0.223800
     9  H    0.275933
    10  H    0.275736
    11  H    0.223673
    12  N    0.492033
    13  O   -0.459210
    14  O   -0.464015
    15  C   -0.297899
    16  C   -0.299379
    17  C   -0.475297
    18  H    0.146983
    19  H    0.147015
    20  H    0.152320
    21  H    0.153804
    22  H    0.153747
    23  H    0.153703
    24  H    0.159142
    25  C   -0.299012
    26  C   -0.298668
    27  C   -0.484305
    28  H    0.150499
    29  H    0.158396
    30  H    0.147717
    31  H    0.147203
    32  H    0.175700
    33  H    0.155682
    34  H    0.149751
 Sum of Mulliken charges =  -0.00000

 Dipole moment (field-independent basis, Debye):
    X=              4.5357    Y=              2.6985    Z=             -0.8232  Tot=              5.3415
 Quadrupole moment (field-independent basis, Debye-Ang):
   XX=            -67.5245   YY=            -95.5104   ZZ=            -93.8639
   XY=              5.4622   XZ=             -2.2665   YZ=             -1.9006

 Normal termination of Gaussian 16 at Wed May  5 23:46:55 2021.
