 Gaussian 16, Revision A.03,
 Gaussian 16:  EM64L-G16RevA.03 25-Dec-2016

 -------------
 #p 6-31g* mp2
 -------------

 ------------------------------------------------------
 Input file generated by CHIRIPA (05-May-2021 14:53:13)
 ------------------------------------------------------
 Symbolic Z-matrix:
 Charge =  0 Multiplicity = 1

                         Standard orientation:
 ---------------------------------------------------------------------
 Center     Atomic      Atomic             Coordinates (Angstroms)
 Number     Number       Type             X           Y           Z
 ---------------------------------------------------------------------
      1          6           0       -2.683917    0.998582   -0.318461
      2          6           0       -3.426324    2.165565    0.333433
      3          6           0       -2.844654    3.525852   -0.052667
      4          1           0       -1.624185    1.040524   -0.031838
      5          1           0       -2.717250    1.116060   -1.410470
      6          1           0       -3.392790    2.045187    1.423846
      7          1           0       -4.484450    2.120730    0.045379
      8          1           0       -2.892598    3.671688   -1.136657
      9          1           0       -1.794735    3.595716    0.249642
     10          1           0       -3.390360    4.345874    0.424437
     11          6           0       -3.253735   -0.367939    0.057911
     12          6           0       -2.511328   -1.534923   -0.593983
     13          6           0       -3.092998   -2.895209   -0.207883
     14          1           0       -3.220402   -0.485417    1.149920
     15          1           0       -4.313467   -0.409881   -0.228712
     16          1           0       -1.453202   -1.490088   -0.305929
     17          1           0       -2.544862   -1.414544   -1.684396
     18          1           0       -4.142917   -2.965073   -0.510192
     19          1           0       -3.045054   -3.041046    0.876107
     20          1           0       -2.547292   -3.715232   -0.684987
     21          6           0        1.044937   -2.373480    0.567583
     22          6           0        1.225476   -1.428920    1.583327
     23          6           0        1.929919   -0.246795    1.336577
     24          6           0        2.442606   -0.040701    0.056745
     25          6           0        2.279440   -0.962637   -0.976068
     26          6           0        1.571566   -2.137739   -0.706625
     27          1           0        0.496375   -3.289055    0.768079
     28          1           0        0.817599   -1.609338    2.573848
     29          1           0        2.084431    0.501351    2.104576
     30          1           0        2.697735   -0.754739   -1.953424
     31          1           0        1.432903   -2.869524   -1.497389
     32          7           0        3.190184    1.207044   -0.216490
     33          8           0        3.631980    1.364933   -1.352503
     34          8           0        3.320184    2.003513    0.710534
 ---------------------------------------------------------------------

 SCF Done:  E(RHF) =  -669.535054100     A.U. after   15 cycles
 E2 =    -0.2093115073D+01 EUMP2 =    -0.67162816917231D+03

 The electronic state is 1-A.
 Alpha  occ. eigenvalues --  -20.60840 -20.60834 -15.85895 -11.31296 -11.27884
 Alpha  occ. eigenvalues --  -11.27857 -11.27595 -11.26889 -11.26863 -11.21910
 Alpha  occ. eigenvalues --  -11.21746 -11.21691 -11.21681 -11.21514 -11.21013
 Alpha  occ. eigenvalues --   -1.59915  -1.39467  -1.19481  -1.08884  -1.08663
 Alpha  occ. eigenvalues --   -1.04879  -1.03797  -0.96261  -0.95693  -0.87268
 Alpha  occ. eigenvalues --   -0.86274  -0.82519  -0.79862  -0.78464  -0.77558
 Alpha  occ. eigenvalues --   -0.72112  -0.71239  -0.70582  -0.65325  -0.65126
 Alpha  occ. eigenvalues --   -0.64871  -0.62219  -0.61218  -0.59666  -0.57861
 Alpha  occ. eigenvalues --   -0.55589  -0.55329  -0.53296  -0.52965  -0.52942
 Alpha  occ. eigenvalues --   -0.52667  -0.50187  -0.48873  -0.48865  -0.48169
 Alpha  occ. eigenvalues --   -0.46892  -0.46001  -0.45908  -0.44866  -0.44040
 Alpha  occ. eigenvalues --   -0.37347  -0.36485
 Alpha virt. eigenvalues --    0.04954   0.11136   0.16395   0.20656   0.22815
 Alpha virt. eigenvalues --    0.24061   0.26369   0.26891   0.27132   0.27519
 Alpha virt. eigenvalues --    0.29142   0.30865   0.31124   0.31305   0.31978

 Mulliken charges:
               1
     1  C   -0.299187
     2  C   -0.299754
     3  C   -0.476394
     4  H    0.151190
     5  H    0.150483
     6  H    0.150345
     7  H    0.151589
     8  H    0.156069
     9  H    0.158557
    10  H    0.160573
    11  C   -0.296597
    12  C   -0.310429
    13  C   -0.476136
    14  H    0.146244
    15  H    0.150024
    16  H    0.161468
    17  H    0.151741
    18  H    0.159285
    19  H    0.151107
    20  H    0.153394
    21  C   -0.174326
    22  C   -0.217988
    23  C   -0.171532
    24  C    0.158696
    25  C   -0.170357
    26  C   -0.216012
    27  H    0.229009
    28  H    0.224176
    29  H    0.276045
    30  H    0.276239
    31  H    0.224626
    32  N    0.488082
    33  O   -0.459870
    34  O   -0.460359
 Sum of Mulliken charges =  -0.00000

 Dipole moment (field-independent basis, Debye):
    X=             -2.5330    Y=             -4.3248    Z=              0.9371  Tot=              5.0988
 Quadrupole moment (field-independent basis, Debye-Ang):
   XX=           -108.2078   YY=            -95.7508   ZZ=            -89.6334
   XY=            -11.5848   XZ=              2.0525   YZ=              1.4242

 Normal termination of Gaussian 16 at Thu May  6 02:33:45 2021.
