 Gaussian 16, Revision A.03,
 Gaussian 16:  EM64L-G16RevA.03 25-Dec-2016

 -------------
 #p 6-31g* mp2
 -------------

 ------------------------------------------------------
 Input file generated by CHIRIPA (05-May-2021 14:55:20)
 ------------------------------------------------------
 Symbolic Z-matrix:
 Charge =  0 Multiplicity = 1

                         Standard orientation:
 ---------------------------------------------------------------------
 Center     Atomic      Atomic             Coordinates (Angstroms)
 Number     Number       Type             X           Y           Z
 ---------------------------------------------------------------------
      1          6           0       -0.584675   -1.896746    0.835951
      2          6           0       -0.852426   -0.681538    1.474779
      3          6           0       -1.953122    0.092548    1.095559
      4          6           0       -2.768820   -0.380945    0.069044
      5          6           0       -2.528360   -1.587412   -0.586628
      6          6           0       -1.422020   -2.345014   -0.190903
      7          1           0        0.272565   -2.491672    1.136949
      8          1           0       -0.203850   -0.330922    2.272565
      9          1           0       -2.183620    1.037092    1.573183
     10          1           0       -3.192991   -1.910735   -1.378553
     11          1           0       -1.216514   -3.288365   -0.688800
     12          7           0       -3.937065    0.429820   -0.341156
     13          8           0       -4.640416   -0.009437   -1.248342
     14          8           0       -4.127264    1.489202    0.252284
     15          6           0        2.662894    0.927135   -0.504226
     16          6           0        1.826170    1.810221    0.422077
     17          6           0        0.559566    2.339754   -0.251054
     18          1           0        2.934901    1.501171   -1.400574
     19          1           0        2.048967    0.083128   -0.847946
     20          1           0        2.441914    2.651558    0.765045
     21          1           0        1.556283    1.234076    1.316410
     22          1           0       -0.077750    1.511851   -0.578173
     23          1           0        0.812912    2.937386   -1.132672
     24          1           0       -0.023551    2.968584    0.428950
     25          6           0        3.932380    0.390161    0.154402
     26          6           0        4.769105   -0.492926   -0.771900
     27          6           0        6.035708   -1.022459   -0.098770
     28          1           0        4.546306    1.234167    0.498122
     29          1           0        3.660372   -0.183876    1.050749
     30          1           0        5.038990    0.083219   -1.666235
     31          1           0        4.153360   -1.334263   -1.114869
     32          1           0        5.782361   -1.620092    0.782848
     33          1           0        6.673024   -0.194556    0.228349
     34          1           0        6.618826   -1.651290   -0.778774
 ---------------------------------------------------------------------

 SCF Done:  E(RHF) =  -669.534280664     A.U. after   15 cycles
 E2 =    -0.2094072875D+01 EUMP2 =    -0.67162835353847D+03

 The electronic state is 1-A.
 Alpha  occ. eigenvalues --  -20.60801 -20.60795 -15.85857 -11.31253 -11.27835
 Alpha  occ. eigenvalues --  -11.27813 -11.27596 -11.26853 -11.26825 -11.22126
 Alpha  occ. eigenvalues --  -11.22077 -11.21941 -11.21823 -11.21562 -11.21234
 Alpha  occ. eigenvalues --   -1.59876  -1.39428  -1.19451  -1.08935  -1.08821
 Alpha  occ. eigenvalues --   -1.04868  -1.03966  -0.96409  -0.95655  -0.87421
 Alpha  occ. eigenvalues --   -0.86242  -0.82486  -0.80052  -0.78747  -0.77527
 Alpha  occ. eigenvalues --   -0.72074  -0.71202  -0.70546  -0.65617  -0.65092
 Alpha  occ. eigenvalues --   -0.64829  -0.62249  -0.61369  -0.59774  -0.58024
 Alpha  occ. eigenvalues --   -0.55788  -0.55339  -0.53218  -0.53075  -0.52939
 Alpha  occ. eigenvalues --   -0.52740  -0.50310  -0.48839  -0.48826  -0.48343
 Alpha  occ. eigenvalues --   -0.47087  -0.46283  -0.46197  -0.44824  -0.44239
 Alpha  occ. eigenvalues --   -0.37425  -0.36364
 Alpha virt. eigenvalues --    0.04995   0.11121   0.16397   0.20079   0.22779
 Alpha virt. eigenvalues --    0.23947   0.25410   0.26313   0.26880   0.28445
 Alpha virt. eigenvalues --    0.28880   0.29594   0.31078   0.31449   0.32019

 Mulliken charges:
               1
     1  C   -0.172188
     2  C   -0.215491
     3  C   -0.171085
     4  C    0.158982
     5  C   -0.171133
     6  C   -0.218995
     7  H    0.225993
     8  H    0.224960
     9  H    0.276699
    10  H    0.276060
    11  H    0.223842
    12  N    0.488277
    13  O   -0.460358
    14  O   -0.459943
    15  C   -0.299895
    16  C   -0.298173
    17  C   -0.480562
    18  H    0.152797
    19  H    0.149488
    20  H    0.153796
    21  H    0.140015
    22  H    0.162681
    23  H    0.157953
    24  H    0.158895
    25  C   -0.297355
    26  C   -0.299456
    27  C   -0.475641
    28  H    0.151730
    29  H    0.142894
    30  H    0.154541
    31  H    0.149193
    32  H    0.153072
    33  H    0.156887
    34  H    0.161519
 Sum of Mulliken charges =  -0.00000

 Dipole moment (field-independent basis, Debye):
    X=              4.0814    Y=             -2.8255    Z=              1.3672  Tot=              5.1489
 Quadrupole moment (field-independent basis, Debye-Ang):
   XX=           -118.4664   YY=            -90.0667   ZZ=            -92.6731
   XY=              8.2327   XZ=             -3.5452   YZ=              1.7733

 Normal termination of Gaussian 16 at Wed May  5 18:55:59 2021.
