 Gaussian 16, Revision A.03,
 Gaussian 16:  EM64L-G16RevA.03 25-Dec-2016

 -------------
 #p 6-31g* mp2
 -------------

 ------------------------------------------------------
 Input file generated by CHIRIPA (05-May-2021 14:57:27)
 ------------------------------------------------------
 Symbolic Z-matrix:
 Charge =  0 Multiplicity = 1

                         Standard orientation:
 ---------------------------------------------------------------------
 Center     Atomic      Atomic             Coordinates (Angstroms)
 Number     Number       Type             X           Y           Z
 ---------------------------------------------------------------------
      1          6           0       -1.455819    1.602995   -1.397686
      2          6           0       -1.331022    0.220429   -1.226052
      3          6           0       -2.310942   -0.500878   -0.537559
      4          6           0       -3.407461    0.195477   -0.031570
      5          6           0       -3.560252    1.572446   -0.186175
      6          6           0       -2.568074    2.273409   -0.878116
      7          1           0       -0.689832    2.155421   -1.933863
      8          1           0       -0.468307   -0.302851   -1.628477
      9          1           0       -2.239435   -1.571669   -0.390216
     10          1           0       -4.431601    2.066394    0.226358
     11          1           0       -2.667624    3.347080   -1.009893
     12          7           0       -4.451347   -0.557369    0.699132
     13          8           0       -5.407798    0.079492    1.135306
     14          8           0       -4.293327   -1.770055    0.821847
     15          6           0        4.564772    1.594819    1.118387
     16          6           0        4.693378    1.266200   -0.235123
     17          6           0        3.961731    0.207480   -0.781341
     18          6           0        3.106899   -0.504630    0.058571
     19          6           0        2.957031   -0.201539    1.410964
     20          6           0        3.698536    0.861194    1.935670
     21          1           0        5.136962    2.418817    1.534346
     22          1           0        5.365348    1.834202   -0.872207
     23          1           0        4.042115   -0.068385   -1.825781
     24          1           0        2.279167   -0.786090    2.021059
     25          1           0        3.596649    1.114155    2.987180
     26          7           0        2.327119   -1.627574   -0.508299
     27          8           0        1.580775   -2.239460    0.252756
     28          8           0        2.477037   -1.874587   -1.702930
 ---------------------------------------------------------------------

 SCF Done:  E(RHF) =  -868.339052688     A.U. after   16 cycles
 E2 =    -0.2599158548D+01 EUMP2 =    -0.87093821123605D+03

 The electronic state is 1-A.
 Alpha  occ. eigenvalues --  -20.61691 -20.61676 -20.60305 -20.60283 -15.86710
 Alpha  occ. eigenvalues --  -15.85346 -11.31894 -11.30663 -11.28461 -11.28406
 Alpha  occ. eigenvalues --  -11.28138 -11.27418 -11.27372 -11.27292 -11.27122
 Alpha  occ. eigenvalues --  -11.27018 -11.26325 -11.26136  -1.60772  -1.59375
 Alpha  occ. eigenvalues --   -1.40318  -1.38927  -1.20052  -1.18843  -1.09481
 Alpha  occ. eigenvalues --   -1.08263  -1.05417  -1.04216  -0.96341  -0.95096
 Alpha  occ. eigenvalues --   -0.86822  -0.85632  -0.83168  -0.81911  -0.78244
 Alpha  occ. eigenvalues --   -0.76954  -0.72915  -0.72113  -0.71566  -0.71142
 Alpha  occ. eigenvalues --   -0.70699  -0.69967  -0.65696  -0.65406  -0.64490
 Alpha  occ. eigenvalues --   -0.64208  -0.62757  -0.61537  -0.55916  -0.54772
 Alpha  occ. eigenvalues --   -0.53769  -0.53495  -0.52586  -0.52292  -0.49695
 Alpha  occ. eigenvalues --   -0.49670  -0.48329  -0.48314  -0.45755  -0.44342
 Alpha  occ. eigenvalues --   -0.38028  -0.37015  -0.36865  -0.35821
 Alpha virt. eigenvalues --    0.04241   0.05553   0.10639   0.11810   0.15772
 Alpha virt. eigenvalues --    0.17036   0.20834   0.21913   0.26776   0.27476
 Alpha virt. eigenvalues --    0.27949   0.28823   0.30410   0.31400   0.31949

 Mulliken charges:
               1
     1  C   -0.171982
     2  C   -0.225521
     3  C   -0.170125
     4  C    0.157219
     5  C   -0.172350
     6  C   -0.219347
     7  H    0.222248
     8  H    0.233971
     9  H    0.284279
    10  H    0.273358
    11  H    0.219984
    12  N    0.487827
    13  O   -0.463474
    14  O   -0.458135
    15  C   -0.170271
    16  C   -0.219133
    17  C   -0.173348
    18  C    0.155338
    19  C   -0.169755
    20  C   -0.218692
    21  H    0.227888
    22  H    0.224802
    23  H    0.275211
    24  H    0.278757
    25  H    0.226680
    26  N    0.485221
    27  O   -0.457750
    28  O   -0.462900
 Sum of Mulliken charges =  -0.00000

 Dipole moment (field-independent basis, Debye):
    X=              6.6777    Y=              6.4746    Z=             -0.4574  Tot=              9.3125
 Quadrupole moment (field-independent basis, Debye-Ang):
   XX=           -111.8583   YY=           -104.9738   ZZ=           -101.0850
   XY=              1.3191   XZ=             12.9879   YZ=             -1.4061

 Normal termination of Gaussian 16 at Wed May  5 21:15:59 2021.
