 Gaussian 16, Revision A.03,
 Gaussian 16:  EM64L-G16RevA.03 25-Dec-2016

 -------------
 #p 6-31g* mp2
 -------------

 ------------------------------------------------------
 Input file generated by CHIRIPA (05-May-2021 14:57:24)
 ------------------------------------------------------
 Symbolic Z-matrix:
 Charge =  0 Multiplicity = 1

                         Standard orientation:
 ---------------------------------------------------------------------
 Center     Atomic      Atomic             Coordinates (Angstroms)
 Number     Number       Type             X           Y           Z
 ---------------------------------------------------------------------
      1          6           0        2.413413    2.715135    0.217966
      2          6           0        1.448813    1.727851    0.444544
      3          6           0        1.759797    0.376769    0.264500
      4          6           0        3.051013    0.047125   -0.144630
      5          6           0        4.033913    1.007613   -0.378424
      6          6           0        3.700615    2.352505   -0.192072
      7          1           0        2.163166    3.762283    0.360279
      8          1           0        0.448346    2.006547    0.763040
      9          1           0        1.032312   -0.407996    0.432806
     10          1           0        5.022706    0.698947   -0.695334
     11          1           0        4.451756    3.117100   -0.368780
     12          7           0        3.392049   -1.379928   -0.338574
     13          8           0        4.536806   -1.644301   -0.699511
     14          8           0        2.508139   -2.207057   -0.125978
     15          6           0       -1.275429   -1.777627    1.196051
     16          6           0       -1.888283   -2.167310    0.000610
     17          6           0       -2.842310   -1.346756   -0.608544
     18          6           0       -3.161028   -0.137759    0.007928
     19          6           0       -2.567954    0.278267    1.198925
     20          6           0       -1.616619   -0.558232    1.790345
     21          1           0       -0.535363   -2.421247    1.662369
     22          1           0       -1.625273   -3.113761   -0.463179
     23          1           0       -3.332227   -1.623926   -1.534058
     24          1           0       -2.850813    1.227505    1.637510
     25          1           0       -1.142289   -0.253030    2.718735
     26          7           0       -4.169590    0.739364   -0.627569
     27          8           0       -4.432924    1.799622   -0.064411
     28          8           0       -4.677669    0.349990   -1.676797
 ---------------------------------------------------------------------

 SCF Done:  E(RHF) =  -868.338970225     A.U. after   16 cycles
 E2 =    -0.2601877248D+01 EUMP2 =    -0.87094084747365D+03

 The electronic state is 1-A.
 Alpha  occ. eigenvalues --  -20.61319 -20.61268 -20.61215 -20.61194 -15.86339
 Alpha  occ. eigenvalues --  -15.86263 -11.31701 -11.31480 -11.28341 -11.28178
 Alpha  occ. eigenvalues --  -11.28046 -11.27936 -11.27846 -11.27750 -11.27339
 Alpha  occ. eigenvalues --  -11.27124 -11.27015 -11.26985  -1.60364  -1.60282
 Alpha  occ. eigenvalues --   -1.39929  -1.39834  -1.19879  -1.19644  -1.09234
 Alpha  occ. eigenvalues --   -1.09084  -1.05280  -1.05006  -0.96068  -0.95934
 Alpha  occ. eigenvalues --   -0.86638  -0.86427  -0.82880  -0.82783  -0.77957
 Alpha  occ. eigenvalues --   -0.77849  -0.72577  -0.72472  -0.71678  -0.71610
 Alpha  occ. eigenvalues --   -0.70905  -0.70724  -0.65501  -0.65302  -0.65206
 Alpha  occ. eigenvalues --   -0.65017  -0.62608  -0.62391  -0.55642  -0.55558
 Alpha  occ. eigenvalues --   -0.53635  -0.53375  -0.53298  -0.53009  -0.49335
 Alpha  occ. eigenvalues --   -0.49292  -0.49237  -0.49227  -0.45382  -0.45224
 Alpha  occ. eigenvalues --   -0.37802  -0.37627  -0.36910  -0.36605
 Alpha virt. eigenvalues --    0.04527   0.04642   0.10698   0.11049   0.15910
 Alpha virt. eigenvalues --    0.16199   0.20512   0.21823   0.26245   0.27524
 Alpha virt. eigenvalues --    0.27885   0.28646   0.30630   0.31205   0.32079

 Mulliken charges:
               1
     1  C   -0.169560
     2  C   -0.225569
     3  C   -0.178844
     4  C    0.156218
     5  C   -0.169604
     6  C   -0.219299
     7  H    0.227735
     8  H    0.223001
     9  H    0.285079
    10  H    0.275816
    11  H    0.224642
    12  N    0.488292
    13  O   -0.457412
    14  O   -0.469784
    15  C   -0.185287
    16  C   -0.214435
    17  C   -0.170789
    18  C    0.159745
    19  C   -0.177012
    20  C   -0.226625
    21  H    0.241899
    22  H    0.234201
    23  H    0.278672
    24  H    0.274233
    25  H    0.225739
    26  N    0.488035
    27  O   -0.461741
    28  O   -0.457345
 Sum of Mulliken charges =  -0.00000

 Dipole moment (field-independent basis, Debye):
    X=              2.2269    Y=              1.7481    Z=              2.8179  Tot=              3.9944
 Quadrupole moment (field-independent basis, Debye-Ang):
   XX=           -130.7017   YY=           -101.1467   ZZ=           -102.9710
   XY=             27.2242   XZ=             -5.6287   YZ=              1.2827

 Normal termination of Gaussian 16 at Fri May  7 11:05:13 2021.
