 Gaussian 16, Revision A.03,
 Gaussian 16:  EM64L-G16RevA.03 25-Dec-2016

 -------------
 #p 6-31g* mp2
 -------------

 ------------------------------------------------------
 Input file generated by CHIRIPA (05-May-2021 14:57:21)
 ------------------------------------------------------
 Symbolic Z-matrix:
 Charge =  0 Multiplicity = 1

                         Standard orientation:
 ---------------------------------------------------------------------
 Center     Atomic      Atomic             Coordinates (Angstroms)
 Number     Number       Type             X           Y           Z
 ---------------------------------------------------------------------
      1          6           0       -1.973219    2.718750   -0.101839
      2          6           0       -3.326516    2.477353    0.156687
      3          6           0       -3.832227    1.174166    0.134134
      4          6           0       -2.952467    0.131306   -0.151796
      5          6           0       -1.599186    0.339620   -0.413568
      6          6           0       -1.115386    1.650996   -0.385641
      7          1           0       -1.588881    3.734277   -0.082232
      8          1           0       -3.995041    3.304645    0.377385
      9          1           0       -4.875530    0.958876    0.330573
     10          1           0       -0.957209   -0.505502   -0.630481
     11          1           0       -0.063939    1.835490   -0.586804
     12          7           0       -3.476243   -1.252654   -0.178516
     13          8           0       -2.680539   -2.154161   -0.433029
     14          8           0       -4.672565   -1.409689    0.055559
     15          6           0        4.286273    1.685380   -0.262529
     16          6           0        3.474110    1.613547    0.874025
     17          6           0        2.683094    0.485475    1.111291
     18          6           0        2.728850   -0.557081    0.187021
     19          6           0        3.527708   -0.515281   -0.954631
     20          6           0        4.310437    0.622610   -1.171625
     21          1           0        4.897534    2.565507   -0.438969
     22          1           0        3.453338    2.437399    1.581754
     23          1           0        2.045237    0.403597    1.982987
     24          1           0        3.527284   -1.352431   -1.642088
     25          1           0        4.940219    0.675643   -2.055145
     26          7           0        1.895823   -1.756518    0.427474
     27          8           0        1.953974   -2.661592   -0.402041
     28          8           0        1.200519   -1.768849    1.440903
 ---------------------------------------------------------------------

 SCF Done:  E(RHF) =  -868.336487002     A.U. after   16 cycles
 E2 =    -0.2601190483D+01 EUMP2 =    -0.87093767748575D+03

 The electronic state is 1-A.
 Alpha  occ. eigenvalues --  -20.61161 -20.61154 -20.60115 -20.60046 -15.86214
 Alpha  occ. eigenvalues --  -15.85142 -11.31813 -11.30734 -11.28407 -11.28357
 Alpha  occ. eigenvalues --  -11.28142 -11.27449 -11.27390 -11.27370 -11.27318
 Alpha  occ. eigenvalues --  -11.27202 -11.26445 -11.26420  -1.60244  -1.59158
 Alpha  occ. eigenvalues --   -1.39782  -1.38700  -1.20003  -1.18949  -1.09346
 Alpha  occ. eigenvalues --   -1.08315  -1.05412  -1.04392  -0.96134  -0.95105
 Alpha  occ. eigenvalues --   -0.86789  -0.85780  -0.82945  -0.81934  -0.77968
 Alpha  occ. eigenvalues --   -0.76927  -0.72397  -0.71646  -0.71345  -0.71055
 Alpha  occ. eigenvalues --   -0.70485  -0.70069  -0.65621  -0.65379  -0.64606
 Alpha  occ. eigenvalues --   -0.64413  -0.62730  -0.61728  -0.55875  -0.54929
 Alpha  occ. eigenvalues --   -0.53782  -0.53473  -0.52707  -0.52470  -0.49174
 Alpha  occ. eigenvalues --   -0.49153  -0.48149  -0.48092  -0.45120  -0.44054
 Alpha  occ. eigenvalues --   -0.38003  -0.37069  -0.36944  -0.35982
 Alpha virt. eigenvalues --    0.04524   0.05617   0.10593   0.11657   0.15988
 Alpha virt. eigenvalues --    0.17037   0.20843   0.21549   0.26766   0.27118
 Alpha virt. eigenvalues --    0.27805   0.28419   0.30443   0.31080   0.32036

 Mulliken charges:
               1
     1  C   -0.171987
     2  C   -0.218969
     3  C   -0.170817
     4  C    0.157773
     5  C   -0.167405
     6  C   -0.223527
     7  H    0.221038
     8  H    0.221237
     9  H    0.275134
    10  H    0.280831
    11  H    0.220852
    12  N    0.487240
    13  O   -0.450704
    14  O   -0.464328
    15  C   -0.172050
    16  C   -0.221989
    17  C   -0.175499
    18  C    0.152376
    19  C   -0.171602
    20  C   -0.218882
    21  H    0.227176
    22  H    0.224470
    23  H    0.278809
    24  H    0.279074
    25  H    0.226072
    26  N    0.484347
    27  O   -0.453619
    28  O   -0.455052
 Sum of Mulliken charges =  -0.00000

 Dipole moment (field-independent basis, Debye):
    X=              4.9523    Y=              8.7755    Z=             -0.7422  Tot=             10.1037
 Quadrupole moment (field-independent basis, Debye-Ang):
   XX=            -95.5068   YY=           -107.9469   ZZ=           -102.2860
   XY=             -6.5742   XZ=             -5.3567   YZ=              3.0383

 Normal termination of Gaussian 16 at Wed May  5 17:43:10 2021.
