 Gaussian 16, Revision A.03,
 Gaussian 16:  EM64L-G16RevA.03 25-Dec-2016

 -------------
 #p 6-31g* mp2
 -------------

 ------------------------------------------------------
 Input file generated by CHIRIPA (05-May-2021 14:55:20)
 ------------------------------------------------------
 Symbolic Z-matrix:
 Charge =  0 Multiplicity = 1

                         Standard orientation:
 ---------------------------------------------------------------------
 Center     Atomic      Atomic             Coordinates (Angstroms)
 Number     Number       Type             X           Y           Z
 ---------------------------------------------------------------------
      1          6           0       -4.228489    0.591420   -0.952208
      2          6           0       -3.556821    1.299707    0.049647
      3          6           0       -2.453214    0.737753    0.698344
      4          6           0       -2.046515   -0.540338    0.318385
      5          6           0       -2.694923   -1.271161   -0.675977
      6          6           0       -3.796158   -0.689495   -1.311189
      7          1           0       -5.084876    1.035615   -1.450893
      8          1           0       -3.890350    2.294657    0.330498
      9          1           0       -1.914886    1.263905    1.477308
     10          1           0       -2.339013   -2.261140   -0.934214
     11          1           0       -4.315861   -1.241886   -2.088890
     12          7           0       -0.879431   -1.145687    0.997993
     13          8           0       -0.540911   -2.273237    0.644904
     14          8           0       -0.325290   -0.481148    1.870892
     15          6           0        2.880586   -0.167648   -0.045052
     16          6           0        3.865888   -1.020368   -0.845072
     17          6           0        3.884141   -2.481509   -0.395044
     18          1           0        3.140609   -0.221238    1.020997
     19          1           0        1.873030   -0.595028   -0.142896
     20          1           0        4.871058   -0.590709   -0.746874
     21          1           0        3.603604   -0.964588   -1.909361
     22          1           0        2.892973   -2.932209   -0.509310
     23          1           0        4.167629   -2.556207    0.659782
     24          1           0        4.595266   -3.072946   -0.980162
     25          6           0        2.850908    1.295504   -0.483272
     26          6           0        1.865606    2.148225    0.316747
     27          6           0        1.847352    3.609366   -0.133282
     28          1           0        3.858463    1.722884   -0.385428
     29          1           0        2.590884    1.349094   -1.549321
     30          1           0        2.127889    2.092444    1.381037
     31          1           0        0.860436    1.718566    0.218549
     32          1           0        1.563865    3.684063   -1.188108
     33          1           0        2.838520    4.060065   -0.019015
     34          1           0        1.136227    4.200803    0.451836
 ---------------------------------------------------------------------

 SCF Done:  E(RHF) =  -669.536005581     A.U. after   15 cycles
 E2 =    -0.2093299886D+01 EUMP2 =    -0.67162930546782D+03

 The electronic state is 1-A.
 Alpha  occ. eigenvalues --  -20.61018 -20.60997 -15.85995 -11.31336 -11.27891
 Alpha  occ. eigenvalues --  -11.27885 -11.27624 -11.26897 -11.26885 -11.20861
 Alpha  occ. eigenvalues --  -11.20663 -11.20591 -11.20570 -11.20153 -11.19910
 Alpha  occ. eigenvalues --   -1.60053  -1.39606  -1.19500  -1.08903  -1.07503
 Alpha  occ. eigenvalues --   -1.04891  -1.02674  -0.95744  -0.95127  -0.86292
 Alpha  occ. eigenvalues --   -0.86137  -0.82579  -0.78746  -0.77635  -0.77253
 Alpha  occ. eigenvalues --   -0.72226  -0.71373  -0.70601  -0.65152  -0.64891
 Alpha  occ. eigenvalues --   -0.64145  -0.62237  -0.60088  -0.58525  -0.56720
 Alpha  occ. eigenvalues --   -0.55394  -0.54421  -0.53223  -0.52979  -0.51867
 Alpha  occ. eigenvalues --   -0.51530  -0.49123  -0.49007  -0.48939  -0.47061
 Alpha  occ. eigenvalues --   -0.45858  -0.45093  -0.44725  -0.44530  -0.42904
 Alpha  occ. eigenvalues --   -0.37473  -0.36486
 Alpha virt. eigenvalues --    0.04854   0.11080   0.16332   0.21227   0.23614
 Alpha virt. eigenvalues --    0.25011   0.26857   0.27399   0.27864   0.28627
 Alpha virt. eigenvalues --    0.28910   0.31017   0.31585   0.32244   0.32522

 Mulliken charges:
               1
     1  C   -0.170500
     2  C   -0.218666
     3  C   -0.171554
     4  C    0.158280
     5  C   -0.171061
     6  C   -0.218457
     7  H    0.226248
     8  H    0.224305
     9  H    0.277145
    10  H    0.275799
    11  H    0.224019
    12  N    0.485939
    13  O   -0.459512
    14  O   -0.455074
    15  C   -0.297012
    16  C   -0.299415
    17  C   -0.476490
    18  H    0.155785
    19  H    0.156887
    20  H    0.147264
    21  H    0.146237
    22  H    0.165322
    23  H    0.156231
    24  H    0.153534
    25  C   -0.299572
    26  C   -0.297010
    27  C   -0.475253
    28  H    0.146432
    29  H    0.144027
    30  H    0.157404
    31  H    0.148179
    32  H    0.151592
    33  H    0.154803
    34  H    0.154144
 Sum of Mulliken charges =  -0.00000

 Dipole moment (field-independent basis, Debye):
    X=             -4.3295    Y=              1.9564    Z=             -2.2029  Tot=              5.2369
 Quadrupole moment (field-independent basis, Debye-Ang):
   XX=            -78.4974   YY=            -95.6415   ZZ=            -94.8788
   XY=             -1.6480   XZ=              5.1597   YZ=              5.0799

 Normal termination of Gaussian 16 at Thu May  6 19:06:49 2021.
