 Gaussian 16, Revision A.03,
 Gaussian 16:  EM64L-G16RevA.03 25-Dec-2016

 -------------
 #p 6-31g* mp2
 -------------

 ------------------------------------------------------
 Input file generated by CHIRIPA (05-May-2021 14:55:20)
 ------------------------------------------------------
 Symbolic Z-matrix:
 Charge =  0 Multiplicity = 1

                         Standard orientation:
 ---------------------------------------------------------------------
 Center     Atomic      Atomic             Coordinates (Angstroms)
 Number     Number       Type             X           Y           Z
 ---------------------------------------------------------------------
      1          6           0        1.099438   -1.667748   -0.494685
      2          6           0        1.121621   -0.276659   -0.639258
      3          6           0        2.295370    0.443596   -0.398234
      4          6           0        3.433734   -0.262488   -0.012407
      5          6           0        3.443335   -1.648095    0.140211
      6          6           0        2.258322   -2.347827   -0.106097
      7          1           0        0.183266   -2.219288   -0.683971
      8          1           0        0.223120    0.254135   -0.940917
      9          1           0        2.340518    1.520857   -0.502590
     10          1           0        4.354853   -2.149437    0.442219
     11          1           0        2.244026   -3.428130    0.006973
     12          7           0        4.682292    0.489151    0.245551
     13          8           0        5.671813   -0.156364    0.584367
     14          8           0        4.647750    1.709568    0.104038
     15          6           0       -3.931695    1.218599    0.208681
     16          6           0       -2.531379    1.567838   -0.296425
     17          6           0       -2.145473    3.019764   -0.012205
     18          1           0       -4.662190    1.892130   -0.260015
     19          1           0       -3.981484    1.407253    1.290035
     20          1           0       -2.483830    1.377269   -1.376257
     21          1           0       -1.804154    0.893270    0.173383
     22          1           0       -2.164891    3.219942    1.063970
     23          1           0       -2.848430    3.706690   -0.494475
     24          1           0       -1.140796    3.247820   -0.381631
     25          6           0       -4.331875   -0.229499   -0.068081
     26          6           0       -5.732192   -0.578738    0.437025
     27          6           0       -6.118097   -2.030664    0.152806
     28          1           0       -4.282086   -0.418154   -1.149435
     29          1           0       -3.601380   -0.903031    0.400615
     30          1           0       -6.459416    0.095829   -0.032782
     31          1           0       -5.779739   -0.388169    1.516857
     32          1           0       -5.415140   -2.717590    0.635076
     33          1           0       -6.098678   -2.230843   -0.923369
     34          1           0       -7.122774   -2.258721    0.522231
 ---------------------------------------------------------------------

 SCF Done:  E(RHF) =  -669.535575135     A.U. after   15 cycles
 E2 =    -0.2091303963D+01 EUMP2 =    -0.67162687909893D+03

 The electronic state is 1-A.
 Alpha  occ. eigenvalues --  -20.60730 -20.60725 -15.85782 -11.31141 -11.27712
 Alpha  occ. eigenvalues --  -11.27697 -11.27442 -11.26726 -11.26651 -11.22640
 Alpha  occ. eigenvalues --  -11.22262 -11.22214 -11.22159 -11.21898 -11.21676
 Alpha  occ. eigenvalues --   -1.59805  -1.39359  -1.19310  -1.09251  -1.08705
 Alpha  occ. eigenvalues --   -1.04712  -1.04325  -0.96743  -0.95543  -0.87756
 Alpha  occ. eigenvalues --   -0.86110  -0.82376  -0.80426  -0.79083  -0.77417
 Alpha  occ. eigenvalues --   -0.72001  -0.71128  -0.70418  -0.65883  -0.64959
 Alpha  occ. eigenvalues --   -0.64719  -0.62112  -0.61679  -0.60116  -0.58371
 Alpha  occ. eigenvalues --   -0.56007  -0.55206  -0.53442  -0.53172  -0.53042
 Alpha  occ. eigenvalues --   -0.52805  -0.50668  -0.48814  -0.48757  -0.48649
 Alpha  occ. eigenvalues --   -0.47436  -0.46595  -0.46516  -0.44766  -0.44576
 Alpha  occ. eigenvalues --   -0.37290  -0.36308
 Alpha virt. eigenvalues --    0.05108   0.11255   0.16578   0.20137   0.22373
 Alpha virt. eigenvalues --    0.23565   0.25687   0.25714   0.26449   0.28485
 Alpha virt. eigenvalues --    0.28971   0.30249   0.30636   0.31155   0.32523

 Mulliken charges:
               1
     1  C   -0.173385
     2  C   -0.225255
     3  C   -0.172879
     4  C    0.158780
     5  C   -0.171209
     6  C   -0.218400
     7  H    0.226014
     8  H    0.235149
     9  H    0.275348
    10  H    0.275401
    11  H    0.223138
    12  N    0.488078
    13  O   -0.460635
    14  O   -0.460501
    15  C   -0.297527
    16  C   -0.308358
    17  C   -0.475450
    18  H    0.153110
    19  H    0.153055
    20  H    0.149865
    21  H    0.148719
    22  H    0.160113
    23  H    0.159682
    24  H    0.157484
    25  C   -0.298812
    26  C   -0.300172
    27  C   -0.476122
    28  H    0.148755
    29  H    0.145863
    30  H    0.154044
    31  H    0.153902
    32  H    0.154116
    33  H    0.155232
    34  H    0.162854
 Sum of Mulliken charges =  -0.00000

 Dipole moment (field-independent basis, Debye):
    X=             -4.6253    Y=             -2.5746    Z=             -0.8616  Tot=              5.3632
 Quadrupole moment (field-independent basis, Debye-Ang):
   XX=           -123.5974   YY=            -90.5066   ZZ=            -94.5485
   XY=            -11.1047   XZ=             -2.3354   YZ=             -1.1360

 Normal termination of Gaussian 16 at Thu May  6 17:28:25 2021.
