 Gaussian 16, Revision A.03,
 Gaussian 16:  EM64L-G16RevA.03 25-Dec-2016

 -------------
 #p 6-31g* mp2
 -------------

 ------------------------------------------------------
 Input file generated by CHIRIPA (05-May-2021 14:55:20)
 ------------------------------------------------------
 Symbolic Z-matrix:
 Charge =  0 Multiplicity = 1

                         Standard orientation:
 ---------------------------------------------------------------------
 Center     Atomic      Atomic             Coordinates (Angstroms)
 Number     Number       Type             X           Y           Z
 ---------------------------------------------------------------------
      1          6           0       -5.794183   -1.051065    0.230945
      2          6           0       -4.704602   -1.676516    0.845880
      3          6           0       -3.410338   -1.175550    0.677172
      4          6           0       -3.241205   -0.042253   -0.116756
      5          6           0       -4.306581    0.603227   -0.742551
      6          6           0       -5.592051    0.084808   -0.559914
      7          1           0       -6.796182   -1.447006    0.367411
      8          1           0       -4.858596   -2.558798    1.460624
      9          1           0       -2.548996   -1.640053    1.141657
     10          1           0       -4.121636    1.481170   -1.349534
     11          1           0       -6.436366    0.572606   -1.038694
     12          7           0       -1.875681    0.497335   -0.302732
     13          8           0       -1.753216    1.497087   -1.007101
     14          8           0       -0.953705   -0.089704    0.259390
     15          6           0        5.156413   -0.080675    0.171949
     16          6           0        5.416117   -1.381085   -0.589283
     17          6           0        6.860148   -1.865699   -0.456186
     18          1           0        5.840680    0.695615   -0.196963
     19          1           0        5.397356   -0.230960    1.233437
     20          1           0        5.173439   -1.228795   -1.648779
     21          1           0        4.731019   -2.154317   -0.218649
     22          1           0        7.110933   -2.045363    0.594257
     23          1           0        7.555866   -1.114581   -0.843999
     24          1           0        7.023687   -2.796600   -1.008036
     25          6           0        3.717214    0.416506    0.048480
     26          6           0        3.457511    1.716916    0.809711
     27          6           0        2.013478    2.201530    0.676614
     28          1           0        3.476271    0.566791   -1.013008
     29          1           0        3.032946   -0.359784    0.417392
     30          1           0        4.142608    2.490148    0.439077
     31          1           0        3.700188    1.564626    1.869207
     32          1           0        1.317760    1.450412    1.064428
     33          1           0        1.762693    2.381194   -0.373828
     34          1           0        1.849939    3.132431    1.228464
 ---------------------------------------------------------------------

 SCF Done:  E(RHF) =  -669.536143603     A.U. after   15 cycles
 E2 =    -0.2091119147D+01 EUMP2 =    -0.67162726274955D+03

 The electronic state is 1-A.
 Alpha  occ. eigenvalues --  -20.60951 -20.60946 -15.85978 -11.31303 -11.27866
 Alpha  occ. eigenvalues --  -11.27861 -11.27602 -11.26872 -11.26862 -11.20810
 Alpha  occ. eigenvalues --  -11.20443 -11.20416 -11.20194 -11.20069 -11.19075
 Alpha  occ. eigenvalues --   -1.60001  -1.39559  -1.19469  -1.08873  -1.07311
 Alpha  occ. eigenvalues --   -1.04866  -1.02348  -0.95715  -0.94766  -0.86266
 Alpha  occ. eigenvalues --   -0.85772  -0.82549  -0.78456  -0.77601  -0.77053
 Alpha  occ. eigenvalues --   -0.72197  -0.71315  -0.70578  -0.65125  -0.64869
 Alpha  occ. eigenvalues --   -0.63956  -0.62214  -0.59753  -0.58230  -0.56372
 Alpha  occ. eigenvalues --   -0.55369  -0.54050  -0.53197  -0.52958  -0.51491
 Alpha  occ. eigenvalues --   -0.51190  -0.49057  -0.48944  -0.48589  -0.46685
 Alpha  occ. eigenvalues --   -0.45514  -0.44965  -0.44571  -0.44474  -0.42618
 Alpha  occ. eigenvalues --   -0.37448  -0.36467
 Alpha virt. eigenvalues --    0.04918   0.11188   0.16413   0.21323   0.23893
 Alpha virt. eigenvalues --    0.25556   0.27239   0.27740   0.28195   0.28579
 Alpha virt. eigenvalues --    0.29346   0.30896   0.32372   0.32664   0.32747

 Mulliken charges:
               1
     1  C   -0.170590
     2  C   -0.218533
     3  C   -0.170771
     4  C    0.158225
     5  C   -0.170683
     6  C   -0.218571
     7  H    0.226010
     8  H    0.223804
     9  H    0.275536
    10  H    0.275938
    11  H    0.223860
    12  N    0.489154
    13  O   -0.458341
    14  O   -0.460124
    15  C   -0.297498
    16  C   -0.298655
    17  C   -0.474995
    18  H    0.147029
    19  H    0.146629
    20  H    0.151488
    21  H    0.151248
    22  H    0.153659
    23  H    0.154035
    24  H    0.157655
    25  C   -0.297150
    26  C   -0.299970
    27  C   -0.480158
    28  H    0.150163
    29  H    0.154639
    30  H    0.145587
    31  H    0.145540
    32  H    0.175911
    33  H    0.160636
    34  H    0.149292
 Sum of Mulliken charges =  -0.00000

 Dipole moment (field-independent basis, Debye):
    X=             -5.2351    Y=             -1.9519    Z=              0.5957  Tot=              5.6188
 Quadrupole moment (field-independent basis, Debye-Ang):
   XX=            -65.9491   YY=            -92.7450   ZZ=            -93.2546
   XY=              5.4156   XZ=             -0.7511   YZ=             -3.0466

 Normal termination of Gaussian 16 at Thu May  6 10:50:11 2021.
