 Gaussian 16, Revision A.03,
 Gaussian 16:  EM64L-G16RevA.03 25-Dec-2016

 -------------
 #p 6-31g* mp2
 -------------

 ------------------------------------------------------
 Input file generated by CHIRIPA (05-May-2021 14:57:23)
 ------------------------------------------------------
 Symbolic Z-matrix:
 Charge =  0 Multiplicity = 1

                         Standard orientation:
 ---------------------------------------------------------------------
 Center     Atomic      Atomic             Coordinates (Angstroms)
 Number     Number       Type             X           Y           Z
 ---------------------------------------------------------------------
      1          6           0       -5.181509    0.681955    0.573455
      2          6           0       -4.120083    1.591965    0.531287
      3          6           0       -2.860139    1.192608    0.075652
      4          6           0       -2.696243   -0.130352   -0.332027
      5          6           0       -3.734113   -1.060517   -0.301855
      6          6           0       -4.985482   -0.639053    0.157483
      7          1           0       -6.156933    1.000772    0.928842
      8          1           0       -4.269415    2.618507    0.853711
      9          1           0       -2.021076    1.876373    0.032558
     10          1           0       -3.554639   -2.077190   -0.629855
     11          1           0       -5.807981   -1.347952    0.189137
     12          7           0       -1.366936   -0.564836   -0.816348
     13          8           0       -1.248388   -1.735967   -1.169949
     14          8           0       -0.468743    0.273975   -0.833186
     15          6           0        3.151427    2.503030   -0.327145
     16          6           0        3.749295    1.531001   -1.135993
     17          6           0        3.625050    0.173746   -0.824591
     18          6           0        2.892504   -0.177560    0.308215
     19          6           0        2.285162    0.767349    1.133789
     20          6           0        2.422554    2.118779    0.803171
     21          1           0        3.253051    3.555116   -0.576513
     22          1           0        4.315935    1.826499   -2.014427
     23          1           0        4.077600   -0.599543   -1.433392
     24          1           0        1.726497    0.442053    2.002980
     25          1           0        1.957163    2.871492    1.433155
     26          7           0        2.754012   -1.611341    0.648053
     27          8           0        2.103412   -1.894899    1.651523
     28          8           0        3.298685   -2.424433   -0.095486
 ---------------------------------------------------------------------

 SCF Done:  E(RHF) =  -868.337301563     A.U. after   16 cycles
 E2 =    -0.2600838540D+01 EUMP2 =    -0.87093814010371D+03

 The electronic state is 1-A.
 Alpha  occ. eigenvalues --  -20.60792 -20.60748 -20.59513 -20.59490 -15.85800
 Alpha  occ. eigenvalues --  -15.84560 -11.31221 -11.29854 -11.27842 -11.27754
 Alpha  occ. eigenvalues --  -11.27546 -11.26853 -11.26790 -11.26535 -11.26488
 Alpha  occ. eigenvalues --  -11.26348 -11.25601 -11.25552  -1.59836  -1.58559
 Alpha  occ. eigenvalues --   -1.39390  -1.38127  -1.19398  -1.18063  -1.08784
 Alpha  occ. eigenvalues --   -1.07499  -1.04812  -1.03525  -0.95613  -0.94347
 Alpha  occ. eigenvalues --   -0.86207  -0.84949  -0.82445  -0.81217  -0.77488
 Alpha  occ. eigenvalues --   -0.76239  -0.72037  -0.71158  -0.70815  -0.70510
 Alpha  occ. eigenvalues --   -0.69821  -0.69301  -0.65053  -0.64819  -0.63790
 Alpha  occ. eigenvalues --   -0.63617  -0.62163  -0.60926  -0.55311  -0.54116
 Alpha  occ. eigenvalues --   -0.53135  -0.52909  -0.51777  -0.51695  -0.48803
 Alpha  occ. eigenvalues --   -0.48763  -0.47558  -0.47549  -0.44787  -0.43556
 Alpha  occ. eigenvalues --   -0.37380  -0.36418  -0.36011  -0.35049
 Alpha virt. eigenvalues --    0.05037   0.06371   0.11237   0.12566   0.16546
 Alpha virt. eigenvalues --    0.17822   0.21342   0.22375   0.27215   0.28049
 Alpha virt. eigenvalues --    0.28432   0.29293   0.30900   0.31816   0.32508

 Mulliken charges:
               1
     1  C   -0.170812
     2  C   -0.218313
     3  C   -0.171884
     4  C    0.159581
     5  C   -0.169666
     6  C   -0.218342
     7  H    0.225571
     8  H    0.221639
     9  H    0.271182
    10  H    0.278259
    11  H    0.224462
    12  N    0.489514
    13  O   -0.453339
    14  O   -0.466634
    15  C   -0.169658
    16  C   -0.217632
    17  C   -0.166550
    18  C    0.172248
    19  C   -0.157992
    20  C   -0.217326
    21  H    0.218940
    22  H    0.218452
    23  H    0.273156
    24  H    0.268617
    25  H    0.213655
    26  N    0.490609
    27  O   -0.466139
    28  O   -0.461597
 Sum of Mulliken charges =  -0.00000

 Dipole moment (field-independent basis, Debye):
    X=             -4.4079    Y=              6.3034    Z=              0.3826  Tot=              7.7012
 Quadrupole moment (field-independent basis, Debye-Ang):
   XX=            -76.1659   YY=           -103.6940   ZZ=           -104.7756
   XY=             12.0589   XZ=             -8.9342   YZ=              3.1014

 Normal termination of Gaussian 16 at Thu May  6 06:38:42 2021.
