 Gaussian 16, Revision A.03,
 Gaussian 16:  EM64L-G16RevA.03 25-Dec-2016

 -------------
 #p 6-31g* mp2
 -------------

 ------------------------------------------------------
 Input file generated by CHIRIPA (05-May-2021 14:53:17)
 ------------------------------------------------------
 Symbolic Z-matrix:
 Charge =  0 Multiplicity = 1

                         Standard orientation:
 ---------------------------------------------------------------------
 Center     Atomic      Atomic             Coordinates (Angstroms)
 Number     Number       Type             X           Y           Z
 ---------------------------------------------------------------------
      1          6           0        2.582145    0.741353   -0.348251
      2          6           0        3.419656    1.729358    0.464402
      3          6           0        3.087061    3.187513    0.146661
      4          1           0        2.740444    0.930132   -1.418881
      5          1           0        1.516902    0.926509   -0.152369
      6          1           0        4.483041    1.541486    0.268107
      7          1           0        3.259492    1.538080    1.533222
      8          1           0        2.034019    3.397753    0.359976
      9          1           0        3.264520    3.401179   -0.912327
     10          1           0        3.697299    3.876681    0.738705
     11          6           0        2.903132   -0.720409   -0.041746
     12          6           0        2.065622   -1.708415   -0.854400
     13          6           0        2.398217   -3.166569   -0.536658
     14          1           0        3.968375   -0.905565   -0.237629
     15          1           0        2.744834   -0.909188    1.028884
     16          1           0        2.225785   -1.517136   -1.923220
     17          1           0        1.002236   -1.520543   -0.658104
     18          1           0        2.220758   -3.380235    0.522330
     19          1           0        3.451258   -3.376810   -0.749974
     20          1           0        1.787978   -3.855737   -1.128703
     21          6           0       -2.775793    2.303532   -0.635745
     22          6           0       -2.995287    1.197332   -1.463190
     23          6           0       -2.648407   -0.088160   -1.036889
     24          6           0       -2.081480   -0.231669    0.228532
     25          6           0       -1.850292    0.850734    1.076026
     26          6           0       -2.205003    2.127014    0.628992
     27          1           0       -3.048300    3.298555   -0.974959
     28          1           0       -3.438407    1.331425   -2.445895
     29          1           0       -2.807301   -0.961953   -1.657095
     30          1           0       -1.406848    0.685525    2.050439
     31          1           0       -2.033386    2.984278    1.273732
     32          7           0       -1.710109   -1.587685    0.690813
     33          8           0       -1.212098   -1.687491    1.810036
     34          8           0       -1.924071   -2.525049   -0.074829
 ---------------------------------------------------------------------

 SCF Done:  E(RHF) =  -669.536031491     A.U. after   15 cycles
 E2 =    -0.2092532071D+01 EUMP2 =    -0.67162856356281D+03

 The electronic state is 1-A.
 Alpha  occ. eigenvalues --  -20.60900 -20.60891 -15.85938 -11.31298 -11.27874
 Alpha  occ. eigenvalues --  -11.27845 -11.27586 -11.26873 -11.26849 -11.21533
 Alpha  occ. eigenvalues --  -11.21187 -11.21170 -11.21013 -11.20902 -11.20183
 Alpha  occ. eigenvalues --   -1.59973  -1.39524  -1.19462  -1.08860  -1.08102
 Alpha  occ. eigenvalues --   -1.04859  -1.03164  -0.95697  -0.95608  -0.86629
 Alpha  occ. eigenvalues --   -0.86257  -0.82527  -0.79269  -0.77888  -0.77579
 Alpha  occ. eigenvalues --   -0.72159  -0.71319  -0.70561  -0.65113  -0.64857
 Alpha  occ. eigenvalues --   -0.64728  -0.62205  -0.60554  -0.59021  -0.57203
 Alpha  occ. eigenvalues --   -0.55355  -0.54902  -0.53186  -0.52948  -0.52298
 Alpha  occ. eigenvalues --   -0.52038  -0.49558  -0.48920  -0.48916  -0.47571
 Alpha  occ. eigenvalues --   -0.46317  -0.45428  -0.45339  -0.44906  -0.43415
 Alpha  occ. eigenvalues --   -0.37427  -0.36450
 Alpha virt. eigenvalues --    0.04943   0.11167   0.16416   0.21277   0.22965
 Alpha virt. eigenvalues --    0.24584   0.26488   0.27295   0.27625   0.28289
 Alpha virt. eigenvalues --    0.28340   0.30653   0.31789   0.31958   0.32409

 Mulliken charges:
               1
     1  C   -0.299094
     2  C   -0.299409
     3  C   -0.474492
     4  H    0.147756
     5  H    0.147002
     6  H    0.152754
     7  H    0.151985
     8  H    0.149768
     9  H    0.154895
    10  H    0.159624
    11  C   -0.299456
    12  C   -0.297504
    13  C   -0.475266
    14  H    0.147911
    15  H    0.154643
    16  H    0.147463
    17  H    0.150152
    18  H    0.163542
    19  H    0.149458
    20  H    0.164480
    21  C   -0.170178
    22  C   -0.218197
    23  C   -0.170676
    24  C    0.156055
    25  C   -0.171406
    26  C   -0.218950
    27  H    0.226272
    28  H    0.224010
    29  H    0.276252
    30  H    0.275909
    31  H    0.224104
    32  N    0.489338
    33  O   -0.459923
    34  O   -0.458824
 Sum of Mulliken charges =  -0.00000

 Dipole moment (field-independent basis, Debye):
    X=             -1.4297    Y=              4.6519    Z=             -1.5894  Tot=              5.1196
 Quadrupole moment (field-independent basis, Debye-Ang):
   XX=            -89.1310   YY=            -97.8402   ZZ=            -91.4474
   XY=             -9.1793   XZ=              4.4926   YZ=              3.3656

 Normal termination of Gaussian 16 at Thu May  6 13:56:21 2021.
