 Gaussian 16, Revision A.03,
 Gaussian 16:  EM64L-G16RevA.03 25-Dec-2016

 -------------
 #p 6-31g* mp2
 -------------

 ------------------------------------------------------
 Input file generated by CHIRIPA (05-May-2021 14:55:25)
 ------------------------------------------------------
 Symbolic Z-matrix:
 Charge =  0 Multiplicity = 1

                         Standard orientation:
 ---------------------------------------------------------------------
 Center     Atomic      Atomic             Coordinates (Angstroms)
 Number     Number       Type             X           Y           Z
 ---------------------------------------------------------------------
      1          6           0       -2.565151   -2.732638    0.328636
      2          6           0       -1.949875   -1.950152    1.311322
      3          6           0       -1.877468   -0.561092    1.170546
      4          6           0       -2.433251    0.014953    0.029246
      5          6           0       -3.052815   -0.737617   -0.967283
      6          6           0       -3.113690   -2.124944   -0.805531
      7          1           0       -2.616919   -3.811020    0.446142
      8          1           0       -1.523016   -2.419374    2.193176
      9          1           0       -1.406922    0.068543    1.915908
     10          1           0       -3.469305   -0.241205   -1.835344
     11          1           0       -3.592127   -2.730133   -1.570312
     12          7           0       -2.362702    1.484572   -0.130891
     13          8           0       -2.859966    1.967866   -1.145677
     14          8           0       -1.811476    2.125338    0.761413
     15          6           0        2.843069    0.852371    0.360246
     16          6           0        2.389162    2.067666   -0.449081
     17          6           0        1.818609    3.182490    0.428092
     18          1           0        1.992539    0.466662    0.938841
     19          1           0        3.600192    1.169126    1.090880
     20          1           0        1.634127    1.748463   -1.178908
     21          1           0        3.240825    2.450410   -1.025964
     22          1           0        2.568254    3.528985    1.146823
     23          1           0        0.952428    2.823049    0.993010
     24          1           0        1.500344    4.041471   -0.170839
     25          6           0        3.415821   -0.270590   -0.502680
     26          6           0        3.869728   -1.485886    0.306647
     27          6           0        4.440280   -2.600710   -0.570525
     28          1           0        2.658698   -0.587346   -1.233314
     29          1           0        4.266351    0.115117   -1.081275
     30          1           0        3.018065   -1.868630    0.883530
     31          1           0        4.624763   -1.166683    1.036474
     32          1           0        5.306462   -2.241269   -1.135443
     33          1           0        3.690635   -2.947205   -1.289257
     34          1           0        4.758546   -3.459692    0.028405
 ---------------------------------------------------------------------

 SCF Done:  E(RHF) =  -669.536117896     A.U. after   15 cycles
 E2 =    -0.2091561962D+01 EUMP2 =    -0.67162767985837D+03

 The electronic state is 1-A.
 Alpha  occ. eigenvalues --  -20.60954 -20.60949 -15.85984 -11.31318 -11.27884
 Alpha  occ. eigenvalues --  -11.27873 -11.27612 -11.26889 -11.26879 -11.21617
 Alpha  occ. eigenvalues --  -11.21225 -11.21143 -11.21064 -11.20946 -11.19950
 Alpha  occ. eigenvalues --   -1.60011  -1.39568  -1.19485  -1.08885  -1.08152
 Alpha  occ. eigenvalues --   -1.04882  -1.03148  -0.95730  -0.95569  -0.86591
 Alpha  occ. eigenvalues --   -0.86281  -0.82560  -0.79253  -0.77935  -0.77609
 Alpha  occ. eigenvalues --   -0.72209  -0.71329  -0.70590  -0.65141  -0.64884
 Alpha  occ. eigenvalues --   -0.64788  -0.62229  -0.60539  -0.59014  -0.57178
 Alpha  occ. eigenvalues --   -0.55382  -0.54852  -0.53211  -0.52972  -0.52246
 Alpha  occ. eigenvalues --   -0.52002  -0.49537  -0.48970  -0.48945  -0.47549
 Alpha  occ. eigenvalues --   -0.46320  -0.45499  -0.45407  -0.44853  -0.43417
 Alpha  occ. eigenvalues --   -0.37460  -0.36483
 Alpha virt. eigenvalues --    0.04878   0.11141   0.16351   0.21101   0.23013
 Alpha virt. eigenvalues --    0.24540   0.26290   0.27285   0.27677   0.28296
 Alpha virt. eigenvalues --    0.28789   0.30597   0.31651   0.31951   0.32362

 Mulliken charges:
               1
     1  C   -0.170659
     2  C   -0.218550
     3  C   -0.171559
     4  C    0.158227
     5  C   -0.170933
     6  C   -0.218456
     7  H    0.226210
     8  H    0.224138
     9  H    0.275760
    10  H    0.275956
    11  H    0.223988
    12  N    0.489414
    13  O   -0.458726
    14  O   -0.460729
    15  C   -0.296747
    16  C   -0.299159
    17  C   -0.481788
    18  H    0.144106
    19  H    0.148701
    20  H    0.151329
    21  H    0.149146
    22  H    0.147595
    23  H    0.174141
    24  H    0.163266
    25  C   -0.297732
    26  C   -0.298332
    27  C   -0.475375
    28  H    0.148498
    29  H    0.150232
    30  H    0.147161
    31  H    0.152242
    32  H    0.156349
    33  H    0.153831
    34  H    0.158455
 Sum of Mulliken charges =  -0.00000

 Dipole moment (field-independent basis, Debye):
    X=             -0.4473    Y=             -5.1109    Z=              0.5490  Tot=              5.1597
 Quadrupole moment (field-independent basis, Debye-Ang):
   XX=            -92.7334   YY=            -96.0113   ZZ=            -91.3742
   XY=             13.7211   XZ=              1.3482   YZ=             -0.2006

 Normal termination of Gaussian 16 at Thu May  6 00:05:14 2021.
