 Gaussian 16, Revision A.03,
 Gaussian 16:  EM64L-G16RevA.03 25-Dec-2016

 -------------
 #p 6-31g* mp2
 -------------

 ------------------------------------------------------
 Input file generated by CHIRIPA (05-May-2021 14:53:12)
 ------------------------------------------------------
 Symbolic Z-matrix:
 Charge =  0 Multiplicity = 1

                         Standard orientation:
 ---------------------------------------------------------------------
 Center     Atomic      Atomic             Coordinates (Angstroms)
 Number     Number       Type             X           Y           Z
 ---------------------------------------------------------------------
      1          6           0        4.006608    0.044218   -0.118612
      2          6           0        3.166151   -1.232557   -0.080392
      3          6           0        1.663273   -0.951217   -0.080338
      4          1           0        3.749471    0.670898    0.746315
      5          1           0        3.740963    0.623078   -1.014016
      6          1           0        3.434290   -1.809509    0.813948
      7          1           0        3.425456   -1.856358   -0.945406
      8          1           0        1.375210   -0.396208   -0.978996
      9          1           0        1.384095   -0.349092    0.790355
     10          1           0        1.081383   -1.877771   -0.052743
     11          6           0        5.511125   -0.220657   -0.119113
     12          6           0        6.351582    1.056118   -0.157332
     13          6           0        7.854460    0.774778   -0.157387
     14          1           0        5.776770   -0.799518    0.776291
     15          1           0        5.768262   -0.847337   -0.984039
     16          1           0        6.092277    1.679919    0.707682
     17          1           0        6.083443    1.633069   -1.051673
     18          1           0        8.133638    0.172652   -1.028080
     19          1           0        8.142523    0.219768    0.741271
     20          1           0        8.436350    1.701332   -0.184982
     21          6           0       -6.051666    0.774533   -0.556299
     22          6           0       -5.132250    1.727342   -0.105353
     23          6           0       -3.836431    1.347755    0.257021
     24          6           0       -3.492241    0.000706    0.155619
     25          6           0       -4.385677   -0.972154   -0.290034
     26          6           0       -5.676106   -0.569804   -0.647039
     27          1           0       -7.056196    1.078247   -0.835714
     28          1           0       -5.421141    2.772080   -0.033866
     29          1           0       -3.104708    2.064605    0.609334
     30          1           0       -4.068470   -2.006143   -0.350583
     31          1           0       -6.388046   -1.311946   -0.996914
     32          7           0       -2.123268   -0.413195    0.536407
     33          8           0       -1.844711   -1.606244    0.438028
     34          8           0       -1.354746    0.463274    0.926038
 ---------------------------------------------------------------------

 SCF Done:  E(RHF) =  -669.535950745     A.U. after   15 cycles
 E2 =    -0.2091876731D+01 EUMP2 =    -0.67162782747529D+03

 The electronic state is 1-A.
 Alpha  occ. eigenvalues --  -20.60953 -20.60947 -15.85967 -11.31302 -11.27860
 Alpha  occ. eigenvalues --  -11.27857 -11.27598 -11.26867 -11.26858 -11.20880
 Alpha  occ. eigenvalues --  -11.20485 -11.20475 -11.20207 -11.20057 -11.18802
 Alpha  occ. eigenvalues --   -1.59991  -1.39551  -1.19465  -1.08868  -1.07356
 Alpha  occ. eigenvalues --   -1.04862  -1.02320  -0.95715  -0.94717  -0.86262
 Alpha  occ. eigenvalues --   -0.85725  -0.82543  -0.78436  -0.77595  -0.77100
 Alpha  occ. eigenvalues --   -0.72188  -0.71300  -0.70573  -0.65121  -0.64864
 Alpha  occ. eigenvalues --   -0.64007  -0.62209  -0.59736  -0.58214  -0.56320
 Alpha  occ. eigenvalues --   -0.55370  -0.54032  -0.53195  -0.52954  -0.51429
 Alpha  occ. eigenvalues --   -0.51176  -0.49078  -0.48899  -0.48507  -0.46684
 Alpha  occ. eigenvalues --   -0.45502  -0.44971  -0.44600  -0.44512  -0.42520
 Alpha  occ. eigenvalues --   -0.37443  -0.36462
 Alpha virt. eigenvalues --    0.04923   0.11193   0.16423   0.21328   0.23830
 Alpha virt. eigenvalues --    0.25576   0.27245   0.27658   0.28197   0.28482
 Alpha virt. eigenvalues --    0.29411   0.30899   0.32397   0.32582   0.32741

 Mulliken charges:
               1
     1  C   -0.296534
     2  C   -0.302219
     3  C   -0.475389
     4  H    0.149522
     5  H    0.146381
     6  H    0.147864
     7  H    0.144559
     8  H    0.143562
     9  H    0.171424
    10  H    0.170852
    11  C   -0.297017
    12  C   -0.298693
    13  C   -0.475041
    14  H    0.148088
    15  H    0.147377
    16  H    0.151166
    17  H    0.150308
    18  H    0.153991
    19  H    0.154403
    20  H    0.157824
    21  C   -0.170588
    22  C   -0.218578
    23  C   -0.170757
    24  C    0.159065
    25  C   -0.170734
    26  C   -0.218587
    27  H    0.225993
    28  H    0.223839
    29  H    0.275849
    30  H    0.275805
    31  H    0.223827
    32  N    0.489045
    33  O   -0.458748
    34  O   -0.457860
 Sum of Mulliken charges =  -0.00000

 Dipole moment (field-independent basis, Debye):
    X=             -5.2996    Y=              1.4603    Z=             -1.2301  Tot=              5.6331
 Quadrupole moment (field-independent basis, Debye-Ang):
   XX=            -64.3640   YY=            -90.3858   ZZ=            -94.8164
   XY=             -3.8726   XZ=              4.6415   YZ=              1.4548

 Normal termination of Gaussian 16 at Wed May  5 23:22:18 2021.
