 Gaussian 16, Revision A.03,
 Gaussian 16:  EM64L-G16RevA.03 25-Dec-2016

 -------------
 #p 6-31g* mp2
 -------------

 ------------------------------------------------------
 Input file generated by CHIRIPA (05-May-2021 14:53:12)
 ------------------------------------------------------
 Symbolic Z-matrix:
 Charge =  0 Multiplicity = 1

                         Standard orientation:
 ---------------------------------------------------------------------
 Center     Atomic      Atomic             Coordinates (Angstroms)
 Number     Number       Type             X           Y           Z
 ---------------------------------------------------------------------
      1          6           0        3.872059    0.840770   -0.383881
      2          6           0        2.863219    1.763347    0.301013
      3          6           0        2.457708    2.949538   -0.574376
      4          1           0        4.764969    1.420821   -0.654432
      5          1           0        3.441405    0.472577   -1.325351
      6          1           0        3.295108    2.128594    1.241589
      7          1           0        1.972686    1.180991    0.570137
      8          1           0        2.002770    2.601918   -1.507539
      9          1           0        3.332706    3.554906   -0.832271
     10          1           0        1.736019    3.595979   -0.065320
     11          6           0        4.287158   -0.349746    0.478727
     12          6           0        5.295998   -1.272323   -0.206167
     13          6           0        5.701509   -2.458513    0.669222
     14          1           0        4.717813    0.018448    1.420197
     15          1           0        3.394248   -0.929796    0.749278
     16          1           0        6.186531   -0.689967   -0.475291
     17          1           0        4.864110   -1.637570   -1.146743
     18          1           0        4.826511   -3.063882    0.927117
     19          1           0        6.156447   -2.110894    1.602385
     20          1           0        6.423198   -3.104955    0.160166
     21          6           0       -5.653397   -0.421550    0.443562
     22          6           0       -4.826804    0.265442    1.338719
     23          6           0       -3.458906    0.398916    1.082611
     24          6           0       -2.948771   -0.169596   -0.083513
     25          6           0       -3.746474   -0.859940   -0.994767
     26          6           0       -5.111549   -0.981062   -0.718276
     27          1           0       -6.714915   -0.520437    0.650430
     28          1           0       -5.244861    0.700989    2.241810
     29          1           0       -2.796175    0.925576    1.758507
     30          1           0       -3.300768   -1.283342   -1.886673
     31          1           0       -5.751100   -1.515133   -1.415259
     32          7           0       -1.502133   -0.034831   -0.365433
     33          8           0       -1.077157   -0.544787   -1.399830
     34          8           0       -0.820628    0.578199    0.453335
 ---------------------------------------------------------------------

 SCF Done:  E(RHF) =  -669.536492547     A.U. after   15 cycles
 E2 =    -0.2091069233D+01 EUMP2 =    -0.67162756177977D+03

 The electronic state is 1-A.
 Alpha  occ. eigenvalues --  -20.61063 -20.61039 -15.86075 -11.31357 -11.27914
 Alpha  occ. eigenvalues --  -11.27910 -11.27644 -11.26912 -11.26902 -11.20633
 Alpha  occ. eigenvalues --  -11.20283 -11.20185 -11.19967 -11.19808 -11.19583
 Alpha  occ. eigenvalues --   -1.60107  -1.39664  -1.19520  -1.08933  -1.07132
 Alpha  occ. eigenvalues --   -1.04910  -1.02245  -0.95781  -0.94749  -0.86312
 Alpha  occ. eigenvalues --   -0.85777  -0.82616  -0.78348  -0.77673  -0.76898
 Alpha  occ. eigenvalues --   -0.72297  -0.71416  -0.70628  -0.65177  -0.64914
 Alpha  occ. eigenvalues --   -0.63748  -0.62257  -0.59623  -0.58151  -0.56343
 Alpha  occ. eigenvalues --   -0.55416  -0.54040  -0.53244  -0.53001  -0.51480
 Alpha  occ. eigenvalues --   -0.51178  -0.49107  -0.49050  -0.48681  -0.46657
 Alpha  occ. eigenvalues --   -0.45345  -0.45084  -0.44461  -0.44255  -0.42512
 Alpha  occ. eigenvalues --   -0.37497  -0.36509
 Alpha virt. eigenvalues --    0.04858   0.11147   0.16366   0.21283   0.24130
 Alpha virt. eigenvalues --    0.25581   0.27207   0.27915   0.28204   0.28838
 Alpha virt. eigenvalues --    0.29174   0.30860   0.32367   0.32625   0.32975

 Mulliken charges:
               1
     1  C   -0.297574
     2  C   -0.310471
     3  C   -0.472645
     4  H    0.142655
     5  H    0.153356
     6  H    0.142026
     7  H    0.182360
     8  H    0.158320
     9  H    0.146376
    10  H    0.156535
    11  C   -0.298167
    12  C   -0.298927
    13  C   -0.474992
    14  H    0.145243
    15  H    0.154172
    16  H    0.149086
    17  H    0.152567
    18  H    0.154806
    19  H    0.153048
    20  H    0.157039
    21  C   -0.170441
    22  C   -0.218554
    23  C   -0.170733
    24  C    0.157511
    25  C   -0.170439
    26  C   -0.218611
    27  H    0.226233
    28  H    0.224079
    29  H    0.276006
    30  H    0.275919
    31  H    0.224024
    32  N    0.490569
    33  O   -0.459339
    34  O   -0.461037
 Sum of Mulliken charges =  -0.00000

 Dipole moment (field-independent basis, Debye):
    X=             -5.5483    Y=             -0.5741    Z=              0.9759  Tot=              5.6626
 Quadrupole moment (field-independent basis, Debye-Ang):
   XX=            -66.3497   YY=            -95.2194   ZZ=            -91.7145
   XY=              3.1698   XZ=             -2.0329   YZ=              3.2347

 Normal termination of Gaussian 16 at Thu May  6 12:00:38 2021.
