 Gaussian 16, Revision A.03,
 Gaussian 16:  EM64L-G16RevA.03 25-Dec-2016

 -------------
 #p 6-31g* mp2
 -------------

 ------------------------------------------------------
 Input file generated by CHIRIPA (05-May-2021 14:57:27)
 ------------------------------------------------------
 Symbolic Z-matrix:
 Charge =  0 Multiplicity = 1

                         Standard orientation:
 ---------------------------------------------------------------------
 Center     Atomic      Atomic             Coordinates (Angstroms)
 Number     Number       Type             X           Y           Z
 ---------------------------------------------------------------------
      1          6           0        1.669923    2.258887    0.274291
      2          6           0        1.150361    1.016163   -0.102821
      3          6           0        2.001118   -0.069683   -0.330196
      4          6           0        3.372426    0.123497   -0.170553
      5          6           0        3.920478    1.349259    0.204196
      6          6           0        3.050889    2.421183    0.426328
      7          1           0        1.001720    3.096991    0.448884
      8          1           0        0.078309    0.887210   -0.221650
      9          1           0        1.625714   -1.042696   -0.623004
     10          1           0        4.993618    1.447124    0.314694
     11          1           0        3.457199    3.385152    0.719107
     12          7           0        4.283052   -1.018670   -0.408489
     13          8           0        5.487406   -0.822575   -0.261126
     14          8           0        3.775205   -2.088369   -0.737841
     15          6           0       -4.626871    1.584669   -0.761329
     16          6           0       -3.591115    1.845580    0.141808
     17          6           0       -2.806485    0.802607    0.642917
     18          6           0       -3.086559   -0.495079    0.217638
     19          6           0       -4.111461   -0.787088   -0.681025
     20          6           0       -4.883286    0.271482   -1.169144
     21          1           0       -5.231417    2.400935   -1.145556
     22          1           0       -3.389705    2.864431    0.460277
     23          1           0       -1.998418    0.976308    1.343113
     24          1           0       -4.288260   -1.813133   -0.980012
     25          1           0       -5.687015    0.065891   -1.870426
     26          7           0       -2.262684   -1.607483    0.741263
     27          8           0       -2.529671   -2.741963    0.350991
     28          8           0       -1.365544   -1.323845    1.532038
 ---------------------------------------------------------------------

 SCF Done:  E(RHF) =  -868.337146001     A.U. after   16 cycles
 E2 =    -0.2601106218D+01 EUMP2 =    -0.87093825221902D+03

 The electronic state is 1-A.
 Alpha  occ. eigenvalues --  -20.61607 -20.61581 -20.60285 -20.60261 -15.86634
 Alpha  occ. eigenvalues --  -15.85329 -11.32110 -11.30732 -11.28706 -11.28586
 Alpha  occ. eigenvalues --  -11.28346 -11.27723 -11.27612 -11.27353 -11.27244
 Alpha  occ. eigenvalues --  -11.27186 -11.26423 -11.26332  -1.60669  -1.59350
 Alpha  occ. eigenvalues --   -1.40217  -1.38900  -1.20266  -1.18929  -1.09626
 Alpha  occ. eigenvalues --   -1.08349  -1.05676  -1.04327  -0.96449  -0.95165
 Alpha  occ. eigenvalues --   -0.87065  -0.85752  -0.83271  -0.81987  -0.78332
 Alpha  occ. eigenvalues --   -0.77001  -0.72831  -0.72013  -0.71554  -0.71335
 Alpha  occ. eigenvalues --   -0.70670  -0.70100  -0.65900  -0.65672  -0.64595
 Alpha  occ. eigenvalues --   -0.64385  -0.63004  -0.61656  -0.56121  -0.54939
 Alpha  occ. eigenvalues --   -0.54007  -0.53751  -0.52663  -0.52412  -0.49608
 Alpha  occ. eigenvalues --   -0.49592  -0.48320  -0.48295  -0.45584  -0.44296
 Alpha  occ. eigenvalues --   -0.38219  -0.37278  -0.36965  -0.35894
 Alpha virt. eigenvalues --    0.04168   0.05533   0.10206   0.11682   0.15681
 Alpha virt. eigenvalues --    0.16988   0.20262   0.21911   0.26135   0.27177
 Alpha virt. eigenvalues --    0.27951   0.28901   0.30220   0.31191   0.31784

 Mulliken charges:
               1
     1  C   -0.173965
     2  C   -0.216246
     3  C   -0.166619
     4  C    0.157783
     5  C   -0.171387
     6  C   -0.218311
     7  H    0.217030
     8  H    0.221691
     9  H    0.281914
    10  H    0.274450
    11  H    0.220721
    12  N    0.487979
    13  O   -0.462805
    14  O   -0.457157
    15  C   -0.170396
    16  C   -0.218777
    17  C   -0.182892
    18  C    0.158809
    19  C   -0.170093
    20  C   -0.217059
    21  H    0.228671
    22  H    0.223300
    23  H    0.275096
    24  H    0.279224
    25  H    0.227460
    26  N    0.486364
    27  O   -0.453686
    28  O   -0.461099
 Sum of Mulliken charges =  -0.00000

 Dipole moment (field-independent basis, Debye):
    X=             -6.4397    Y=              7.6527    Z=             -1.0726  Tot=             10.0590
 Quadrupole moment (field-independent basis, Debye-Ang):
   XX=           -103.6551   YY=           -104.7611   ZZ=           -105.5586
   XY=              6.8432   XZ=             11.5531   YZ=              3.9033

 Normal termination of Gaussian 16 at Wed May  5 18:05:53 2021.
