 Gaussian 16, Revision A.03,
 Gaussian 16:  EM64L-G16RevA.03 25-Dec-2016

 -------------
 #p 6-31g* mp2
 -------------

 ------------------------------------------------------
 Input file generated by CHIRIPA (05-May-2021 14:51:12)
 ------------------------------------------------------
 Symbolic Z-matrix:
 Charge =  0 Multiplicity = 1

                         Standard orientation:
 ---------------------------------------------------------------------
 Center     Atomic      Atomic             Coordinates (Angstroms)
 Number     Number       Type             X           Y           Z
 ---------------------------------------------------------------------
      1          6           0       -2.984117    0.987655   -0.687167
      2          6           0       -1.910167    1.774472    0.064853
      3          6           0       -1.651817    3.152867   -0.544307
      4          1           0       -2.679700    0.875060   -1.736737
      5          1           0       -3.917293    1.567780   -0.692887
      6          1           0       -0.979682    1.192421    0.070347
      7          1           0       -2.217087    1.885041    1.112799
      8          1           0       -2.565848    3.755420   -0.535450
      9          1           0       -1.321413    3.058864   -1.583825
     10          1           0       -0.880672    3.698093    0.008796
     11          6           0       -3.253619   -0.392430   -0.090122
     12          6           0       -4.327570   -1.179247   -0.842142
     13          6           0       -4.585920   -2.557642   -0.232982
     14          1           0       -2.320444   -0.972555   -0.084402
     15          1           0       -3.558037   -0.279835    0.959448
     16          1           0       -4.020650   -1.289816   -1.890088
     17          1           0       -5.258055   -0.597196   -0.847636
     18          1           0       -4.916324   -2.463639    0.806536
     19          1           0       -3.671888   -3.160195   -0.241839
     20          1           0       -5.357065   -3.102869   -0.786085
     21          6           0        2.627792   -0.617545    0.878458
     22          6           0        1.780260    0.401954    1.640230
     23          6           0        0.802690   -0.253408    2.616269
     24          1           0        1.964040   -1.300987    0.331389
     25          1           0        3.184559   -1.232576    1.598975
     26          1           0        1.226316    1.015789    0.918448
     27          1           0        2.446110    1.083166    2.185397
     28          1           0        1.341800   -0.851052    3.358416
     29          1           0        0.115073   -0.918812    2.084269
     30          1           0        0.206969    0.493593    3.150092
     31          6           0        3.609945    0.022321   -0.101170
     32          6           0        4.457477   -0.997179   -0.862941
     33          6           0        5.435047   -0.341816   -1.838980
     34          1           0        3.053178    0.637351   -0.821686
     35          1           0        4.273697    0.705763    0.445901
     36          1           0        3.791626   -1.678391   -1.408108
     37          1           0        5.011421   -1.611014   -0.141160
     38          1           0        6.122663    0.323586   -1.306980
     39          1           0        4.895937    0.255826   -2.581127
     40          1           0        6.030768   -1.088818   -2.372802
 ---------------------------------------------------------------------

 SCF Done:  E(RHF) =  -470.733241261     A.U. after   11 cycles
 E2 =    -0.1583195826D+01 EUMP2 =    -0.47231643708727D+03

 The electronic state is 1-A.
 Alpha  occ. eigenvalues --  -11.21622 -11.21614 -11.21597 -11.21569 -11.21429
 Alpha  occ. eigenvalues --  -11.21414 -11.21370 -11.21354 -11.21095 -11.21085
 Alpha  occ. eigenvalues --  -11.21081 -11.21032  -1.08466  -1.08421  -1.03575
 Alpha  occ. eigenvalues --   -1.03500  -0.96002  -0.95970  -0.87014  -0.86988
 Alpha  occ. eigenvalues --   -0.79660  -0.79547  -0.78301  -0.78214  -0.65200
 Alpha  occ. eigenvalues --   -0.64971  -0.61112  -0.60788  -0.59424  -0.59277
 Alpha  occ. eigenvalues --   -0.57670  -0.57517  -0.55298  -0.55256  -0.52697
 Alpha  occ. eigenvalues --   -0.52655  -0.52433  -0.52385  -0.49981  -0.49883
 Alpha  occ. eigenvalues --   -0.48007  -0.47869  -0.46851  -0.46445  -0.45935
 Alpha  occ. eigenvalues --   -0.45771  -0.45747  -0.45469  -0.43802  -0.43778
 Alpha virt. eigenvalues --    0.20612   0.23254   0.23658   0.24338   0.25967
 Alpha virt. eigenvalues --    0.26572   0.26742   0.27568   0.28353   0.29257
 Alpha virt. eigenvalues --    0.30690   0.31038   0.31599   0.32011   0.32103

 Mulliken charges:
               1
     1  C   -0.297877
     2  C   -0.306381
     3  C   -0.476238
     4  H    0.149258
     5  H    0.149665
     6  H    0.158791
     7  H    0.152437
     8  H    0.155499
     9  H    0.154764
    10  H    0.160688
    11  C   -0.298838
    12  C   -0.299700
    13  C   -0.475709
    14  H    0.149218
    15  H    0.150306
    16  H    0.151834
    17  H    0.152126
    18  H    0.155409
    19  H    0.155041
    20  H    0.160330
    21  C   -0.298101
    22  C   -0.305965
    23  C   -0.475955
    24  H    0.148736
    25  H    0.149760
    26  H    0.157265
    27  H    0.152063
    28  H    0.154778
    29  H    0.156054
    30  H    0.160811
    31  C   -0.298246
    32  C   -0.299619
    33  C   -0.475708
    34  H    0.149241
    35  H    0.149830
    36  H    0.151735
    37  H    0.152026
    38  H    0.155259
    39  H    0.155143
    40  H    0.160272
 Sum of Mulliken charges =  -0.00000

 Dipole moment (field-independent basis, Debye):
    X=             -0.0149    Y=              0.0103    Z=              0.0112  Tot=              0.0213
 Quadrupole moment (field-independent basis, Debye-Ang):
   XX=            -84.3902   YY=            -85.7945   ZZ=            -84.5391
   XY=             -0.8112   XZ=              0.7241   YZ=              0.8727

 Normal termination of Gaussian 16 at Thu May  6 05:28:55 2021.
