 Gaussian 16, Revision A.03,
 Gaussian 16:  EM64L-G16RevA.03 25-Dec-2016

 -------------
 #p 6-31g* mp2
 -------------

 ------------------------------------------------------
 Input file generated by CHIRIPA (05-May-2021 14:53:12)
 ------------------------------------------------------
 Symbolic Z-matrix:
 Charge =  0 Multiplicity = 1

                         Standard orientation:
 ---------------------------------------------------------------------
 Center     Atomic      Atomic             Coordinates (Angstroms)
 Number     Number       Type             X           Y           Z
 ---------------------------------------------------------------------
      1          6           0        3.074246    0.931093    0.054970
      2          6           0        1.848574    1.774253    0.408232
      3          6           0        2.205968    3.218973    0.758728
      4          1           0        3.775112    0.942043    0.900908
      5          1           0        3.598683    1.395739   -0.791473
      6          1           0        1.325833    1.307402    1.252868
      7          1           0        1.150458    1.761137   -0.438572
      8          1           0        2.707562    3.706867   -0.083272
      9          1           0        2.883933    3.250554    1.617778
     10          1           0        1.315050    3.803779    1.007978
     11          6           0        2.733135   -0.515615   -0.297747
     12          6           0        3.958807   -1.358774   -0.651010
     13          6           0        3.601412   -2.803495   -1.001505
     14          1           0        2.208698   -0.980261    0.548696
     15          1           0        2.032269   -0.526565   -1.143685
     16          1           0        4.656923   -1.345659    0.195795
     17          1           0        4.481548   -0.891924   -1.495645
     18          1           0        2.923447   -2.835076   -1.860555
     19          1           0        3.099819   -3.291389   -0.159505
     20          1           0        4.492331   -3.388301   -1.250755
     21          6           0       -1.702494   -1.257484    2.296224
     22          6           0       -1.275706    0.048491    2.033919
     23          6           0       -1.583541    0.665248    0.817615
     24          6           0       -2.323228   -0.056418   -0.117987
     25          6           0       -2.762757   -1.358866    0.113817
     26          6           0       -2.443352   -1.955762    1.337028
     27          1           0       -1.458868   -1.728882    3.243761
     28          1           0       -0.700203    0.593184    2.776988
     29          1           0       -1.265761    1.675165    0.588485
     30          1           0       -3.334931   -1.876551   -0.646469
     31          1           0       -2.776124   -2.970117    1.538006
     32          7           0       -2.655243    0.586003   -1.409290
     33          8           0       -3.308188   -0.071138   -2.217043
     34          8           0       -2.256246    1.734510   -1.589208
 ---------------------------------------------------------------------

 SCF Done:  E(RHF) =  -669.534723105     A.U. after   15 cycles
 E2 =    -0.2093259283D+01 EUMP2 =    -0.67162798238852D+03

 The electronic state is 1-A.
 Alpha  occ. eigenvalues --  -20.60791 -20.60786 -15.85837 -11.31153 -11.27747
 Alpha  occ. eigenvalues --  -11.27712 -11.27501 -11.26745 -11.26733 -11.21909
 Alpha  occ. eigenvalues --  -11.21743 -11.21612 -11.21518 -11.21377 -11.21211
 Alpha  occ. eigenvalues --   -1.59862  -1.39417  -1.19347  -1.08751  -1.08648
 Alpha  occ. eigenvalues --   -1.04757  -1.03762  -0.96200  -0.95588  -0.87214
 Alpha  occ. eigenvalues --   -0.86149  -0.82437  -0.79868  -0.78492  -0.77434
 Alpha  occ. eigenvalues --   -0.72056  -0.71183  -0.70461  -0.65312  -0.64992
 Alpha  occ. eigenvalues --   -0.64743  -0.62138  -0.61150  -0.59564  -0.57816
 Alpha  occ. eigenvalues --   -0.55474  -0.55256  -0.53147  -0.52873  -0.52835
 Alpha  occ. eigenvalues --   -0.52616  -0.50129  -0.48815  -0.48813  -0.48145
 Alpha  occ. eigenvalues --   -0.46867  -0.45995  -0.45913  -0.44820  -0.44006
 Alpha  occ. eigenvalues --   -0.37333  -0.36261
 Alpha virt. eigenvalues --    0.05050   0.11220   0.16426   0.20498   0.22835
 Alpha virt. eigenvalues --    0.23897   0.25963   0.26233   0.27262   0.28125
 Alpha virt. eigenvalues --    0.29206   0.29656   0.31490   0.31512   0.32112

 Mulliken charges:
               1
     1  C   -0.297778
     2  C   -0.309033
     3  C   -0.476032
     4  H    0.147978
     5  H    0.152852
     6  H    0.144029
     7  H    0.161976
     8  H    0.160691
     9  H    0.153929
    10  H    0.157839
    11  C   -0.298910
    12  C   -0.299880
    13  C   -0.475649
    14  H    0.146888
    15  H    0.153398
    16  H    0.150643
    17  H    0.153763
    18  H    0.157335
    19  H    0.152692
    20  H    0.160658
    21  C   -0.171482
    22  C   -0.220445
    23  C   -0.165145
    24  C    0.155963
    25  C   -0.170600
    26  C   -0.218877
    27  H    0.225392
    28  H    0.223097
    29  H    0.279443
    30  H    0.275440
    31  H    0.223278
    32  N    0.488416
    33  O   -0.460218
    34  O   -0.461655
 Sum of Mulliken charges =  -0.00000

 Dipole moment (field-independent basis, Debye):
    X=              1.1995    Y=             -2.2526    Z=              4.4363  Tot=              5.1180
 Quadrupole moment (field-independent basis, Debye-Ang):
   XX=            -99.6694   YY=            -92.3732   ZZ=            -95.2016
   XY=              7.5416   XZ=            -10.1859   YZ=              0.6281

 Normal termination of Gaussian 16 at Thu May  6 13:38:59 2021.
