 Gaussian 16, Revision A.03,
 Gaussian 16:  EM64L-G16RevA.03 25-Dec-2016

 -------------
 #p 6-31g* mp2
 -------------

 ------------------------------------------------------
 Input file generated by CHIRIPA (05-May-2021 14:57:27)
 ------------------------------------------------------
 Symbolic Z-matrix:
 Charge =  0 Multiplicity = 1

                         Standard orientation:
 ---------------------------------------------------------------------
 Center     Atomic      Atomic             Coordinates (Angstroms)
 Number     Number       Type             X           Y           Z
 ---------------------------------------------------------------------
      1          6           0       -1.582109   -0.868760    0.092547
      2          6           0       -1.832325    0.486142   -0.148600
      3          6           0       -3.144179    0.964088   -0.220401
      4          6           0       -4.186619    0.055228   -0.045521
      5          6           0       -3.969631   -1.300432    0.196124
      6          6           0       -2.649678   -1.756159    0.263838
      7          1           0       -0.559883   -1.231410    0.146736
      8          1           0       -1.005198    1.177594   -0.282017
      9          1           0       -3.366397    2.007945   -0.405870
     10          1           0       -4.814820   -1.965612    0.325007
     11          1           0       -2.458345   -2.808925    0.451244
     12          7           0       -5.579707    0.549446   -0.119370
     13          8           0       -6.480649   -0.271602    0.038172
     14          8           0       -5.744289    1.748505   -0.333396
     15          6           0        4.460710    2.495211    0.161136
     16          6           0        3.213853    2.012947    0.572581
     17          6           0        2.923795    0.646928    0.506205
     18          6           0        3.908326   -0.212467    0.020995
     19          6           0        5.159966    0.237453   -0.396449
     20          6           0        5.428082    1.607490   -0.321215
     21          1           0        4.677511    3.557928    0.216139
     22          1           0        2.460662    2.700045    0.947610
     23          1           0        1.966782    0.246599    0.818106
     24          1           0        5.890595   -0.471907   -0.765782
     25          1           0        6.397274    1.979196   -0.641445
     26          7           0        3.612870   -1.660737   -0.053962
     27          8           0        4.497287   -2.397242   -0.485243
     28          8           0        2.502468   -2.031963    0.319986
 ---------------------------------------------------------------------

 SCF Done:  E(RHF) =  -868.339071644     A.U. after   16 cycles
 E2 =    -0.2599161687D+01 EUMP2 =    -0.87093823333119D+03

 The electronic state is 1-A.
 Alpha  occ. eigenvalues --  -20.61877 -20.61816 -20.60637 -20.60626 -15.86886
 Alpha  occ. eigenvalues --  -15.85689 -11.32119 -11.30993 -11.28752 -11.28609
 Alpha  occ. eigenvalues --  -11.28331 -11.27674 -11.27631 -11.27587 -11.27538
 Alpha  occ. eigenvalues --  -11.27168 -11.26637 -11.26451  -1.60901  -1.59712
 Alpha  occ. eigenvalues --   -1.40466  -1.39267  -1.20266  -1.19161  -1.09671
 Alpha  occ. eigenvalues --   -1.08542  -1.05657  -1.04572  -0.96538  -0.95385
 Alpha  occ. eigenvalues --   -0.87056  -0.85961  -0.83384  -0.82233  -0.78462
 Alpha  occ. eigenvalues --   -0.77315  -0.73115  -0.72207  -0.71906  -0.71367
 Alpha  occ. eigenvalues --   -0.71036  -0.70179  -0.65922  -0.65653  -0.64808
 Alpha  occ. eigenvalues --   -0.64584  -0.63018  -0.61931  -0.56128  -0.54953
 Alpha  occ. eigenvalues --   -0.53976  -0.53743  -0.52889  -0.52662  -0.49875
 Alpha  occ. eigenvalues --   -0.49830  -0.48665  -0.48659  -0.45894  -0.44687
 Alpha  occ. eigenvalues --   -0.38209  -0.37253  -0.37101  -0.36190
 Alpha virt. eigenvalues --    0.04059   0.05241   0.10395   0.11457   0.15586
 Alpha virt. eigenvalues --    0.16745   0.18904   0.21978   0.25315   0.26615
 Alpha virt. eigenvalues --    0.27680   0.28991   0.30354   0.31153   0.32372

 Mulliken charges:
               1
     1  C   -0.180958
     2  C   -0.220806
     3  C   -0.170733
     4  C    0.157634
     5  C   -0.170628
     6  C   -0.219889
     7  H    0.246069
     8  H    0.213755
     9  H    0.273034
    10  H    0.275586
    11  H    0.228531
    12  N    0.488221
    13  O   -0.460254
    14  O   -0.462265
    15  C   -0.169687
    16  C   -0.219037
    17  C   -0.173426
    18  C    0.159416
    19  C   -0.169773
    20  C   -0.217952
    21  H    0.229111
    22  H    0.224092
    23  H    0.269533
    24  H    0.277938
    25  H    0.226962
    26  N    0.491544
    27  O   -0.453769
    28  O   -0.472251
 Sum of Mulliken charges =  -0.00000

 Dipole moment (field-independent basis, Debye):
    X=              6.3622    Y=              3.2699    Z=              0.4910  Tot=              7.1702
 Quadrupole moment (field-independent basis, Debye-Ang):
   XX=           -132.2508   YY=           -102.9359   ZZ=           -105.6566
   XY=             29.0869   XZ=             -2.7909   YZ=             -0.3552

 Normal termination of Gaussian 16 at Thu May  6 13:10:00 2021.
