 Gaussian 16, Revision A.03,
 Gaussian 16:  EM64L-G16RevA.03 25-Dec-2016

 -------------
 #p 6-31g* mp2
 -------------

 ------------------------------------------------------
 Input file generated by CHIRIPA (05-May-2021 14:57:27)
 ------------------------------------------------------
 Symbolic Z-matrix:
 Charge =  0 Multiplicity = 1

                         Standard orientation:
 ---------------------------------------------------------------------
 Center     Atomic      Atomic             Coordinates (Angstroms)
 Number     Number       Type             X           Y           Z
 ---------------------------------------------------------------------
      1          6           0       -6.480710   -0.394333   -0.256980
      2          6           0       -5.672724   -1.424365    0.235679
      3          6           0       -4.297468   -1.232198    0.397827
      4          6           0       -3.761080    0.008215    0.055841
      5          6           0       -4.539785    1.053973   -0.437412
      6          6           0       -5.912663    0.839373   -0.591364
      7          1           0       -7.548118   -0.552326   -0.379757
      8          1           0       -6.111141   -2.383517    0.496183
      9          1           0       -3.648737   -2.012398    0.777107
     10          1           0       -4.073931    1.999149   -0.688488
     11          1           0       -6.537722    1.641114   -0.974192
     12          7           0       -2.306417    0.223528    0.223161
     13          8           0       -1.858188    1.325581   -0.085395
     14          8           0       -1.642025   -0.713840    0.659695
     15          6           0        3.266747    2.425857    0.243476
     16          6           0        4.623093    2.122473    0.085970
     17          6           0        5.041256    0.797040   -0.065411
     18          6           0        4.071794   -0.204615   -0.054535
     19          6           0        2.713046    0.065710    0.100446
     20          6           0        2.317726    1.398318    0.250199
     21          1           0        2.950781    3.458271    0.360440
     22          1           0        5.362328    2.918428    0.080362
     23          1           0        6.084775    0.533985   -0.189064
     24          1           0        1.999461   -0.749281    0.101964
     25          1           0        1.263688    1.630976    0.372341
     26          7           0        4.502394   -1.611589   -0.213934
     27          8           0        3.628607   -2.475860   -0.200915
     28          8           0        5.705530   -1.823463   -0.348871
 ---------------------------------------------------------------------

 SCF Done:  E(RHF) =  -868.341424840     A.U. after   16 cycles
 E2 =    -0.2598493821D+01 EUMP2 =    -0.87093991866077D+03

 The electronic state is 1-A.
 Alpha  occ. eigenvalues --  -20.61768 -20.61761 -20.59760 -20.59742 -15.86744
 Alpha  occ. eigenvalues --  -15.84793 -11.31774 -11.29942 -11.28314 -11.28276
 Alpha  occ. eigenvalues --  -11.27984 -11.27248 -11.27219 -11.26561 -11.26299
 Alpha  occ. eigenvalues --  -11.26189 -11.25581 -11.25183  -1.60804  -1.58834
 Alpha  occ. eigenvalues --   -1.40363  -1.38391  -1.19913  -1.18083  -1.09375
 Alpha  occ. eigenvalues --   -1.07533  -1.05262  -1.03412  -0.96265  -0.94403
 Alpha  occ. eigenvalues --   -0.86677  -0.84833  -0.83109  -0.81212  -0.78190
 Alpha  occ. eigenvalues --   -0.76275  -0.72981  -0.72081  -0.71020  -0.71017
 Alpha  occ. eigenvalues --   -0.70154  -0.69210  -0.65569  -0.65264  -0.63720
 Alpha  occ. eigenvalues --   -0.63373  -0.62611  -0.60726  -0.55781  -0.53976
 Alpha  occ. eigenvalues --   -0.53610  -0.53350  -0.51816  -0.51472  -0.49742
 Alpha  occ. eigenvalues --   -0.49720  -0.47783  -0.47754  -0.45834  -0.43844
 Alpha  occ. eigenvalues --   -0.37874  -0.36848  -0.36103  -0.35019
 Alpha virt. eigenvalues --    0.04323   0.06188   0.10812   0.12616   0.15889
 Alpha virt. eigenvalues --    0.17733   0.20976   0.22858   0.26920   0.27824
 Alpha virt. eigenvalues --    0.28980   0.29581   0.30596   0.32012   0.32448

 Mulliken charges:
               1
     1  C   -0.169518
     2  C   -0.218641
     3  C   -0.169890
     4  C    0.157687
     5  C   -0.170328
     6  C   -0.218615
     7  H    0.227871
     8  H    0.226195
     9  H    0.278089
    10  H    0.274809
    11  H    0.224930
    12  N    0.490365
    13  O   -0.467924
    14  O   -0.459709
    15  C   -0.172952
    16  C   -0.219046
    17  C   -0.173796
    18  C    0.157606
    19  C   -0.175328
    20  C   -0.228256
    21  H    0.222343
    22  H    0.218039
    23  H    0.270905
    24  H    0.284975
    25  H    0.248151
    26  N    0.487923
    27  O   -0.460567
    28  O   -0.465319
 Sum of Mulliken charges =  -0.00000

 Dipole moment (field-independent basis, Debye):
    X=             -7.3778    Y=              4.0990    Z=              0.0072  Tot=              8.4400
 Quadrupole moment (field-independent basis, Debye-Ang):
   XX=            -75.4708   YY=           -102.9477   ZZ=           -106.0302
   XY=             24.6719   XZ=              4.2962   YZ=             -2.4820

 Normal termination of Gaussian 16 at Thu May  6 11:30:48 2021.
