 Gaussian 16, Revision A.03,
 Gaussian 16:  EM64L-G16RevA.03 25-Dec-2016

 -------------
 #p 6-31g* mp2
 -------------

 ------------------------------------------------------
 Input file generated by CHIRIPA (05-May-2021 14:51:09)
 ------------------------------------------------------
 Symbolic Z-matrix:
 Charge =  0 Multiplicity = 1

                         Standard orientation:
 ---------------------------------------------------------------------
 Center     Atomic      Atomic             Coordinates (Angstroms)
 Number     Number       Type             X           Y           Z
 ---------------------------------------------------------------------
      1          6           0       -4.155007   -0.443460    0.132343
      2          6           0       -5.521436   -0.893696   -0.385483
      3          6           0       -6.166140   -1.961589    0.498687
      4          1           0       -3.490250   -1.315477    0.200377
      5          1           0       -4.267519   -0.055709    1.154295
      6          1           0       -5.406607   -1.279202   -1.406666
      7          1           0       -6.182959   -0.020475   -0.452474
      8          1           0       -6.309619   -1.584029    1.516264
      9          1           0       -5.528856   -2.849908    0.556650
     10          1           0       -7.142051   -2.268946    0.110115
     11          6           0       -3.497837    0.623878   -0.740952
     12          6           0       -2.131408    1.074114   -0.223126
     13          6           0       -1.486704    2.142007   -1.107296
     14          1           0       -3.385325    0.236128   -1.762904
     15          1           0       -4.162594    1.495895   -0.808986
     16          1           0       -1.469885    0.200893   -0.156136
     17          1           0       -2.246237    1.459620    0.798057
     18          1           0       -2.123988    3.030326   -1.165259
     19          1           0       -1.343225    1.764447   -2.124874
     20          1           0       -0.510793    2.449364   -0.718724
     21          6           0        3.189329   -0.146892    0.721835
     22          6           0        2.396884    1.158495    0.799169
     23          6           0        1.125033    1.029158    1.637896
     24          1           0        2.548413   -0.933026    0.299739
     25          1           0        3.451052   -0.469630    1.739055
     26          1           0        2.137924    1.479401   -0.217972
     27          1           0        3.039821    1.941660    1.220951
     28          1           0        1.368270    0.732382    2.663256
     29          1           0        0.461249    0.267498    1.216156
     30          1           0        0.573974    1.973847    1.679808
     31          6           0        4.463515   -0.033526   -0.113226
     32          6           0        5.255960   -1.338913   -0.190559
     33          6           0        6.527810   -1.209576   -1.029287
     34          1           0        4.201793    0.289212   -1.130445
     35          1           0        5.104431    0.752608    0.308869
     36          1           0        4.613022   -2.122078   -0.612342
     37          1           0        5.514919   -1.659820    0.826581
     38          1           0        7.191595   -0.447916   -0.607547
     39          1           0        6.284574   -0.912800   -2.054645
     40          1           0        7.078870   -2.154265   -1.071199
 ---------------------------------------------------------------------

 SCF Done:  E(RHF) =  -470.732432431     A.U. after   11 cycles
 E2 =    -0.1583497006D+01 EUMP2 =    -0.47231592943667D+03

 The electronic state is 1-A.
 Alpha  occ. eigenvalues --  -11.21602 -11.21591 -11.21586 -11.21550 -11.21404
 Alpha  occ. eigenvalues --  -11.21383 -11.21345 -11.21321 -11.21071 -11.21063
 Alpha  occ. eigenvalues --  -11.21035 -11.20975  -1.08442  -1.08395  -1.03587
 Alpha  occ. eigenvalues --   -1.03446  -0.96051  -0.95878  -0.86988  -0.86975
 Alpha  occ. eigenvalues --   -0.79706  -0.79467  -0.78276  -0.78181  -0.65107
 Alpha  occ. eigenvalues --   -0.65007  -0.61080  -0.60836  -0.59559  -0.59124
 Alpha  occ. eigenvalues --   -0.57706  -0.57445  -0.55303  -0.55146  -0.52765
 Alpha  occ. eigenvalues --   -0.52564  -0.52476  -0.52249  -0.50001  -0.49842
 Alpha  occ. eigenvalues --   -0.48033  -0.47782  -0.46742  -0.46486  -0.45853
 Alpha  occ. eigenvalues --   -0.45740  -0.45702  -0.45541  -0.43775  -0.43743
 Alpha virt. eigenvalues --    0.21086   0.23120   0.23414   0.25377   0.25854
 Alpha virt. eigenvalues --    0.26578   0.26849   0.27191   0.28012   0.29336
 Alpha virt. eigenvalues --    0.29794   0.30776   0.31127   0.31648   0.32301

 Mulliken charges:
               1
     1  C   -0.298177
     2  C   -0.299586
     3  C   -0.475689
     4  H    0.149187
     5  H    0.149706
     6  H    0.151814
     7  H    0.151954
     8  H    0.155231
     9  H    0.155113
    10  H    0.160200
    11  C   -0.298136
    12  C   -0.299702
    13  C   -0.481254
    14  H    0.149058
    15  H    0.149431
    16  H    0.152987
    17  H    0.152965
    18  H    0.155050
    19  H    0.154445
    20  H    0.165736
    21  C   -0.298088
    22  C   -0.302733
    23  C   -0.479470
    24  H    0.149195
    25  H    0.149682
    26  H    0.153287
    27  H    0.151822
    28  H    0.154614
    29  H    0.160732
    30  H    0.160616
    31  C   -0.298325
    32  C   -0.299640
    33  C   -0.475706
    34  H    0.149585
    35  H    0.149709
    36  H    0.151818
    37  H    0.151937
    38  H    0.155209
    39  H    0.155191
    40  H    0.160230
 Sum of Mulliken charges =  -0.00000

 Dipole moment (field-independent basis, Debye):
    X=             -0.0023    Y=              0.0021    Z=              0.0139  Tot=              0.0143
 Quadrupole moment (field-independent basis, Debye-Ang):
   XX=            -85.6885   YY=            -84.7966   ZZ=            -84.4462
   XY=             -0.6154   XZ=              0.9836   YZ=              1.0411

 Normal termination of Gaussian 16 at Wed May  5 16:36:37 2021.
