 Gaussian 16, Revision A.03,
 Gaussian 16:  EM64L-G16RevA.03 25-Dec-2016

 -------------
 #p 6-31g* mp2
 -------------

 ------------------------------------------------------
 Input file generated by CHIRIPA (05-May-2021 14:51:09)
 ------------------------------------------------------
 Symbolic Z-matrix:
 Charge =  0 Multiplicity = 1

                         Standard orientation:
 ---------------------------------------------------------------------
 Center     Atomic      Atomic             Coordinates (Angstroms)
 Number     Number       Type             X           Y           Z
 ---------------------------------------------------------------------
      1          6           0        2.456370    0.887206    0.159907
      2          6           0        2.189519    2.322561   -0.294551
      3          6           0        2.297827    3.333890    0.847061
      4          1           0        1.745384    0.622787    0.954594
      5          1           0        3.458902    0.831714    0.606275
      6          1           0        1.188328    2.375032   -0.741182
      7          1           0        2.901098    2.583529   -1.088381
      8          1           0        3.299488    3.310887    1.288363
      9          1           0        1.576986    3.101206    1.637534
     10          1           0        2.103352    4.353481    0.499969
     11          6           0        2.351773   -0.135397   -0.970168
     12          6           0        2.618624   -1.570752   -0.515710
     13          6           0        2.510315   -2.582081   -1.657322
     14          1           0        1.349240   -0.079905   -1.416535
     15          1           0        3.062758    0.129022   -1.764854
     16          1           0        1.907044   -1.831720    0.278120
     17          1           0        3.619814   -1.623223   -0.069078
     18          1           0        3.231156   -2.349397   -2.447794
     19          1           0        1.508654   -2.559078   -2.098623
     20          1           0        2.704791   -3.601672   -1.310229
     21          6           0       -1.965471   -0.390882    1.030301
     22          6           0       -1.095353   -1.644199    1.130678
     23          6           0       -0.223578   -1.659580    2.386690
     24          1           0       -1.319758    0.497871    1.041092
     25          1           0       -2.604180   -0.324036    1.921915
     26          1           0       -0.459465   -1.709400    0.238483
     27          1           0       -1.743202   -2.530080    1.119452
     28          1           0       -0.844759   -1.619077    3.287297
     29          1           0        0.446271   -0.793735    2.401322
     30          1           0        0.390206   -2.564270    2.438310
     31          6           0       -2.842671   -0.360927   -0.220040
     32          6           0       -3.712789    0.892390   -0.320417
     33          6           0       -4.584565    0.907771   -1.576429
     34          1           0       -2.203962   -0.427773   -1.111655
     35          1           0       -3.488385   -1.249680   -0.230832
     36          1           0       -3.064941    1.778271   -0.309191
     37          1           0       -4.348677    0.957591    0.571778
     38          1           0       -5.254413    0.041926   -1.591062
     39          1           0       -3.963383    0.867268   -2.477036
     40          1           0       -5.198348    1.812461   -1.628050
 ---------------------------------------------------------------------

 SCF Done:  E(RHF) =  -470.732288951     A.U. after   11 cycles
 E2 =    -0.1585336693D+01 EUMP2 =    -0.47231762564444D+03

 The electronic state is 1-A.
 Alpha  occ. eigenvalues --  -11.21665 -11.21654 -11.21652 -11.21538 -11.21483
 Alpha  occ. eigenvalues --  -11.21440 -11.21423 -11.21382 -11.21140 -11.21114
 Alpha  occ. eigenvalues --  -11.21109 -11.21075  -1.08553  -1.08422  -1.03639
 Alpha  occ. eigenvalues --   -1.03520  -0.96056  -0.96008  -0.87068  -0.87023
 Alpha  occ. eigenvalues --   -0.79689  -0.79596  -0.78327  -0.78279  -0.65592
 Alpha  occ. eigenvalues --   -0.64740  -0.61249  -0.60723  -0.59456  -0.59320
 Alpha  occ. eigenvalues --   -0.57732  -0.57549  -0.55382  -0.55275  -0.52745
 Alpha  occ. eigenvalues --   -0.52688  -0.52514  -0.52394  -0.50076  -0.49907
 Alpha  occ. eigenvalues --   -0.47998  -0.47948  -0.46857  -0.46492  -0.46016
 Alpha  occ. eigenvalues --   -0.45821  -0.45673  -0.45505  -0.43854  -0.43807
 Alpha virt. eigenvalues --    0.18870   0.22791   0.23188   0.24175   0.25647
 Alpha virt. eigenvalues --    0.26360   0.27418   0.27937   0.29007   0.29646
 Alpha virt. eigenvalues --    0.30779   0.31467   0.31687   0.31850   0.32189

 Mulliken charges:
               1
     1  C   -0.305952
     2  C   -0.299436
     3  C   -0.475771
     4  H    0.156235
     5  H    0.150062
     6  H    0.151288
     7  H    0.152353
     8  H    0.155528
     9  H    0.154821
    10  H    0.160497
    11  C   -0.298738
    12  C   -0.309388
    13  C   -0.476154
    14  H    0.148632
    15  H    0.150137
    16  H    0.163430
    17  H    0.152220
    18  H    0.155265
    19  H    0.154862
    20  H    0.160324
    21  C   -0.299070
    22  C   -0.306338
    23  C   -0.482943
    24  H    0.149687
    25  H    0.150090
    26  H    0.157790
    27  H    0.152847
    28  H    0.156829
    29  H    0.159703
    30  H    0.160888
    31  C   -0.298557
    32  C   -0.299709
    33  C   -0.475779
    34  H    0.149066
    35  H    0.150130
    36  H    0.151887
    37  H    0.152189
    38  H    0.155313
    39  H    0.155263
    40  H    0.160500
 Sum of Mulliken charges =  -0.00000

 Dipole moment (field-independent basis, Debye):
    X=             -0.0106    Y=             -0.0135    Z=              0.0287  Tot=              0.0334
 Quadrupole moment (field-independent basis, Debye-Ang):
   XX=            -83.6305   YY=            -85.2652   ZZ=            -85.7396
   XY=              0.5796   XZ=             -1.1756   YZ=             -0.7933

 Normal termination of Gaussian 16 at Thu May  6 05:19:40 2021.
