 Gaussian 16, Revision A.03,
 Gaussian 16:  EM64L-G16RevA.03 25-Dec-2016

 -------------
 #p 6-31g* mp2
 -------------

 ------------------------------------------------------
 Input file generated by CHIRIPA (05-May-2021 14:53:13)
 ------------------------------------------------------
 Symbolic Z-matrix:
 Charge =  0 Multiplicity = 1

                         Standard orientation:
 ---------------------------------------------------------------------
 Center     Atomic      Atomic             Coordinates (Angstroms)
 Number     Number       Type             X           Y           Z
 ---------------------------------------------------------------------
      1          6           0        3.662618    0.011603   -0.667131
      2          6           0        2.247945    0.293045   -0.159709
      3          6           0        1.217074    0.355760   -1.287169
      4          1           0        3.949670    0.791781   -1.385371
      5          1           0        3.664221   -0.938036   -1.219921
      6          1           0        2.249300    1.241184    0.393143
      7          1           0        1.964302   -0.487788    0.557551
      8          1           0        1.186338   -0.592075   -1.834221
      9          1           0        1.472956    1.146722   -1.999563
     10          1           0        0.212741    0.557930   -0.902070
     11          6           0        4.704416   -0.054062    0.448250
     12          6           0        6.119089   -0.335503   -0.059171
     13          6           0        7.149960   -0.398218    1.068288
     14          1           0        4.702813    0.895577    1.001041
     15          1           0        4.417365   -0.834240    1.166490
     16          1           0        6.402733    0.445330   -0.776432
     17          1           0        6.117734   -1.283642   -0.612023
     18          1           0        6.894078   -1.189180    1.780683
     19          1           0        7.180696    0.549616    1.615340
     20          1           0        8.154294   -0.600389    0.683189
     21          6           0       -2.758532    2.487360    0.120921
     22          6           0       -3.467684    1.903751    1.175920
     23          6           0       -3.755805    0.535741    1.166846
     24          6           0       -3.317662   -0.222280    0.082076
     25          6           0       -2.609149    0.329963   -0.983910
     26          6           0       -2.332279    1.699992   -0.953732
     27          1           0       -2.539083    3.550849    0.136167
     28          1           0       -3.799962    2.512784    2.011811
     29          1           0       -4.303071    0.058144    1.970475
     30          1           0       -2.291031   -0.302934   -1.803460
     31          1           0       -1.781360    2.150529   -1.774434
     32          7           0       -3.616727   -1.671600    0.061298
     33          8           0       -3.219652   -2.317651   -0.905958
     34          8           0       -4.242548   -2.134083    1.012664
 ---------------------------------------------------------------------

 SCF Done:  E(RHF) =  -669.534523885     A.U. after   15 cycles
 E2 =    -0.2092398039D+01 EUMP2 =    -0.67162692192358D+03

 The electronic state is 1-A.
 Alpha  occ. eigenvalues --  -20.60791 -20.60786 -15.85845 -11.31227 -11.27794
 Alpha  occ. eigenvalues --  -11.27778 -11.27537 -11.26815 -11.26786 -11.21815
 Alpha  occ. eigenvalues --  -11.21692 -11.21541 -11.21473 -11.21305 -11.21144
 Alpha  occ. eigenvalues --   -1.59866  -1.39419  -1.19415  -1.08798  -1.08574
 Alpha  occ. eigenvalues --   -1.04830  -1.03689  -0.96159  -0.95627  -0.87189
 Alpha  occ. eigenvalues --   -0.86203  -0.82465  -0.79768  -0.78382  -0.77501
 Alpha  occ. eigenvalues --   -0.72063  -0.71190  -0.70506  -0.65205  -0.65063
 Alpha  occ. eigenvalues --   -0.64805  -0.62178  -0.61087  -0.59553  -0.57781
 Alpha  occ. eigenvalues --   -0.55440  -0.55306  -0.53513  -0.52894  -0.52675
 Alpha  occ. eigenvalues --   -0.52387  -0.50093  -0.48823  -0.48815  -0.48073
 Alpha  occ. eigenvalues --   -0.46786  -0.45927  -0.45845  -0.44821  -0.43968
 Alpha  occ. eigenvalues --   -0.37394  -0.36304
 Alpha virt. eigenvalues --    0.05011   0.11201   0.16420   0.21159   0.22776
 Alpha virt. eigenvalues --    0.24264   0.26447   0.26513   0.27457   0.28140
 Alpha virt. eigenvalues --    0.28727   0.30497   0.31422   0.31908   0.32597

 Mulliken charges:
               1
     1  C   -0.298737
     2  C   -0.297547
     3  C   -0.488784
     4  H    0.148188
     5  H    0.151538
     6  H    0.149401
     7  H    0.155513
     8  H    0.158468
     9  H    0.149130
    10  H    0.167105
    11  C   -0.298456
    12  C   -0.299774
    13  C   -0.475797
    14  H    0.148396
    15  H    0.151128
    16  H    0.151303
    17  H    0.152967
    18  H    0.155973
    19  H    0.154610
    20  H    0.160590
    21  C   -0.171504
    22  C   -0.218490
    23  C   -0.171242
    24  C    0.158830
    25  C   -0.171405
    26  C   -0.219502
    27  H    0.225960
    28  H    0.223674
    29  H    0.275793
    30  H    0.278091
    31  H    0.226935
    32  N    0.488153
    33  O   -0.460124
    34  O   -0.460385
 Sum of Mulliken charges =  -0.00000

 Dipole moment (field-independent basis, Debye):
    X=              1.0101    Y=              5.0786    Z=              0.1097  Tot=              5.1792
 Quadrupole moment (field-independent basis, Debye-Ang):
   XX=           -101.9196   YY=            -96.5911   ZZ=            -91.6312
   XY=            -17.5454   XZ=             -3.0629   YZ=              0.8473

 Normal termination of Gaussian 16 at Thu May  6 08:56:02 2021.
