 Gaussian 16, Revision A.03,
 Gaussian 16:  EM64L-G16RevA.03 25-Dec-2016

 -------------
 #p 6-31g* mp2
 -------------

 ------------------------------------------------------
 Input file generated by CHIRIPA (05-May-2021 14:57:21)
 ------------------------------------------------------
 Symbolic Z-matrix:
 Charge =  0 Multiplicity = 1

                         Standard orientation:
 ---------------------------------------------------------------------
 Center     Atomic      Atomic             Coordinates (Angstroms)
 Number     Number       Type             X           Y           Z
 ---------------------------------------------------------------------
      1          6           0       -4.176832    2.347733    0.573196
      2          6           0       -4.877798    1.260493    1.105248
      3          6           0       -4.504085   -0.048910    0.788469
      4          6           0       -3.419655   -0.235405   -0.067406
      5          6           0       -2.701362    0.827192   -0.613513
      6          6           0       -3.092763    2.127999   -0.282977
      7          1           0       -4.474011    3.361570    0.824621
      8          1           0       -5.720102    1.428142    1.770427
      9          1           0       -5.029187   -0.908832    1.186238
     10          1           0       -1.865946    0.628466   -1.273820
     11          1           0       -2.546543    2.970454   -0.697656
     12          7           0       -3.014659   -1.617062   -0.410047
     13          8           0       -2.055699   -1.754680   -1.166417
     14          8           0       -3.663852   -2.536224    0.084247
     15          6           0        5.931446    0.370715    0.516796
     16          6           0        5.288796    1.165089   -0.438448
     17          6           0        3.934387    0.972812   -0.726814
     18          6           0        3.250025   -0.027404   -0.037971
     19          6           0        3.862281   -0.835108    0.919133
     20          6           0        5.217397   -0.625092    1.191349
     21          1           0        6.983859    0.526971    0.734533
     22          1           0        5.840833    1.939193   -0.963865
     23          1           0        3.412133    1.573452   -1.461593
     24          1           0        3.285608   -1.598909    1.426552
     25          1           0        5.713896   -1.243516    1.933701
     26          7           0        1.815799   -0.240349   -0.334702
     27          8           0        1.235142   -1.128181    0.285967
     28          8           0        1.299466    0.484609   -1.182331
 ---------------------------------------------------------------------

 SCF Done:  E(RHF) =  -868.337988052     A.U. after   16 cycles
 E2 =    -0.2599873721D+01 EUMP2 =    -0.87093786177317D+03

 The electronic state is 1-A.
 Alpha  occ. eigenvalues --  -20.60743 -20.60688 -20.59348 -20.59223 -15.85748
 Alpha  occ. eigenvalues --  -15.84339 -11.31149 -11.29861 -11.27741 -11.27693
 Alpha  occ. eigenvalues --  -11.27471 -11.26755 -11.26724 -11.26574 -11.26372
 Alpha  occ. eigenvalues --  -11.26308 -11.25640 -11.25519  -1.59760  -1.58359
 Alpha  occ. eigenvalues --   -1.39319  -1.37901  -1.19321  -1.18090  -1.08709
 Alpha  occ. eigenvalues --   -1.07479  -1.04730  -1.03513  -0.95539  -0.94269
 Alpha  occ. eigenvalues --   -0.86126  -0.84910  -0.82374  -0.81096  -0.77414
 Alpha  occ. eigenvalues --   -0.76083  -0.71965  -0.71082  -0.70570  -0.70430
 Alpha  occ. eigenvalues --   -0.69677  -0.69214  -0.64976  -0.64733  -0.63747
 Alpha  occ. eigenvalues --   -0.63540  -0.62076  -0.60828  -0.55231  -0.54075
 Alpha  occ. eigenvalues --   -0.53057  -0.52823  -0.51858  -0.51613  -0.48731
 Alpha  occ. eigenvalues --   -0.48681  -0.47363  -0.47287  -0.44718  -0.43253
 Alpha  occ. eigenvalues --   -0.37305  -0.36334  -0.36133  -0.35127
 Alpha virt. eigenvalues --    0.05124   0.06448   0.11319   0.12519   0.16608
 Alpha virt. eigenvalues --    0.17864   0.21442   0.22571   0.27354   0.28294
 Alpha virt. eigenvalues --    0.28496   0.29563   0.30999   0.32060   0.32577

 Mulliken charges:
               1
     1  C   -0.171860
     2  C   -0.220068
     3  C   -0.171932
     4  C    0.156973
     5  C   -0.171114
     6  C   -0.221865
     7  H    0.220046
     8  H    0.218112
     9  H    0.271985
    10  H    0.294856
    11  H    0.220889
    12  N    0.487687
    13  O   -0.447152
    14  O   -0.469955
    15  C   -0.170892
    16  C   -0.218542
    17  C   -0.171218
    18  C    0.158584
    19  C   -0.170581
    20  C   -0.218595
    21  H    0.225412
    22  H    0.222686
    23  H    0.273545
    24  H    0.277799
    25  H    0.223958
    26  N    0.489182
    27  O   -0.448890
    28  O   -0.469054
 Sum of Mulliken charges =  -0.00000

 Dipole moment (field-independent basis, Debye):
    X=              4.0552    Y=              5.4061    Z=              2.1473  Tot=              7.0910
 Quadrupole moment (field-independent basis, Debye-Ang):
   XX=            -62.5303   YY=           -105.2103   ZZ=           -102.2531
   XY=            -12.4357   XZ=             -2.7359   YZ=             -4.8092

 Normal termination of Gaussian 16 at Thu May  6 11:11:02 2021.
