 Gaussian 16, Revision A.03,
 Gaussian 16:  EM64L-G16RevA.03 25-Dec-2016

 -------------
 #p 6-31g* mp2
 -------------

 ------------------------------------------------------
 Input file generated by CHIRIPA (05-May-2021 14:57:26)
 ------------------------------------------------------
 Symbolic Z-matrix:
 Charge =  0 Multiplicity = 1

                         Standard orientation:
 ---------------------------------------------------------------------
 Center     Atomic      Atomic             Coordinates (Angstroms)
 Number     Number       Type             X           Y           Z
 ---------------------------------------------------------------------
      1          6           0        3.006209    1.877449    1.442767
      2          6           0        3.797795    0.743499    1.652694
      3          6           0        3.711491   -0.352460    0.788996
      4          6           0        2.818937   -0.280199   -0.279375
      5          6           0        2.016940    0.835405   -0.514993
      6          6           0        2.119871    1.919709    0.361500
      7          1           0        3.079710    2.724289    2.118678
      8          1           0        4.487014    0.707890    2.491595
      9          1           0        4.312557   -1.242836    0.928164
     10          1           0        1.339125    0.841513   -1.359947
     11          1           0        1.503883    2.799038    0.196020
     12          7           0        2.718770   -1.434272   -1.200506
     13          8           0        1.924635   -1.345798   -2.134400
     14          8           0        3.436291   -2.405456   -0.971152
     15          6           0       -3.343344   -1.953792    1.517130
     16          6           0       -4.140821   -1.643797    0.410578
     17          6           0       -3.868700   -0.513913   -0.366506
     18          6           0       -2.786345    0.287580   -0.006777
     19          6           0       -1.973330    0.005243    1.089846
     20          6           0       -2.264047   -1.129734    1.852641
     21          1           0       -3.561958   -2.833491    2.115237
     22          1           0       -4.979667   -2.281964    0.147662
     23          1           0       -4.469782   -0.250526   -1.228333
     24          1           0       -1.143972    0.660438    1.327131
     25          1           0       -1.643009   -1.368027    2.711462
     26          7           0       -2.488419    1.486434   -0.821878
     27          8           0       -1.529082    2.176477   -0.484015
     28          8           0       -3.219882    1.713353   -1.783181
 ---------------------------------------------------------------------

 SCF Done:  E(RHF) =  -868.340350677     A.U. after   16 cycles
 E2 =    -0.2599604222D+01 EUMP2 =    -0.87093995489849D+03

 The electronic state is 1-A.
 Alpha  occ. eigenvalues --  -20.61301 -20.61212 -20.60578 -20.60562 -15.86291
 Alpha  occ. eigenvalues --  -15.85619 -11.31355 -11.30894 -11.27908 -11.27879
 Alpha  occ. eigenvalues --  -11.27591 -11.27506 -11.27309 -11.27172 -11.26861
 Alpha  occ. eigenvalues --  -11.26836 -11.26524 -11.26261  -1.60314  -1.59652
 Alpha  occ. eigenvalues --   -1.39883  -1.39206  -1.19502  -1.19060  -1.08954
 Alpha  occ. eigenvalues --   -1.08477  -1.04869  -1.04403  -0.95841  -0.95319
 Alpha  occ. eigenvalues --   -0.86284  -0.85811  -0.82702  -0.82114  -0.77783
 Alpha  occ. eigenvalues --   -0.77165  -0.72535  -0.71837  -0.71611  -0.70980
 Alpha  occ. eigenvalues --   -0.70620  -0.70147  -0.65172  -0.64880  -0.64681
 Alpha  occ. eigenvalues --   -0.64354  -0.62231  -0.61698  -0.55386  -0.54936
 Alpha  occ. eigenvalues --   -0.53202  -0.53010  -0.52759  -0.52441  -0.49290
 Alpha  occ. eigenvalues --   -0.49237  -0.48598  -0.48584  -0.45352  -0.44629
 Alpha  occ. eigenvalues --   -0.37461  -0.37084  -0.36462  -0.36001
 Alpha virt. eigenvalues --    0.04709   0.05314   0.11148   0.11649   0.16262
 Alpha virt. eigenvalues --    0.16766   0.21263   0.21938   0.27148   0.27570
 Alpha virt. eigenvalues --    0.28431   0.28701   0.30873   0.31454   0.32362

 Mulliken charges:
               1
     1  C   -0.174530
     2  C   -0.219870
     3  C   -0.173697
     4  C    0.156954
     5  C   -0.174986
     6  C   -0.224594
     7  H    0.225056
     8  H    0.221125
     9  H    0.273308
    10  H    0.283486
    11  H    0.241876
    12  N    0.487862
    13  O   -0.459018
    14  O   -0.463239
    15  C   -0.168894
    16  C   -0.217941
    17  C   -0.168972
    18  C    0.158763
    19  C   -0.171115
    20  C   -0.218036
    21  H    0.227052
    22  H    0.224936
    23  H    0.276346
    24  H    0.272779
    25  H    0.223744
    26  N    0.491313
    27  O   -0.475246
    28  O   -0.454461
 Sum of Mulliken charges =  -0.00000

 Dipole moment (field-independent basis, Debye):
    X=             -0.9986    Y=             -0.1278    Z=              5.9947  Tot=              6.0786
 Quadrupole moment (field-independent basis, Debye-Ang):
   XX=            -92.2812   YY=           -109.0714   ZZ=           -104.4637
   XY=             22.7128   XZ=              5.7447   YZ=             -2.2313

 Normal termination of Gaussian 16 at Fri May  7 05:04:07 2021.
