 Gaussian 16, Revision A.03,
 Gaussian 16:  EM64L-G16RevA.03 25-Dec-2016

 -------------
 #p 6-31g* mp2
 -------------

 ------------------------------------------------------
 Input file generated by CHIRIPA (05-May-2021 14:55:22)
 ------------------------------------------------------
 Symbolic Z-matrix:
 Charge =  0 Multiplicity = 1

                         Standard orientation:
 ---------------------------------------------------------------------
 Center     Atomic      Atomic             Coordinates (Angstroms)
 Number     Number       Type             X           Y           Z
 ---------------------------------------------------------------------
      1          6           0        0.267271   -1.951573    0.621284
      2          6           0        0.352897   -1.413810   -0.667126
      3          6           0        1.469903   -0.666159   -1.051654
      4          6           0        2.487450   -0.474999   -0.118194
      5          6           0        2.431416   -0.997846    1.172845
      6          6           0        1.304975   -1.742243    1.535546
      7          1           0       -0.604110   -2.531102    0.911517
      8          1           0       -0.451486   -1.574769   -1.379240
      9          1           0        1.562024   -0.238424   -2.042600
     10          1           0        3.249191   -0.820436    1.860731
     11          1           0        1.241185   -2.158680    2.536823
     12          7           0        3.674968    0.314783   -0.513723
     13          8           0        4.557982    0.468878    0.327217
     14          8           0        3.700246    0.764766   -1.657188
     15          6           0       -3.149231    0.050553   -0.044385
     16          6           0       -4.641224   -0.097936   -0.344211
     17          6           0       -5.057671   -1.552242   -0.566381
     18          1           0       -2.570555   -0.375170   -0.875552
     19          1           0       -2.900431   -0.543195    0.846096
     20          1           0       -4.887408    0.497020   -1.233051
     21          1           0       -5.216415    0.328362    0.487679
     22          1           0       -4.840353   -2.155096    0.321279
     23          1           0       -4.509477   -1.985479   -1.409227
     24          1           0       -6.128035   -1.635310   -0.779178
     25          6           0       -2.717604    1.498669    0.180081
     26          6           0       -1.225612    1.647159    0.479906
     27          6           0       -0.809163    3.101465    0.702077
     28          1           0       -2.966405    2.092417   -0.710401
     29          1           0       -3.296280    1.924392    1.011248
     30          1           0       -0.650420    1.220860   -0.351983
     31          1           0       -0.979427    1.052202    1.368746
     32          1           0       -1.357358    3.534702    1.544923
     33          1           0       -1.026482    3.704317   -0.185584
     34          1           0        0.261200    3.184532    0.914874
 ---------------------------------------------------------------------

 SCF Done:  E(RHF) =  -669.533306973     A.U. after   15 cycles
 E2 =    -0.2095287368D+01 EUMP2 =    -0.67162859434087D+03

 The electronic state is 1-A.
 Alpha  occ. eigenvalues --  -20.60788 -20.60783 -15.85842 -11.31217 -11.27772
 Alpha  occ. eigenvalues --  -11.27739 -11.27471 -11.26801 -11.26732 -11.22279
 Alpha  occ. eigenvalues --  -11.22179 -11.21839 -11.21822 -11.21679 -11.21127
 Alpha  occ. eigenvalues --   -1.59864  -1.39417  -1.19382  -1.09004  -1.08747
 Alpha  occ. eigenvalues --   -1.04798  -1.03971  -0.96463  -0.95603  -0.87469
 Alpha  occ. eigenvalues --   -0.86187  -0.82447  -0.80079  -0.78815  -0.77484
 Alpha  occ. eigenvalues --   -0.72059  -0.71188  -0.70472  -0.65665  -0.65031
 Alpha  occ. eigenvalues --   -0.64775  -0.62141  -0.61382  -0.59857  -0.58063
 Alpha  occ. eigenvalues --   -0.55792  -0.55253  -0.53386  -0.53011  -0.52885
 Alpha  occ. eigenvalues --   -0.52788  -0.50408  -0.48824  -0.48815  -0.48348
 Alpha  occ. eigenvalues --   -0.47136  -0.46267  -0.46253  -0.44819  -0.44255
 Alpha  occ. eigenvalues --   -0.37297  -0.36238
 Alpha virt. eigenvalues --    0.05003   0.11144   0.16388   0.20058   0.22911
 Alpha virt. eigenvalues --    0.23822   0.24796   0.26156   0.27446   0.28396
 Alpha virt. eigenvalues --    0.29454   0.30157   0.31233   0.31486   0.31757

 Mulliken charges:
               1
     1  C   -0.168676
     2  C   -0.214125
     3  C   -0.174430
     4  C    0.161011
     5  C   -0.171397
     6  C   -0.219027
     7  H    0.226564
     8  H    0.225098
     9  H    0.275264
    10  H    0.275588
    11  H    0.223408
    12  N    0.487919
    13  O   -0.460355
    14  O   -0.460482
    15  C   -0.298329
    16  C   -0.299634
    17  C   -0.475817
    18  H    0.141377
    19  H    0.144576
    20  H    0.154548
    21  H    0.154764
    22  H    0.152469
    23  H    0.151627
    24  H    0.164141
    25  C   -0.298383
    26  C   -0.302326
    27  C   -0.476156
    28  H    0.150604
    29  H    0.150657
    30  H    0.155497
    31  H    0.150801
    32  H    0.153914
    33  H    0.155681
    34  H    0.163630
 Sum of Mulliken charges =  -0.00000

 Dipole moment (field-independent basis, Debye):
    X=             -4.1844    Y=             -2.7489    Z=              1.4101  Tot=              5.2013
 Quadrupole moment (field-independent basis, Debye-Ang):
   XX=           -115.4880   YY=            -93.7570   ZZ=            -90.1546
   XY=             -5.7967   XZ=              5.8068   YZ=             -1.4256

 Normal termination of Gaussian 16 at Thu May  6 17:36:03 2021.
