 Gaussian 16, Revision A.03,
 Gaussian 16:  EM64L-G16RevA.03 25-Dec-2016

 -------------
 #p 6-31g* mp2
 -------------

 ------------------------------------------------------
 Input file generated by CHIRIPA (05-May-2021 14:51:13)
 ------------------------------------------------------
 Symbolic Z-matrix:
 Charge =  0 Multiplicity = 1

                         Standard orientation:
 ---------------------------------------------------------------------
 Center     Atomic      Atomic             Coordinates (Angstroms)
 Number     Number       Type             X           Y           Z
 ---------------------------------------------------------------------
      1          6           0       -2.993581   -0.182392   -0.207517
      2          6           0       -3.745870    1.140870   -0.352512
      3          6           0       -4.613009    1.193107   -1.610739
      4          1           0       -2.364699   -0.338443   -1.094704
      5          1           0       -3.718361   -1.008071   -0.188988
      6          1           0       -3.019969    1.963913   -0.369370
      7          1           0       -4.372889    1.293881    0.535211
      8          1           0       -5.358995    0.391893   -1.598023
      9          1           0       -3.998389    1.065731   -2.507744
     10          1           0       -5.141794    2.147688   -1.694539
     11          6           0       -2.122370   -0.249820    1.045548
     12          6           0       -1.370081   -1.573082    1.190543
     13          6           0       -0.502942   -1.625319    2.448770
     14          1           0       -1.397591    0.575859    1.027019
     15          1           0       -2.751252   -0.093769    1.932735
     16          1           0       -0.743063   -1.726094    0.302820
     17          1           0       -2.095982   -2.396125    1.207401
     18          1           0       -1.117563   -1.497943    3.345774
     19          1           0        0.243044   -0.824105    2.436054
     20          1           0        0.025843   -2.579900    2.532570
     21          6           0        2.989070    0.771531   -0.120533
     22          6           0        2.231350    2.083863    0.083512
     23          6           0        3.107175    3.185370    0.681349
     24          1           0        3.395181    0.436270    0.843634
     25          1           0        3.851446    0.952401   -0.777030
     26          1           0        1.369868    1.900287    0.738313
     27          1           0        1.826834    2.415941   -0.881220
     28          1           0        3.959340    3.397392    0.027543
     29          1           0        3.499777    2.878809    1.656277
     30          1           0        2.545529    4.114636    0.818750
     31          6           0        2.126882   -0.339320   -0.717498
     32          6           0        2.884601   -1.651650   -0.921542
     33          6           0        2.008776   -2.753158   -1.519379
     34          1           0        1.264505   -0.520189   -0.061001
     35          1           0        1.720770   -0.004058   -1.681665
     36          1           0        3.289117   -1.983728    0.043189
     37          1           0        3.746083   -1.468075   -1.576344
     38          1           0        1.616174   -2.446596   -2.494308
     39          1           0        1.156612   -2.965180   -0.865573
     40          1           0        2.570422   -3.682424   -1.656781
 ---------------------------------------------------------------------

 SCF Done:  E(RHF) =  -470.732821411     A.U. after   11 cycles
 E2 =    -0.1584606774D+01 EUMP2 =    -0.47231742818589D+03

 The electronic state is 1-A.
 Alpha  occ. eigenvalues --  -11.21671 -11.21622 -11.21616 -11.21592 -11.21433
 Alpha  occ. eigenvalues --  -11.21418 -11.21365 -11.21351 -11.21157 -11.21113
 Alpha  occ. eigenvalues --  -11.21092 -11.21063  -1.08508  -1.08414  -1.03600
 Alpha  occ. eigenvalues --   -1.03532  -0.96022  -0.96003  -0.87035  -0.87021
 Alpha  occ. eigenvalues --   -0.79697  -0.79565  -0.78328  -0.78228  -0.65404
 Alpha  occ. eigenvalues --   -0.64831  -0.61150  -0.60794  -0.59433  -0.59321
 Alpha  occ. eigenvalues --   -0.57667  -0.57578  -0.55386  -0.55217  -0.52709
 Alpha  occ. eigenvalues --   -0.52702  -0.52453  -0.52421  -0.50003  -0.49916
 Alpha  occ. eigenvalues --   -0.48096  -0.47882  -0.46889  -0.46488  -0.46074
 Alpha  occ. eigenvalues --   -0.45789  -0.45683  -0.45324  -0.43820  -0.43800
 Alpha virt. eigenvalues --    0.19342   0.22693   0.23321   0.24339   0.25779
 Alpha virt. eigenvalues --    0.26493   0.26733   0.28114   0.28271   0.29957
 Alpha virt. eigenvalues --    0.30519   0.31220   0.31685   0.31768   0.32371

 Mulliken charges:
               1
     1  C   -0.298337
     2  C   -0.299824
     3  C   -0.475715
     4  H    0.150548
     5  H    0.149512
     6  H    0.152302
     7  H    0.151789
     8  H    0.155148
     9  H    0.155231
    10  H    0.160213
    11  C   -0.300588
    12  C   -0.309124
    13  C   -0.477723
    14  H    0.151379
    15  H    0.149874
    16  H    0.159128
    17  H    0.153235
    18  H    0.156225
    19  H    0.155100
    20  H    0.160460
    21  C   -0.297757
    22  C   -0.302026
    23  C   -0.475674
    24  H    0.149826
    25  H    0.149864
    26  H    0.152613
    27  H    0.151998
    28  H    0.155504
    29  H    0.155457
    30  H    0.160419
    31  C   -0.308468
    32  C   -0.299123
    33  C   -0.480669
    34  H    0.160821
    35  H    0.148790
    36  H    0.152209
    37  H    0.152026
    38  H    0.154930
    39  H    0.159790
    40  H    0.160637
 Sum of Mulliken charges =  -0.00000

 Dipole moment (field-independent basis, Debye):
    X=             -0.0003    Y=             -0.0075    Z=              0.0003  Tot=              0.0075
 Quadrupole moment (field-independent basis, Debye-Ang):
   XX=            -84.7812   YY=            -85.3591   ZZ=            -84.5617
   XY=              0.0794   XZ=             -1.4490   YZ=             -0.7211

 Normal termination of Gaussian 16 at Thu May  6 02:24:12 2021.
