 Gaussian 16, Revision A.03,
 Gaussian 16:  EM64L-G16RevA.03 25-Dec-2016

 -------------
 #p 6-31g* mp2
 -------------

 ------------------------------------------------------
 Input file generated by CHIRIPA (05-May-2021 14:51:09)
 ------------------------------------------------------
 Symbolic Z-matrix:
 Charge =  0 Multiplicity = 1

                         Standard orientation:
 ---------------------------------------------------------------------
 Center     Atomic      Atomic             Coordinates (Angstroms)
 Number     Number       Type             X           Y           Z
 ---------------------------------------------------------------------
      1          6           0        3.103961   -0.529308   -0.342682
      2          6           0        4.431832    0.186929   -0.591172
      3          6           0        4.975519   -0.048075   -2.000772
      4          1           0        3.238770   -1.606648   -0.510339
      5          1           0        2.366978   -0.187638   -1.082624
      6          1           0        5.165699   -0.154965    0.149884
      7          1           0        4.293893    1.262667   -0.422718
      8          1           0        4.264603    0.309827   -2.752506
      9          1           0        5.141362   -1.115860   -2.176651
     10          1           0        5.925268    0.472978   -2.156786
     11          6           0        2.547707   -0.303960    1.062141
     12          6           0        1.219835   -1.020197    1.310631
     13          6           0        0.676148   -0.785193    2.720231
     14          1           0        3.284689   -0.645630    1.802083
     15          1           0        2.412897    0.773380    1.229798
     16          1           0        1.357775   -2.095935    1.142177
     17          1           0        0.485969   -0.678303    0.569575
     18          1           0        0.510305    0.282592    2.896110
     19          1           0        1.387065   -1.143095    3.471965
     20          1           0       -0.273600   -1.306246    2.876245
     21          6           0       -2.502803    0.922616    0.112569
     22          6           0       -2.204275    2.267212   -0.551453
     23          6           0       -1.558184    3.268910    0.406129
     24          1           0       -3.163088    1.085543    0.975369
     25          1           0       -1.568374    0.501917    0.509116
     26          1           0       -3.138768    2.684599   -0.947847
     27          1           0       -1.544779    2.101042   -1.412888
     28          1           0       -0.611727    2.877093    0.792522
     29          1           0       -2.214772    3.463965    1.260205
     30          1           0       -1.353363    4.223129   -0.089221
     31          6           0       -3.148864   -0.089347   -0.832028
     32          6           0       -3.447393   -1.433944   -0.168006
     33          6           0       -4.093483   -2.435641   -1.125589
     34          1           0       -4.083293    0.331351   -1.228576
     35          1           0       -2.488580   -0.252275   -1.694829
     36          1           0       -4.106888   -1.267774    0.693428
     37          1           0       -2.512900   -1.851331    0.228388
     38          1           0       -3.436896   -2.630697   -1.979665
     39          1           0       -5.039941   -2.043825   -1.511982
     40          1           0       -4.298305   -3.389861   -0.630238
 ---------------------------------------------------------------------

 SCF Done:  E(RHF) =  -470.733334991     A.U. after   11 cycles
 E2 =    -0.1583458681D+01 EUMP2 =    -0.47231679367248D+03

 The electronic state is 1-A.
 Alpha  occ. eigenvalues --  -11.21662 -11.21636 -11.21631 -11.21603 -11.21460
 Alpha  occ. eigenvalues --  -11.21402 -11.21400 -11.21338 -11.21120 -11.21106
 Alpha  occ. eigenvalues --  -11.21100 -11.21069  -1.08496  -1.08431  -1.03582
 Alpha  occ. eigenvalues --   -1.03542  -0.96030  -0.95986  -0.87036  -0.87011
 Alpha  occ. eigenvalues --   -0.79649  -0.79603  -0.78345  -0.78210  -0.65290
 Alpha  occ. eigenvalues --   -0.64932  -0.61053  -0.60872  -0.59396  -0.59356
 Alpha  occ. eigenvalues --   -0.57668  -0.57570  -0.55381  -0.55216  -0.52719
 Alpha  occ. eigenvalues --   -0.52683  -0.52444  -0.52418  -0.49987  -0.49921
 Alpha  occ. eigenvalues --   -0.48001  -0.47900  -0.46779  -0.46615  -0.46021
 Alpha  occ. eigenvalues --   -0.45804  -0.45771  -0.45374  -0.43829  -0.43796
 Alpha virt. eigenvalues --    0.19654   0.22981   0.23813   0.24294   0.26046
 Alpha virt. eigenvalues --    0.26376   0.26919   0.27760   0.28358   0.29627
 Alpha virt. eigenvalues --    0.30047   0.31437   0.31735   0.31948   0.32404

 Mulliken charges:
               1
     1  C   -0.298300
     2  C   -0.299734
     3  C   -0.475746
     4  H    0.149828
     5  H    0.149122
     6  H    0.152094
     7  H    0.152144
     8  H    0.155158
     9  H    0.155221
    10  H    0.160444
    11  C   -0.298141
    12  C   -0.306414
    13  C   -0.476562
    14  H    0.150062
    15  H    0.149495
    16  H    0.152412
    17  H    0.155914
    18  H    0.155904
    19  H    0.155527
    20  H    0.161397
    21  C   -0.308222
    22  C   -0.299244
    23  C   -0.475912
    24  H    0.149945
    25  H    0.159695
    26  H    0.152242
    27  H    0.151244
    28  H    0.154224
    29  H    0.155662
    30  H    0.160411
    31  C   -0.297759
    32  C   -0.301149
    33  C   -0.475676
    34  H    0.149642
    35  H    0.149201
    36  H    0.151959
    37  H    0.153183
    38  H    0.155293
    39  H    0.155187
    40  H    0.160249
 Sum of Mulliken charges =  -0.00000

 Dipole moment (field-independent basis, Debye):
    X=              0.0085    Y=             -0.0093    Z=              0.0172  Tot=              0.0214
 Quadrupole moment (field-independent basis, Debye-Ang):
   XX=            -84.0983   YY=            -84.6893   ZZ=            -85.8633
   XY=             -1.1128   XZ=              0.1457   YZ=             -0.7438

 Normal termination of Gaussian 16 at Wed May  5 19:42:43 2021.
