 Gaussian 16, Revision A.03,
 Gaussian 16:  EM64L-G16RevA.03 25-Dec-2016

 -------------
 #p 6-31g* mp2
 -------------

 ------------------------------------------------------
 Input file generated by CHIRIPA (05-May-2021 14:57:22)
 ------------------------------------------------------
 Symbolic Z-matrix:
 Charge =  0 Multiplicity = 1

                         Standard orientation:
 ---------------------------------------------------------------------
 Center     Atomic      Atomic             Coordinates (Angstroms)
 Number     Number       Type             X           Y           Z
 ---------------------------------------------------------------------
      1          6           0        4.461270    2.150289    0.029092
      2          6           0        3.072901    2.019888   -0.080223
      3          6           0        2.480368    0.754608   -0.130393
      4          6           0        3.310012   -0.363943   -0.068547
      5          6           0        4.696354   -0.266722    0.040512
      6          6           0        5.267144    1.008580    0.089005
      7          1           0        4.913119    3.137081    0.067413
      8          1           0        2.444577    2.904800   -0.126951
      9          1           0        1.408254    0.624803   -0.214891
     10          1           0        5.296648   -1.167325    0.084995
     11          1           0        6.345654    1.106826    0.173914
     12          7           0        2.694232   -1.708743   -0.120772
     13          8           0        3.447144   -2.678587   -0.064515
     14          8           0        1.470332   -1.767491   -0.216974
     15          6           0       -3.593019   -2.373667    0.113482
     16          6           0       -4.706985   -1.598529   -0.225285
     17          6           0       -4.617945   -0.203703   -0.258162
     18          6           0       -3.393951    0.385538    0.054764
     19          6           0       -2.266217   -0.359450    0.396083
     20          6           0       -2.378333   -1.752748    0.422539
     21          1           0       -3.671150   -3.456608    0.136527
     22          1           0       -5.651601   -2.078024   -0.465767
     23          1           0       -5.464579    0.420470   -0.517074
     24          1           0       -1.338000    0.147181    0.630930
     25          1           0       -1.511560   -2.352205    0.685982
     26          7           0       -3.287474    1.861369    0.023356
     27          8           0       -2.197803    2.356306    0.303162
     28          8           0       -4.295706    2.495243   -0.280469
 ---------------------------------------------------------------------

 SCF Done:  E(RHF) =  -868.340940390     A.U. after   16 cycles
 E2 =    -0.2598710356D+01 EUMP2 =    -0.87093965074592D+03

 The electronic state is 1-A.
 Alpha  occ. eigenvalues --  -20.61364 -20.61307 -20.60678 -20.60639 -15.86369
 Alpha  occ. eigenvalues --  -15.85698 -11.31387 -11.30748 -11.27912 -11.27893
 Alpha  occ. eigenvalues --  -11.27558 -11.27275 -11.27213 -11.26873 -11.26866
 Alpha  occ. eigenvalues --  -11.26764 -11.26259 -11.25997  -1.60397  -1.59734
 Alpha  occ. eigenvalues --   -1.39966  -1.39301  -1.19516  -1.18857  -1.08973
 Alpha  occ. eigenvalues --   -1.08308  -1.04855  -1.04183  -0.95870  -0.95208
 Alpha  occ. eigenvalues --   -0.86276  -0.85605  -0.82717  -0.82033  -0.77809
 Alpha  occ. eigenvalues --   -0.77120  -0.72611  -0.71933  -0.71696  -0.71045
 Alpha  occ. eigenvalues --   -0.70625  -0.69972  -0.65168  -0.64845  -0.64494
 Alpha  occ. eigenvalues --   -0.64145  -0.62214  -0.61515  -0.55371  -0.54704
 Alpha  occ. eigenvalues --   -0.53214  -0.52939  -0.52558  -0.52235  -0.49374
 Alpha  occ. eigenvalues --   -0.49310  -0.48704  -0.48642  -0.45445  -0.44777
 Alpha  occ. eigenvalues --   -0.37476  -0.36826  -0.36442  -0.35768
 Alpha virt. eigenvalues --    0.04686   0.05343   0.11200   0.11854   0.16262
 Alpha virt. eigenvalues --    0.16946   0.20173   0.22340   0.25108   0.27714
 Alpha virt. eigenvalues --    0.28547   0.29650   0.31106   0.31431   0.31934

 Mulliken charges:
               1
     1  C   -0.170066
     2  C   -0.220397
     3  C   -0.173802
     4  C    0.157297
     5  C   -0.170717
     6  C   -0.218665
     7  H    0.227861
     8  H    0.233382
     9  H    0.278208
    10  H    0.274916
    11  H    0.224050
    12  N    0.491428
    13  O   -0.457283
    14  O   -0.474550
    15  C   -0.171771
    16  C   -0.218362
    17  C   -0.172625
    18  C    0.158480
    19  C   -0.174708
    20  C   -0.220282
    21  H    0.226641
    22  H    0.221615
    23  H    0.272956
    24  H    0.273212
    25  H    0.244175
    26  N    0.488623
    27  O   -0.469300
    28  O   -0.460317
 Sum of Mulliken charges =  -0.00000

 Dipole moment (field-independent basis, Debye):
    X=              2.0691    Y=             -0.5341    Z=              0.3039  Tot=              2.1585
 Quadrupole moment (field-independent basis, Debye-Ang):
   XX=            -79.2281   YY=           -111.9831   ZZ=           -106.1880
   XY=             31.0749   XZ=              1.8928   YZ=             -1.0263

 Normal termination of Gaussian 16 at Thu May  6 22:38:10 2021.
