 Gaussian 16, Revision A.03,
 Gaussian 16:  EM64L-G16RevA.03 25-Dec-2016

 -------------
 #p 6-31g* mp2
 -------------

 ------------------------------------------------------
 Input file generated by CHIRIPA (05-May-2021 14:57:22)
 ------------------------------------------------------
 Symbolic Z-matrix:
 Charge =  0 Multiplicity = 1

                         Standard orientation:
 ---------------------------------------------------------------------
 Center     Atomic      Atomic             Coordinates (Angstroms)
 Number     Number       Type             X           Y           Z
 ---------------------------------------------------------------------
      1          6           0       -2.214298   -1.732701    0.967881
      2          6           0       -3.544765   -2.162009    1.013404
      3          6           0       -4.570256   -1.349484    0.520738
      4          6           0       -4.227904   -0.108026   -0.012991
      5          6           0       -2.911860    0.347810   -0.072413
      6          6           0       -1.902641   -0.481368    0.426073
      7          1           0       -1.423992   -2.370358    1.352857
      8          1           0       -3.789747   -3.133322    1.433617
      9          1           0       -5.608672   -1.657039    0.543569
     10          1           0       -2.698680    1.321206   -0.497235
     11          1           0       -0.870264   -0.145363    0.389418
     12          7           0       -5.304932    0.760973   -0.537635
     13          8           0       -4.977121    1.850357   -1.002842
     14          8           0       -6.456524    0.336254   -0.473711
     15          6           0        2.514779    2.133618    0.608053
     16          6           0        3.815454    2.071496    1.118845
     17          6           0        4.674983    1.033062    0.748154
     18          6           0        4.198854    0.069267   -0.139364
     19          6           0        2.908380    0.103701   -0.665465
     20          6           0        2.066185    1.151254   -0.280904
     21          1           0        1.853808    2.943841    0.901403
     22          1           0        4.166537    2.833030    1.809391
     23          1           0        5.686704    0.960741    1.128428
     24          1           0        2.586845   -0.670010   -1.352052
     25          1           0        1.056565    1.196959   -0.679181
     26          7           0        5.099624   -1.034903   -0.539140
     27          8           0        4.656143   -1.871701   -1.322549
     28          8           0        6.232074   -1.042647   -0.061504
 ---------------------------------------------------------------------

 SCF Done:  E(RHF) =  -868.337261140     A.U. after   16 cycles
 E2 =    -0.2599509231D+01 EUMP2 =    -0.87093677037033D+03

 The electronic state is 1-A.
 Alpha  occ. eigenvalues --  -20.61361 -20.61351 -20.61202 -20.61189 -15.86419
 Alpha  occ. eigenvalues --  -15.86256 -11.31896 -11.31680 -11.28554 -11.28472
 Alpha  occ. eigenvalues --  -11.28329 -11.28269 -11.28222 -11.27984 -11.27625
 Alpha  occ. eigenvalues --  -11.27461 -11.27347 -11.27218  -1.60433  -1.60272
 Alpha  occ. eigenvalues --   -1.39983  -1.39825  -1.20101  -1.19859  -1.09468
 Alpha  occ. eigenvalues --   -1.09232  -1.05534  -1.05287  -0.96277  -0.96059
 Alpha  occ. eigenvalues --   -0.86929  -0.86667  -0.83120  -0.82901  -0.78160
 Alpha  occ. eigenvalues --   -0.77939  -0.72632  -0.72471  -0.71761  -0.71597
 Alpha  occ. eigenvalues --   -0.71184  -0.70947  -0.65752  -0.65671  -0.65512
 Alpha  occ. eigenvalues --   -0.65208  -0.62941  -0.62568  -0.56006  -0.55743
 Alpha  occ. eigenvalues --   -0.53863  -0.53696  -0.53591  -0.53281  -0.49402
 Alpha  occ. eigenvalues --   -0.49381  -0.49234  -0.49223  -0.45364  -0.45218
 Alpha  occ. eigenvalues --   -0.38075  -0.37817  -0.37141  -0.36895
 Alpha virt. eigenvalues --    0.04405   0.04609   0.10388   0.10761   0.15744
 Alpha virt. eigenvalues --    0.16081   0.18881   0.21838   0.24843   0.27533
 Alpha virt. eigenvalues --    0.27901   0.28407   0.29931   0.31486   0.31944

 Mulliken charges:
               1
     1  C   -0.171038
     2  C   -0.218186
     3  C   -0.170093
     4  C    0.159061
     5  C   -0.171938
     6  C   -0.222887
     7  H    0.229411
     8  H    0.226107
     9  H    0.277422
    10  H    0.271300
    11  H    0.219503
    12  N    0.488191
    13  O   -0.461333
    14  O   -0.458400
    15  C   -0.170406
    16  C   -0.218651
    17  C   -0.169116
    18  C    0.158591
    19  C   -0.172140
    20  C   -0.224241
    21  H    0.228423
    22  H    0.226663
    23  H    0.278184
    24  H    0.276505
    25  H    0.219121
    26  N    0.488025
    27  O   -0.459863
    28  O   -0.458216
 Sum of Mulliken charges =  -0.00000

 Dipole moment (field-independent basis, Debye):
    X=              0.7351    Y=              0.7691    Z=              3.3498  Tot=              3.5147
 Quadrupole moment (field-independent basis, Debye-Ang):
   XX=           -157.7031   YY=           -100.9870   ZZ=           -104.5611
   XY=             33.6727   XZ=             -0.0015   YZ=             -0.2911

 Normal termination of Gaussian 16 at Thu May  6 12:52:06 2021.
