 Gaussian 16, Revision A.03,
 Gaussian 16:  EM64L-G16RevA.03 25-Dec-2016

 -------------
 #p 6-31g* mp2
 -------------

 ------------------------------------------------------
 Input file generated by CHIRIPA (05-May-2021 14:53:13)
 ------------------------------------------------------
 Symbolic Z-matrix:
 Charge =  0 Multiplicity = 1

                         Standard orientation:
 ---------------------------------------------------------------------
 Center     Atomic      Atomic             Coordinates (Angstroms)
 Number     Number       Type             X           Y           Z
 ---------------------------------------------------------------------
      1          6           0       -4.436866   -0.143363   -0.292572
      2          6           0       -5.834754    0.130737    0.263094
      3          6           0       -6.865924    0.394712   -0.834539
      4          1           0       -4.116255    0.713805   -0.900368
      5          1           0       -4.482067   -1.007376   -0.969945
      6          1           0       -5.786668    0.993120    0.940293
      7          1           0       -6.151996   -0.727102    0.869795
      8          1           0       -6.943321   -0.466812   -1.505648
      9          1           0       -6.575918    1.263184   -1.434749
     10          1           0       -7.858133    0.588240   -0.415100
     11          6           0       -3.394967   -0.409105    0.792580
     12          6           0       -1.997079   -0.683205    0.236914
     13          6           0       -0.965908   -0.947180    1.334547
     14          1           0       -3.349766    0.454907    1.469954
     15          1           0       -3.715578   -1.266274    1.400376
     16          1           0       -1.679837    0.174634   -0.369786
     17          1           0       -2.045164   -1.545589   -0.440284
     18          1           0       -1.255915   -1.815653    1.934758
     19          1           0       -0.888512   -0.085657    2.005656
     20          1           0        0.026300   -1.140709    0.915109
     21          6           0        3.845199   -2.176657   -0.351553
     22          6           0        2.592702   -1.816686   -0.859682
     23          6           0        2.147003   -0.494066   -0.778578
     24          6           0        2.983333    0.447103   -0.180211
     25          6           0        4.236424    0.119536    0.335302
     26          6           0        4.661622   -1.209104    0.243269
     27          1           0        4.183465   -3.206438   -0.418802
     28          1           0        1.956538   -2.565990   -1.322158
     29          1           0        1.181948   -0.187961   -1.163791
     30          1           0        4.848259    0.888728    0.790736
     31          1           0        5.634807   -1.485787    0.638744
     32          7           0        2.522342    1.850487   -0.088565
     33          8           0        3.277998    2.660875    0.443312
     34          8           0        1.414091    2.113500   -0.550345
 ---------------------------------------------------------------------

 SCF Done:  E(RHF) =  -669.535145793     A.U. after   15 cycles
 E2 =    -0.2092485870D+01 EUMP2 =    -0.67162763166316D+03

 The electronic state is 1-A.
 Alpha  occ. eigenvalues --  -20.60815 -20.60809 -15.85865 -11.31223 -11.27806
 Alpha  occ. eigenvalues --  -11.27786 -11.27548 -11.26815 -11.26805 -11.21577
 Alpha  occ. eigenvalues --  -11.21465 -11.21290 -11.21223 -11.20975 -11.20940
 Alpha  occ. eigenvalues --   -1.59885  -1.39439  -1.19415  -1.08800  -1.08325
 Alpha  occ. eigenvalues --   -1.04827  -1.03443  -0.95901  -0.95627  -0.86909
 Alpha  occ. eigenvalues --   -0.86206  -0.82471  -0.79515  -0.78144  -0.77516
 Alpha  occ. eigenvalues --   -0.72085  -0.71206  -0.70525  -0.65067  -0.64952
 Alpha  occ. eigenvalues --   -0.64807  -0.62201  -0.60821  -0.59284  -0.57533
 Alpha  occ. eigenvalues --   -0.55311  -0.55147  -0.53336  -0.52909  -0.52472
 Alpha  occ. eigenvalues --   -0.52212  -0.49807  -0.48842  -0.48838  -0.47834
 Alpha  occ. eigenvalues --   -0.46530  -0.45683  -0.45592  -0.44842  -0.43708
 Alpha  occ. eigenvalues --   -0.37385  -0.36349
 Alpha virt. eigenvalues --    0.04987   0.11203   0.16432   0.20864   0.23045
 Alpha virt. eigenvalues --    0.24171   0.26330   0.26855   0.27691   0.28001
 Alpha virt. eigenvalues --    0.29195   0.30250   0.31537   0.31694   0.32326

 Mulliken charges:
               1
     1  C   -0.298959
     2  C   -0.299782
     3  C   -0.475789
     4  H    0.152926
     5  H    0.147066
     6  H    0.153477
     7  H    0.150845
     8  H    0.154028
     9  H    0.156407
    10  H    0.160079
    11  C   -0.297837
    12  C   -0.305472
    13  C   -0.480873
    14  H    0.153572
    15  H    0.148125
    16  H    0.161166
    17  H    0.144454
    18  H    0.152611
    19  H    0.161665
    20  H    0.157740
    21  C   -0.170248
    22  C   -0.219263
    23  C   -0.173979
    24  C    0.158859
    25  C   -0.170678
    26  C   -0.218558
    27  H    0.225963
    28  H    0.224601
    29  H    0.281349
    30  H    0.275814
    31  H    0.223686
    32  N    0.488488
    33  O   -0.460124
    34  O   -0.461360
 Sum of Mulliken charges =  -0.00000

 Dipole moment (field-independent basis, Debye):
    X=              1.6821    Y=             -4.8347    Z=             -0.3159  Tot=              5.1287
 Quadrupole moment (field-independent basis, Debye-Ang):
   XX=            -82.0965   YY=            -98.6485   ZZ=            -94.7649
   XY=            -12.9606   XZ=              0.3717   YZ=              1.7068

 Normal termination of Gaussian 16 at Thu May  6 13:41:24 2021.
