 Gaussian 16, Revision A.03,
 Gaussian 16:  EM64L-G16RevA.03 25-Dec-2016

 -------------
 #p 6-31g* mp2
 -------------

 ------------------------------------------------------
 Input file generated by CHIRIPA (05-May-2021 14:57:27)
 ------------------------------------------------------
 Symbolic Z-matrix:
 Charge =  0 Multiplicity = 1

                         Standard orientation:
 ---------------------------------------------------------------------
 Center     Atomic      Atomic             Coordinates (Angstroms)
 Number     Number       Type             X           Y           Z
 ---------------------------------------------------------------------
      1          6           0       -1.641358    0.920468   -0.441757
      2          6           0       -2.741517    1.772955   -0.302343
      3          6           0       -4.026254    1.250927   -0.124897
      4          6           0       -4.175175   -0.134714   -0.091543
      5          6           0       -3.098853   -1.010115   -0.227538
      6          6           0       -1.823216   -0.465901   -0.403977
      7          1           0       -0.646878    1.334609   -0.579210
      8          1           0       -2.603268    2.850032   -0.331287
      9          1           0       -4.895427    1.887910   -0.014401
     10          1           0       -3.268115   -2.079543   -0.194505
     11          1           0       -0.970648   -1.130363   -0.511979
     12          7           0       -5.530451   -0.699105    0.095778
     13          8           0       -5.635100   -1.923448    0.121634
     14          8           0       -6.462405    0.093556    0.213197
     15          6           0        2.106422    1.716447    0.516975
     16          6           0        1.877599    0.355717    0.746259
     17          6           0        2.892760   -0.581119    0.530996
     18          6           0        4.130215   -0.120214    0.084272
     19          6           0        4.389051    1.228820   -0.153218
     20          6           0        3.359210    2.147896    0.068758
     21          1           0        1.312119    2.437306    0.686803
     22          1           0        0.905661    0.017777    1.094364
     23          1           0        2.742838   -1.640460    0.700518
     24          1           0        5.368385    1.535442   -0.500073
     25          1           0        3.539771    3.204039   -0.110144
     26          7           0        5.212690   -1.102598   -0.147171
     27          8           0        6.294062   -0.670999   -0.540865
     28          8           0        4.959267   -2.285588    0.069501
 ---------------------------------------------------------------------

 SCF Done:  E(RHF) =  -868.336150125     A.U. after   16 cycles
 E2 =    -0.2601859575D+01 EUMP2 =    -0.87093800969994D+03

 The electronic state is 1-A.
 Alpha  occ. eigenvalues --  -20.61512 -20.61506 -20.61323 -20.61317 -15.86571
 Alpha  occ. eigenvalues --  -15.86382 -11.32153 -11.31921 -11.28754 -11.28699
 Alpha  occ. eigenvalues --  -11.28589 -11.28507 -11.28501 -11.28308 -11.27833
 Alpha  occ. eigenvalues --  -11.27782 -11.27595 -11.27578  -1.60582  -1.60394
 Alpha  occ. eigenvalues --   -1.40129  -1.39942  -1.20354  -1.20120  -1.09749
 Alpha  occ. eigenvalues --   -1.09489  -1.05780  -1.05540  -0.96546  -0.96284
 Alpha  occ. eigenvalues --   -0.87212  -0.86920  -0.83347  -0.83117  -0.78350
 Alpha  occ. eigenvalues --   -0.78114  -0.72790  -0.72597  -0.71907  -0.71730
 Alpha  occ. eigenvalues --   -0.71719  -0.71074  -0.66018  -0.65982  -0.65740
 Alpha  occ. eigenvalues --   -0.65397  -0.63138  -0.62818  -0.56477  -0.55976
 Alpha  occ. eigenvalues --   -0.54068  -0.54012  -0.53738  -0.53597  -0.49561
 Alpha  occ. eigenvalues --   -0.49527  -0.49370  -0.49340  -0.45486  -0.45309
 Alpha  occ. eigenvalues --   -0.38386  -0.38128  -0.37368  -0.37138
 Alpha virt. eigenvalues --    0.04140   0.04379   0.10078   0.10384   0.15468
 Alpha virt. eigenvalues --    0.15758   0.19273   0.22021   0.24761   0.26276
 Alpha virt. eigenvalues --    0.27653   0.29388   0.29519   0.31025   0.32459

 Mulliken charges:
               1
     1  C   -0.179672
     2  C   -0.219592
     3  C   -0.169370
     4  C    0.159162
     5  C   -0.169406
     6  C   -0.225066
     7  H    0.227375
     8  H    0.222951
     9  H    0.277941
    10  H    0.278657
    11  H    0.223790
    12  N    0.487924
    13  O   -0.458044
    14  O   -0.458560
    15  C   -0.178006
    16  C   -0.227083
    17  C   -0.171688
    18  C    0.160234
    19  C   -0.169587
    20  C   -0.217656
    21  H    0.222585
    22  H    0.227755
    23  H    0.277451
    24  H    0.279093
    25  H    0.226521
    26  N    0.487913
    27  O   -0.457378
    28  O   -0.458244
 Sum of Mulliken charges =  -0.00000

 Dipole moment (field-independent basis, Debye):
    X=              1.0501    Y=              5.3755    Z=              0.1320  Tot=              5.4787
 Quadrupole moment (field-independent basis, Debye-Ang):
   XX=           -172.1162   YY=            -99.2987   ZZ=           -105.8229
   XY=              6.5997   XZ=              4.3463   YZ=             -0.8893

 Normal termination of Gaussian 16 at Fri May  7 02:03:17 2021.
