 Gaussian 16, Revision A.03,
 Gaussian 16:  EM64L-G16RevA.03 25-Dec-2016

 -------------
 #p 6-31g* mp2
 -------------

 ------------------------------------------------------
 Input file generated by CHIRIPA (05-May-2021 14:57:22)
 ------------------------------------------------------
 Symbolic Z-matrix:
 Charge =  0 Multiplicity = 1

                         Standard orientation:
 ---------------------------------------------------------------------
 Center     Atomic      Atomic             Coordinates (Angstroms)
 Number     Number       Type             X           Y           Z
 ---------------------------------------------------------------------
      1          6           0       -2.375580    2.296816    1.134964
      2          6           0       -2.005344    2.012052   -0.183503
      3          6           0       -2.396851    0.813716   -0.787871
      4          6           0       -3.161634   -0.081213   -0.041211
      5          6           0       -3.546315    0.173769    1.274195
      6          6           0       -3.143530    1.378385    1.858330
      7          1           0       -2.067067    3.230151    1.596593
      8          1           0       -1.408976    2.723456   -0.747679
      9          1           0       -2.124174    0.567906   -1.807009
     10          1           0       -4.141141   -0.555009    1.811301
     11          1           0       -3.432522    1.596878    2.882434
     12          7           0       -3.582075   -1.353161   -0.670319
     13          8           0       -4.255566   -2.125034    0.008842
     14          8           0       -3.230164   -1.554158   -1.830662
     15          6           0        2.768911    2.222921   -0.918343
     16          6           0        3.985846    1.850441   -0.337956
     17          6           0        4.176223    0.550372    0.139667
     18          6           0        3.123608   -0.355739    0.020269
     19          6           0        1.899477   -0.014922   -0.553000
     20          6           0        1.731439    1.290694   -1.023826
     21          1           0        2.629698    3.235001   -1.286732
     22          1           0        4.793313    2.572322   -0.254713
     23          1           0        5.108037    0.235279    0.593381
     24          1           0        1.113028   -0.756643   -0.622043
     25          1           0        0.785272    1.577165   -1.474101
     26          7           0        3.313327   -1.735000    0.522310
     27          8           0        2.370375   -2.514615    0.405353
     28          8           0        4.401389   -2.010334    1.023259
 ---------------------------------------------------------------------

 SCF Done:  E(RHF) =  -868.336193339     A.U. after   16 cycles
 E2 =    -0.2600932613D+01 EUMP2 =    -0.87093712595237D+03

 The electronic state is 1-A.
 Alpha  occ. eigenvalues --  -20.61118 -20.61099 -20.60874 -20.60857 -15.86175
 Alpha  occ. eigenvalues --  -15.85927 -11.31739 -11.31431 -11.28417 -11.28258
 Alpha  occ. eigenvalues --  -11.28082 -11.28027 -11.28018 -11.27865 -11.27497
 Alpha  occ. eigenvalues --  -11.27300 -11.27145 -11.27078  -1.60181  -1.59943
 Alpha  occ. eigenvalues --   -1.39731  -1.39491  -1.19929  -1.19638  -1.09275
 Alpha  occ. eigenvalues --   -1.09022  -1.05392  -1.05055  -0.96079  -0.95822
 Alpha  occ. eigenvalues --   -0.86767  -0.86464  -0.82944  -0.82639  -0.77974
 Alpha  occ. eigenvalues --   -0.77641  -0.72387  -0.72141  -0.71507  -0.71270
 Alpha  occ. eigenvalues --   -0.71017  -0.70763  -0.65602  -0.65493  -0.65294
 Alpha  occ. eigenvalues --   -0.65026  -0.62818  -0.62309  -0.55839  -0.55601
 Alpha  occ. eigenvalues --   -0.53716  -0.53528  -0.53359  -0.53086  -0.49161
 Alpha  occ. eigenvalues --   -0.49131  -0.48917  -0.48886  -0.45094  -0.44865
 Alpha  occ. eigenvalues --   -0.37902  -0.37650  -0.37082  -0.36534
 Alpha virt. eigenvalues --    0.04570   0.04894   0.10471   0.11119   0.15866
 Alpha virt. eigenvalues --    0.16381   0.18989   0.21985   0.24986   0.27178
 Alpha virt. eigenvalues --    0.28038   0.28911   0.29966   0.31299   0.32169

 Mulliken charges:
               1
     1  C   -0.169840
     2  C   -0.217663
     3  C   -0.177172
     4  C    0.160368
     5  C   -0.168518
     6  C   -0.217480
     7  H    0.226776
     8  H    0.215551
     9  H    0.272848
    10  H    0.279192
    11  H    0.226671
    12  N    0.488477
    13  O   -0.456125
    14  O   -0.460465
    15  C   -0.172669
    16  C   -0.218588
    17  C   -0.170459
    18  C    0.158434
    19  C   -0.170145
    20  C   -0.217262
    21  H    0.222596
    22  H    0.223743
    23  H    0.276669
    24  H    0.279807
    25  H    0.214693
    26  N    0.487744
    27  O   -0.456747
    28  O   -0.460439
 Sum of Mulliken charges =  -0.00000

 Dipole moment (field-independent basis, Debye):
    X=              0.6632    Y=              9.1378    Z=              0.6738  Tot=              9.1866
 Quadrupole moment (field-independent basis, Debye-Ang):
   XX=           -112.6773   YY=           -109.7245   ZZ=           -102.0144
   XY=              3.1362   XZ=            -13.8625   YZ=             -0.2174

 Normal termination of Gaussian 16 at Fri May  7 03:16:52 2021.
