 Gaussian 16, Revision A.03,
 Gaussian 16:  EM64L-G16RevA.03 25-Dec-2016

 -------------
 #p 6-31g* mp2
 -------------

 ------------------------------------------------------
 Input file generated by CHIRIPA (05-May-2021 14:55:25)
 ------------------------------------------------------
 Symbolic Z-matrix:
 Charge =  0 Multiplicity = 1

                         Standard orientation:
 ---------------------------------------------------------------------
 Center     Atomic      Atomic             Coordinates (Angstroms)
 Number     Number       Type             X           Y           Z
 ---------------------------------------------------------------------
      1          6           0       -3.262373    2.711863    0.235787
      2          6           0       -3.707242    2.073597   -0.926637
      3          6           0       -3.573857    0.689545   -1.072090
      4          6           0       -2.988285   -0.028610   -0.030626
      5          6           0       -2.535249    0.578408    1.139664
      6          6           0       -2.678825    1.963550    1.263416
      7          1           0       -3.369947    3.787451    0.340349
      8          1           0       -4.160819    2.652212   -1.726336
      9          1           0       -3.909612    0.169919   -1.961290
     10          1           0       -2.087165   -0.025094    1.919679
     11          1           0       -2.332427    2.456562    2.167292
     12          7           0       -2.841682   -1.494421   -0.173124
     13          8           0       -2.322361   -2.104566    0.758899
     14          8           0       -3.248871   -2.005423   -1.214138
     15          6           0        4.384220    0.211936    0.272885
     16          6           0        5.420458    0.610319   -0.778537
     17          6           0        6.470641    1.580029   -0.235792
     18          1           0        3.889084    1.116540    0.651667
     19          1           0        4.898476   -0.244971    1.129724
     20          1           0        4.904277    1.065080   -1.633735
     21          1           0        5.913051   -0.295355   -1.154998
     22          1           0        7.011584    1.131677    0.603829
     23          1           0        5.997079    2.499844    0.122372
     24          1           0        7.201408    1.851575   -1.003972
     25          6           0        3.327643   -0.757149   -0.254605
     26          6           0        2.291406   -1.155531    0.796817
     27          6           0        1.241223   -2.125241    0.254072
     28          1           0        2.813388   -0.300242   -1.111444
     29          1           0        3.822779   -1.661753   -0.633387
     30          1           0        1.798813   -0.249857    1.173278
     31          1           0        2.807587   -1.610293    1.652016
     32          1           0        1.714784   -3.045056   -0.104091
     33          1           0        0.700279   -1.676891   -0.585548
     34          1           0        0.510456   -2.396788    1.022252
 ---------------------------------------------------------------------

 SCF Done:  E(RHF) =  -669.535813479     A.U. after   15 cycles
 E2 =    -0.2091315524D+01 EUMP2 =    -0.67162712900302D+03

 The electronic state is 1-A.
 Alpha  occ. eigenvalues --  -20.60859 -20.60843 -15.85886 -11.31246 -11.27814
 Alpha  occ. eigenvalues --  -11.27810 -11.27557 -11.26830 -11.26820 -11.21467
 Alpha  occ. eigenvalues --  -11.21193 -11.21138 -11.21029 -11.21001 -11.20127
 Alpha  occ. eigenvalues --   -1.59912  -1.39469  -1.19417  -1.08815  -1.08141
 Alpha  occ. eigenvalues --   -1.04819  -1.03168  -0.95665  -0.95569  -0.86587
 Alpha  occ. eigenvalues --   -0.86217  -0.82487  -0.79244  -0.77953  -0.77533
 Alpha  occ. eigenvalues --   -0.72118  -0.71230  -0.70526  -0.65074  -0.64824
 Alpha  occ. eigenvalues --   -0.64782  -0.62167  -0.60580  -0.58967  -0.57189
 Alpha  occ. eigenvalues --   -0.55323  -0.54888  -0.53151  -0.52912  -0.52218
 Alpha  occ. eigenvalues --   -0.52004  -0.49549  -0.48876  -0.48860  -0.47546
 Alpha  occ. eigenvalues --   -0.46321  -0.45485  -0.45434  -0.44864  -0.43335
 Alpha  occ. eigenvalues --   -0.37397  -0.36422
 Alpha virt. eigenvalues --    0.04973   0.11219   0.16445   0.21277   0.23088
 Alpha virt. eigenvalues --    0.24540   0.26827   0.27197   0.27706   0.27933
 Alpha virt. eigenvalues --    0.28694   0.30883   0.31700   0.31878   0.32148

 Mulliken charges:
               1
     1  C   -0.170772
     2  C   -0.218568
     3  C   -0.171081
     4  C    0.158279
     5  C   -0.170675
     6  C   -0.218682
     7  H    0.225800
     8  H    0.223649
     9  H    0.275779
    10  H    0.275731
    11  H    0.223703
    12  N    0.489144
    13  O   -0.459455
    14  O   -0.459609
    15  C   -0.297427
    16  C   -0.299292
    17  C   -0.475369
    18  H    0.146565
    19  H    0.149197
    20  H    0.151096
    21  H    0.152604
    22  H    0.155177
    23  H    0.153572
    24  H    0.159757
    25  C   -0.297399
    26  C   -0.300077
    27  C   -0.477938
    28  H    0.148225
    29  H    0.150488
    30  H    0.144148
    31  H    0.150314
    32  H    0.153927
    33  H    0.150334
    34  H    0.178854
 Sum of Mulliken charges =  -0.00000

 Dipole moment (field-independent basis, Debye):
    X=             -0.6889    Y=              5.0624    Z=              0.5136  Tot=              5.1348
 Quadrupole moment (field-independent basis, Debye-Ang):
   XX=            -92.2913   YY=            -95.2445   ZZ=            -90.8612
   XY=            -16.9135   XZ=              0.6977   YZ=             -0.8791

 Normal termination of Gaussian 16 at Thu May  6 19:24:05 2021.
