 Gaussian 16, Revision A.03,
 Gaussian 16:  EM64L-G16RevA.03 25-Dec-2016

 -------------
 #p 6-31g* mp2
 -------------

 ------------------------------------------------------
 Input file generated by CHIRIPA (05-May-2021 14:55:22)
 ------------------------------------------------------
 Symbolic Z-matrix:
 Charge =  0 Multiplicity = 1

                         Standard orientation:
 ---------------------------------------------------------------------
 Center     Atomic      Atomic             Coordinates (Angstroms)
 Number     Number       Type             X           Y           Z
 ---------------------------------------------------------------------
      1          6           0       -1.068364   -2.126226    0.139762
      2          6           0       -2.425455   -2.445965    0.251978
      3          6           0       -3.399427   -1.446198    0.172027
      4          6           0       -2.978968   -0.131262   -0.021483
      5          6           0       -1.634625    0.218998   -0.137021
      6          6           0       -0.677969   -0.797108   -0.054038
      7          1           0       -0.318485   -2.909215    0.203048
      8          1           0       -2.731554   -3.477316    0.402525
      9          1           0       -4.456888   -1.665763    0.255605
     10          1           0       -1.360187    1.256159   -0.286683
     11          1           0        0.375248   -0.545863   -0.141531
     12          7           0       -4.000903    0.935795   -0.107729
     13          8           0       -3.604562    2.086607   -0.278559
     14          8           0       -5.178887    0.601138   -0.002866
     15          6           0        3.399923   -0.344706    0.006142
     16          6           0        4.589757   -1.290325   -0.161438
     17          6           0        4.178462   -2.762945   -0.165825
     18          1           0        2.878595   -0.584070    0.943088
     19          1           0        2.681384   -0.523262   -0.805778
     20          1           0        5.306488   -1.109080    0.649773
     21          1           0        5.108427   -1.048556   -1.098000
     22          1           0        3.481004   -2.965689   -0.985000
     23          1           0        3.680190   -3.026557    0.772703
     24          1           0        5.044399   -3.421268   -0.286752
     25          6           0        3.795062    1.130948    0.012465
     26          6           0        2.605228    2.076567    0.180046
     27          6           0        3.016523    3.549187    0.184432
     28          1           0        4.513600    1.309505    0.824385
     29          1           0        4.316389    1.370312   -0.924481
     30          1           0        2.086558    1.834798    1.116606
     31          1           0        1.888497    1.895322   -0.631166
     32          1           0        3.514795    3.812799   -0.754095
     33          1           0        3.713981    3.751931    1.003607
     34          1           0        2.150586    4.207510    0.305359
 ---------------------------------------------------------------------

 SCF Done:  E(RHF) =  -669.535666037     A.U. after   15 cycles
 E2 =    -0.2092073638D+01 EUMP2 =    -0.67162773967525D+03

 The electronic state is 1-A.
 Alpha  occ. eigenvalues --  -20.60675 -20.60670 -15.85725 -11.31059 -11.27629
 Alpha  occ. eigenvalues --  -11.27595 -11.27342 -11.26644 -11.26518 -11.22589
 Alpha  occ. eigenvalues --  -11.22527 -11.22500 -11.22267 -11.22053 -11.21645
 Alpha  occ. eigenvalues --   -1.59751  -1.39305  -1.19221  -1.09416  -1.08621
 Alpha  occ. eigenvalues --   -1.04613  -1.04410  -0.96859  -0.95465  -0.87868
 Alpha  occ. eigenvalues --   -0.86018  -0.82300  -0.80500  -0.79307  -0.77332
 Alpha  occ. eigenvalues --   -0.71945  -0.71073  -0.70331  -0.66035  -0.64868
 Alpha  occ. eigenvalues --   -0.64616  -0.61974  -0.61791  -0.60225  -0.58481
 Alpha  occ. eigenvalues --   -0.56142  -0.55120  -0.53514  -0.53316  -0.52954
 Alpha  occ. eigenvalues --   -0.52673  -0.50787  -0.48817  -0.48703  -0.48697
 Alpha  occ. eigenvalues --   -0.47528  -0.46720  -0.46704  -0.44718  -0.44689
 Alpha  occ. eigenvalues --   -0.37206  -0.36218
 Alpha virt. eigenvalues --    0.05173   0.11395   0.16657   0.19850   0.22595
 Alpha virt. eigenvalues --    0.22897   0.24911   0.25755   0.26709   0.27871
 Alpha virt. eigenvalues --    0.29837   0.30616   0.30864   0.31275   0.31945

 Mulliken charges:
               1
     1  C   -0.174781
     2  C   -0.218393
     3  C   -0.171648
     4  C    0.159200
     5  C   -0.175050
     6  C   -0.229519
     7  H    0.225986
     8  H    0.222757
     9  H    0.274999
    10  H    0.275971
    11  H    0.240788
    12  N    0.488042
    13  O   -0.460797
    14  O   -0.460951
    15  C   -0.307808
    16  C   -0.298426
    17  C   -0.477667
    18  H    0.149140
    19  H    0.145470
    20  H    0.156081
    21  H    0.155856
    22  H    0.152735
    23  H    0.153257
    24  H    0.165260
    25  C   -0.297320
    26  C   -0.304923
    27  C   -0.476310
    28  H    0.153809
    29  H    0.153415
    30  H    0.153016
    31  H    0.147341
    32  H    0.157570
    33  H    0.157659
    34  H    0.165242
 Sum of Mulliken charges =  -0.00000

 Dipole moment (field-independent basis, Debye):
    X=              3.9390    Y=             -3.6505    Z=              0.3259  Tot=              5.3803
 Quadrupole moment (field-independent basis, Debye-Ang):
   XX=           -112.7900   YY=            -92.4897   ZZ=            -94.5448
   XY=             13.6714   XZ=             -1.3799   YZ=             -0.4789

 Normal termination of Gaussian 16 at Thu May  6 15:51:55 2021.
