 Gaussian 16, Revision A.03,
 Gaussian 16:  EM64L-G16RevA.03 25-Dec-2016

 -------------
 #p 6-31g* mp2
 -------------

 ------------------------------------------------------
 Input file generated by CHIRIPA (05-May-2021 14:57:21)
 ------------------------------------------------------
 Symbolic Z-matrix:
 Charge =  0 Multiplicity = 1

                         Standard orientation:
 ---------------------------------------------------------------------
 Center     Atomic      Atomic             Coordinates (Angstroms)
 Number     Number       Type             X           Y           Z
 ---------------------------------------------------------------------
      1          6           0        0.652078   -1.699349   -0.074775
      2          6           0        0.990248   -1.027575    1.104581
      3          6           0        2.155848   -0.258790    1.174544
      4          6           0        2.963937   -0.183381    0.041145
      5          6           0        2.654113   -0.841028   -1.148309
      6          6           0        1.483623   -1.604099   -1.195481
      7          1           0       -0.255287   -2.294340   -0.120272
      8          1           0        0.346346   -1.099744    1.976491
      9          1           0        2.441563    0.271562    2.074829
     10          1           0        3.315868   -0.750091   -2.001086
     11          1           0        1.223503   -2.124729   -2.112719
     12          7           0        4.200494    0.627472    0.103147
     13          8           0        4.895636    0.677871   -0.909214
     14          8           0        4.451150    1.197267    1.162931
     15          6           0       -3.002340   -2.165349    0.350005
     16          6           0       -2.916899   -1.662045   -0.952264
     17          6           0       -2.782518   -0.288438   -1.175190
     18          6           0       -2.736723    0.557006   -0.067752
     19          6           0       -2.819369    0.086039    1.241694
     20          6           0       -2.953389   -1.291241    1.440905
     21          1           0       -3.106591   -3.233826    0.513968
     22          1           0       -2.954641   -2.338534   -1.801371
     23          1           0       -2.714182    0.128104   -2.172808
     24          1           0       -2.778846    0.785200    2.068101
     25          1           0       -3.019514   -1.679294    2.453371
     26          7           0       -2.594650    2.013126   -0.291201
     27          8           0       -2.556754    2.737024    0.701358
     28          8           0       -2.523880    2.402964   -1.454668
 ---------------------------------------------------------------------

 SCF Done:  E(RHF) =  -868.335730661     A.U. after   16 cycles
 E2 =    -0.2603894496D+01 EUMP2 =    -0.87093962515721D+03

 The electronic state is 1-A.
 Alpha  occ. eigenvalues --  -20.61495 -20.61489 -20.60629 -20.60623 -15.86560
 Alpha  occ. eigenvalues --  -15.85688 -11.32261 -11.31089 -11.28889 -11.28853
 Alpha  occ. eigenvalues --  -11.28684 -11.27984 -11.27943 -11.27707 -11.27693
 Alpha  occ. eigenvalues --  -11.27332 -11.26724 -11.26686  -1.60560  -1.59703
 Alpha  occ. eigenvalues --   -1.40106  -1.39256  -1.20500  -1.19283  -1.09844
 Alpha  occ. eigenvalues --   -1.08661  -1.05939  -1.04709  -0.96600  -0.95492
 Alpha  occ. eigenvalues --   -0.87311  -0.86105  -0.83417  -0.82338  -0.78391
 Alpha  occ. eigenvalues --   -0.77379  -0.72774  -0.71909  -0.71883  -0.71578
 Alpha  occ. eigenvalues --   -0.71026  -0.70442  -0.66129  -0.65917  -0.64938
 Alpha  occ. eigenvalues --   -0.64759  -0.63245  -0.62075  -0.56423  -0.55650
 Alpha  occ. eigenvalues --   -0.54002  -0.53954  -0.52891  -0.52782  -0.49557
 Alpha  occ. eigenvalues --   -0.49508  -0.48671  -0.48657  -0.45438  -0.44654
 Alpha  occ. eigenvalues --   -0.38493  -0.37670  -0.37145  -0.36275
 Alpha virt. eigenvalues --    0.04084   0.05195   0.09970   0.11339   0.15427
 Alpha virt. eigenvalues --    0.16648   0.20029   0.21856   0.25701   0.27085
 Alpha virt. eigenvalues --    0.27598   0.28939   0.29809   0.31443   0.31965

 Mulliken charges:
               1
     1  C   -0.168460
     2  C   -0.222088
     3  C   -0.169406
     4  C    0.158438
     5  C   -0.169235
     6  C   -0.222379
     7  H    0.226615
     8  H    0.217403
     9  H    0.275896
    10  H    0.275544
    11  H    0.218807
    12  N    0.488373
    13  O   -0.460517
    14  O   -0.459911
    15  C   -0.185213
    16  C   -0.224833
    17  C   -0.165570
    18  C    0.164246
    19  C   -0.170985
    20  C   -0.221647
    21  H    0.228831
    22  H    0.225759
    23  H    0.279724
    24  H    0.279386
    25  H    0.226516
    26  N    0.488169
    27  O   -0.457057
    28  O   -0.456408
 Sum of Mulliken charges =  -0.00000

 Dipole moment (field-independent basis, Debye):
    X=             -5.1084    Y=             -7.6981    Z=              0.5218  Tot=              9.2536
 Quadrupole moment (field-independent basis, Debye-Ang):
   XX=           -128.6747   YY=           -110.5973   ZZ=            -95.5313
   XY=              5.6916   XZ=             -4.0822   YZ=              2.8875

 Normal termination of Gaussian 16 at Wed May  5 20:56:41 2021.
