 Gaussian 16, Revision A.03,
 Gaussian 16:  EM64L-G16RevA.03 25-Dec-2016

 -------------
 #p 6-31g* mp2
 -------------

 ------------------------------------------------------
 Input file generated by CHIRIPA (05-May-2021 14:57:26)
 ------------------------------------------------------
 Symbolic Z-matrix:
 Charge =  0 Multiplicity = 1

                         Standard orientation:
 ---------------------------------------------------------------------
 Center     Atomic      Atomic             Coordinates (Angstroms)
 Number     Number       Type             X           Y           Z
 ---------------------------------------------------------------------
      1          6           0       -5.457819   -0.456319    0.528615
      2          6           0       -4.841500    0.793160    0.653014
      3          6           0       -3.505033    0.965834    0.280739
      4          6           0       -2.811567   -0.137476   -0.214339
      5          6           0       -3.397712   -1.394964   -0.350157
      6          6           0       -4.735232   -1.544475    0.028308
      7          1           0       -6.496427   -0.581460    0.820211
      8          1           0       -5.400222    1.640007    1.041245
      9          1           0       -3.003274    1.922019    0.366565
     10          1           0       -2.814958   -2.220478   -0.740469
     11          1           0       -5.211292   -2.516002   -0.069400
     12          7           0       -1.396152    0.033066   -0.611727
     13          8           0       -0.806983   -0.954711   -1.045102
     14          8           0       -0.902721    1.151283   -0.482300
     15          6           0        4.190307   -2.072202    0.363683
     16          6           0        4.065140   -1.467523   -0.891393
     17          6           0        3.432366   -0.227760   -1.022278
     18          6           0        2.934105    0.381924    0.128076
     19          6           0        3.043289   -0.195100    1.392358
     20          6           0        3.679882   -1.435184    1.499551
     21          1           0        4.683345   -3.035404    0.456155
     22          1           0        4.460592   -1.959927   -1.775250
     23          1           0        3.321769    0.262804   -1.981722
     24          1           0        2.639056    0.320110    2.255243
     25          1           0        3.775652   -1.902434    2.475538
     26          7           0        2.262194    1.694576    0.002054
     27          8           0        1.831692    2.211143    1.030870
     28          8           0        2.178775    2.182009   -1.123150
 ---------------------------------------------------------------------

 SCF Done:  E(RHF) =  -868.337352518     A.U. after   16 cycles
 E2 =    -0.2601209881D+01 EUMP2 =    -0.87093856239918D+03

 The electronic state is 1-A.
 Alpha  occ. eigenvalues --  -20.60476 -20.60357 -20.59048 -20.59003 -15.85432
 Alpha  occ. eigenvalues --  -15.84101 -11.30879 -11.29766 -11.27499 -11.27408
 Alpha  occ. eigenvalues --  -11.27240 -11.26526 -11.26470 -11.26439 -11.26367
 Alpha  occ. eigenvalues --  -11.26263 -11.25559 -11.25500  -1.59496  -1.58047
 Alpha  occ. eigenvalues --   -1.39036  -1.37624  -1.19067  -1.17978  -1.08457
 Alpha  occ. eigenvalues --   -1.07328  -1.04478  -1.03460  -0.95275  -0.94121
 Alpha  occ. eigenvalues --   -0.85873  -0.84852  -0.82096  -0.80984  -0.77129
 Alpha  occ. eigenvalues --   -0.75956  -0.71733  -0.70830  -0.70376  -0.70177
 Alpha  occ. eigenvalues --   -0.69212  -0.69152  -0.64711  -0.64483  -0.63665
 Alpha  occ. eigenvalues --   -0.63512  -0.61817  -0.60830  -0.54991  -0.54001
 Alpha  occ. eigenvalues --   -0.52810  -0.52571  -0.51729  -0.51595  -0.48462
 Alpha  occ. eigenvalues --   -0.48425  -0.47111  -0.47075  -0.44460  -0.42929
 Alpha  occ. eigenvalues --   -0.37062  -0.36086  -0.35967  -0.35060
 Alpha virt. eigenvalues --    0.05398   0.06653   0.11567   0.12588   0.16869
 Alpha virt. eigenvalues --    0.18067   0.21691   0.22516   0.27598   0.28382
 Alpha virt. eigenvalues --    0.28614   0.29445   0.31231   0.31992   0.32901

 Mulliken charges:
               1
     1  C   -0.171116
     2  C   -0.218975
     3  C   -0.170667
     4  C    0.157819
     5  C   -0.171567
     6  C   -0.218894
     7  H    0.224463
     8  H    0.223776
     9  H    0.281636
    10  H    0.273398
    11  H    0.221584
    12  N    0.487447
    13  O   -0.468436
    14  O   -0.449117
    15  C   -0.171869
    16  C   -0.217892
    17  C   -0.163133
    18  C    0.167669
    19  C   -0.171820
    20  C   -0.218639
    21  H    0.219693
    22  H    0.218807
    23  H    0.274717
    24  H    0.270881
    25  H    0.217106
    26  N    0.498582
    27  O   -0.467289
    28  O   -0.458163
 Sum of Mulliken charges =  -0.00000

 Dipole moment (field-independent basis, Debye):
    X=             -2.8545    Y=             -4.9113    Z=              1.6889  Tot=              5.9263
 Quadrupole moment (field-independent basis, Debye-Ang):
   XX=            -65.6801   YY=           -104.5847   ZZ=           -101.2145
   XY=            -10.6156   XZ=             -2.8662   YZ=              0.9550

 Normal termination of Gaussian 16 at Fri May  7 03:34:39 2021.
