 Gaussian 16, Revision A.03,
 Gaussian 16:  EM64L-G16RevA.03 25-Dec-2016

 -------------
 #p 6-31g* mp2
 -------------

 ------------------------------------------------------
 Input file generated by CHIRIPA (05-May-2021 14:51:12)
 ------------------------------------------------------
 Symbolic Z-matrix:
 Charge =  0 Multiplicity = 1

                         Standard orientation:
 ---------------------------------------------------------------------
 Center     Atomic      Atomic             Coordinates (Angstroms)
 Number     Number       Type             X           Y           Z
 ---------------------------------------------------------------------
      1          6           0        3.890590    0.562706    0.383377
      2          6           0        4.560583    1.299901   -0.776639
      3          6           0        5.361639    2.518985   -0.318450
      4          1           0        3.229144    1.258001    0.918166
      5          1           0        4.660010    0.248071    1.101981
      6          1           0        3.790270    1.611842   -1.493527
      7          1           0        5.220364    0.602720   -1.308846
      8          1           0        6.150573    2.221306    0.379813
      9          1           0        4.712354    3.236161    0.194082
     10          1           0        5.832100    3.031028   -1.163636
     11          6           0        3.086064   -0.658356   -0.058748
     12          6           0        2.416070   -1.395551    1.101268
     13          6           0        1.615014   -2.614635    0.643079
     14          1           0        2.316643   -0.343722   -0.777353
     15          1           0        3.747509   -1.353651   -0.593538
     16          1           0        1.756290   -0.698370    1.633474
     17          1           0        3.186383   -1.707492    1.818155
     18          1           0        2.264299   -3.331811    0.130546
     19          1           0        0.826080   -2.316956   -0.055184
     20          1           0        1.144553   -3.126678    1.488265
     21          6           0       -3.690759    0.756030   -0.364549
     22          6           0       -4.493238    1.487967    0.711686
     23          6           0       -4.890886    2.903532    0.292345
     24          1           0       -2.788673    1.337478   -0.599292
     25          1           0       -4.283948    0.712738   -1.288480
     26          1           0       -3.899265    1.528650    1.633725
     27          1           0       -5.393421    0.904612    0.944032
     28          1           0       -5.504697    2.878755   -0.613869
     29          1           0       -4.002051    3.506338    0.079743
     30          1           0       -5.463704    3.408515    1.076392
     31          6           0       -3.285894   -0.660380    0.039920
     32          6           0       -2.483415   -1.392317   -1.036315
     33          6           0       -2.085767   -2.807882   -0.616974
     34          1           0       -2.692706   -0.617089    0.963852
     35          1           0       -4.187980   -1.241828    0.274664
     36          1           0       -1.583233   -0.808963   -1.268661
     37          1           0       -3.077388   -1.433000   -1.958355
     38          1           0       -2.974602   -3.410688   -0.404372
     39          1           0       -1.471957   -2.783105    0.289241
     40          1           0       -1.512949   -3.312865   -1.401021
 ---------------------------------------------------------------------

 SCF Done:  E(RHF) =  -470.732745300     A.U. after   11 cycles
 E2 =    -0.1582805163D+01 EUMP2 =    -0.47231555046322D+03

 The electronic state is 1-A.
 Alpha  occ. eigenvalues --  -11.21620 -11.21619 -11.21618 -11.21608 -11.21425
 Alpha  occ. eigenvalues --  -11.21422 -11.21366 -11.21363 -11.21087 -11.21085
 Alpha  occ. eigenvalues --  -11.21014 -11.20983  -1.08456  -1.08435  -1.03576
 Alpha  occ. eigenvalues --   -1.03501  -0.96057  -0.95916  -0.87099  -0.86907
 Alpha  occ. eigenvalues --   -0.79669  -0.79534  -0.78266  -0.78251  -0.65157
 Alpha  occ. eigenvalues --   -0.65013  -0.61169  -0.60743  -0.59377  -0.59334
 Alpha  occ. eigenvalues --   -0.57635  -0.57552  -0.55599  -0.54983  -0.52749
 Alpha  occ. eigenvalues --   -0.52651  -0.52384  -0.52375  -0.50192  -0.49627
 Alpha  occ. eigenvalues --   -0.47928  -0.47892  -0.46739  -0.46493  -0.45828
 Alpha  occ. eigenvalues --   -0.45779  -0.45728  -0.45688  -0.43805  -0.43774
 Alpha virt. eigenvalues --    0.21170   0.23193   0.23598   0.25087   0.26284
 Alpha virt. eigenvalues --    0.26769   0.27078   0.27357   0.27864   0.29110
 Alpha virt. eigenvalues --    0.30450   0.31220   0.31697   0.31990   0.32223

 Mulliken charges:
               1
     1  C   -0.298256
     2  C   -0.299664
     3  C   -0.475707
     4  H    0.149417
     5  H    0.149678
     6  H    0.151854
     7  H    0.152040
     8  H    0.155237
     9  H    0.155120
    10  H    0.160327
    11  C   -0.298399
    12  C   -0.299602
    13  C   -0.481848
    14  H    0.149083
    15  H    0.149886
    16  H    0.151028
    17  H    0.151923
    18  H    0.155070
    19  H    0.164188
    20  H    0.159516
    21  C   -0.298231
    22  C   -0.299665
    23  C   -0.475697
    24  H    0.149235
    25  H    0.149648
    26  H    0.151856
    27  H    0.152066
    28  H    0.155249
    29  H    0.155061
    30  H    0.160324
    31  C   -0.298165
    32  C   -0.301346
    33  C   -0.480405
    34  H    0.149456
    35  H    0.149953
    36  H    0.151013
    37  H    0.152302
    38  H    0.155168
    39  H    0.161109
    40  H    0.160180
 Sum of Mulliken charges =  -0.00000

 Dipole moment (field-independent basis, Debye):
    X=             -0.0010    Y=             -0.0203    Z=             -0.0001  Tot=              0.0203
 Quadrupole moment (field-independent basis, Debye-Ang):
   XX=            -83.8442   YY=            -86.1877   ZZ=            -84.7184
   XY=             -0.3702   XZ=              0.2319   YZ=              0.0906

 Normal termination of Gaussian 16 at Wed May  5 19:55:01 2021.
