 Gaussian 16, Revision A.03,
 Gaussian 16:  EM64L-G16RevA.03 25-Dec-2016

 -------------
 #p 6-31g* mp2
 -------------

 ------------------------------------------------------
 Input file generated by CHIRIPA (05-May-2021 14:51:11)
 ------------------------------------------------------
 Symbolic Z-matrix:
 Charge =  0 Multiplicity = 1

                         Standard orientation:
 ---------------------------------------------------------------------
 Center     Atomic      Atomic             Coordinates (Angstroms)
 Number     Number       Type             X           Y           Z
 ---------------------------------------------------------------------
      1          6           0       -3.074804   -0.243263   -0.079835
      2          6           0       -2.963189    1.054402    0.721160
      3          6           0       -4.241817    1.891347    0.671895
      4          1           0       -3.317131   -0.002488   -1.123985
      5          1           0       -3.916102   -0.834175    0.308025
      6          1           0       -2.121490    1.642059    0.332806
      7          1           0       -2.720909    0.810518    1.763483
      8          1           0       -5.087429    1.327180    1.078413
      9          1           0       -4.484604    2.163444   -0.360393
     10          1           0       -4.139996    2.814416    1.251063
     11          6           0       -1.804449   -1.090823   -0.040206
     12          6           0       -1.916064   -2.388488   -0.841201
     13          6           0       -0.637435   -3.225432   -0.791936
     14          1           0       -0.963151   -0.499911   -0.428066
     15          1           0       -1.562121   -1.331598    1.003944
     16          1           0       -2.158343   -2.144604   -1.883524
     17          1           0       -2.757763   -2.976144   -0.452847
     18          1           0       -0.394649   -3.497530    0.240352
     19          1           0        0.208177   -2.661265   -1.198454
     20          1           0       -0.739256   -4.148501   -1.371104
     21          6           0        2.332613    1.201663   -0.474921
     22          6           0        1.881869    2.547325    0.094292
     23          6           0        1.671970    3.606601   -0.988148
     24          1           0        3.265531    1.342765   -1.037681
     25          1           0        1.583215    0.846912   -1.195996
     26          1           0        2.631220    2.898770    0.815108
     27          1           0        0.950018    2.402968    0.655924
     28          1           0        0.909128    3.281184   -1.702835
     29          1           0        2.599883    3.779803   -1.542745
     30          1           0        1.350000    4.560635   -0.559179
     31          6           0        2.546640    0.132423    0.594962
     32          6           0        2.997384   -1.213240    0.025749
     33          6           0        3.207283   -2.272515    1.108188
     34          1           0        3.296038    0.487174    1.316037
     35          1           0        1.613722   -0.008680    1.157722
     36          1           0        3.929235   -1.068883   -0.535883
     37          1           0        2.248033   -1.564685   -0.695067
     38          1           0        2.279370   -2.445717    1.662786
     39          1           0        3.970124   -1.947098    1.822876
     40          1           0        3.529253   -3.226550    0.679220
 ---------------------------------------------------------------------

 SCF Done:  E(RHF) =  -470.733291803     A.U. after   11 cycles
 E2 =    -0.1584228896D+01 EUMP2 =    -0.47231752069919D+03

 The electronic state is 1-A.
 Alpha  occ. eigenvalues --  -11.21674 -11.21673 -11.21602 -11.21531 -11.21494
 Alpha  occ. eigenvalues --  -11.21431 -11.21394 -11.21308 -11.21119 -11.21118
 Alpha  occ. eigenvalues --  -11.21087 -11.21009  -1.08517  -1.08399  -1.03607
 Alpha  occ. eigenvalues --   -1.03493  -0.96057  -0.95943  -0.87063  -0.86970
 Alpha  occ. eigenvalues --   -0.79670  -0.79564  -0.78328  -0.78221  -0.65262
 Alpha  occ. eigenvalues --   -0.64927  -0.61092  -0.60839  -0.59401  -0.59324
 Alpha  occ. eigenvalues --   -0.57669  -0.57557  -0.55386  -0.55202  -0.52733
 Alpha  occ. eigenvalues --   -0.52648  -0.52493  -0.52344  -0.50093  -0.49818
 Alpha  occ. eigenvalues --   -0.48104  -0.47771  -0.46793  -0.46523  -0.46068
 Alpha  occ. eigenvalues --   -0.45854  -0.45610  -0.45449  -0.43855  -0.43756
 Alpha virt. eigenvalues --    0.19157   0.22023   0.23640   0.24944   0.25607
 Alpha virt. eigenvalues --    0.25686   0.26706   0.27569   0.28778   0.30267
 Alpha virt. eigenvalues --    0.30357   0.30998   0.31772   0.32012   0.32133

 Mulliken charges:
               1
     1  C   -0.298222
     2  C   -0.301467
     3  C   -0.475694
     4  H    0.149864
     5  H    0.150079
     6  H    0.152998
     7  H    0.152056
     8  H    0.155397
     9  H    0.155379
    10  H    0.160593
    11  C   -0.302321
    12  C   -0.299615
    13  C   -0.481601
    14  H    0.152452
    15  H    0.149583
    16  H    0.152046
    17  H    0.152388
    18  H    0.156121
    19  H    0.160381
    20  H    0.160833
    21  C   -0.299395
    22  C   -0.301749
    23  C   -0.475579
    24  H    0.149804
    25  H    0.149011
    26  H    0.152213
    27  H    0.153812
    28  H    0.154479
    29  H    0.155314
    30  H    0.160388
    31  C   -0.299761
    32  C   -0.305143
    33  C   -0.475533
    34  H    0.149340
    35  H    0.152217
    36  H    0.151535
    37  H    0.157136
    38  H    0.155674
    39  H    0.154668
    40  H    0.160317
 Sum of Mulliken charges =  -0.00000

 Dipole moment (field-independent basis, Debye):
    X=             -0.0342    Y=             -0.0199    Z=              0.0060  Tot=              0.0400
 Quadrupole moment (field-independent basis, Debye-Ang):
   XX=            -84.4387   YY=            -85.6847   ZZ=            -84.5237
   XY=              1.2418   XZ=             -0.2791   YZ=              0.1921

 Normal termination of Gaussian 16 at Wed May  5 15:16:07 2021.
