 Gaussian 16, Revision A.03,
 Gaussian 16:  EM64L-G16RevA.03 25-Dec-2016

 -------------
 #p 6-31g* mp2
 -------------

 ------------------------------------------------------
 Input file generated by CHIRIPA (05-May-2021 14:57:22)
 ------------------------------------------------------
 Symbolic Z-matrix:
 Charge =  0 Multiplicity = 1

                         Standard orientation:
 ---------------------------------------------------------------------
 Center     Atomic      Atomic             Coordinates (Angstroms)
 Number     Number       Type             X           Y           Z
 ---------------------------------------------------------------------
      1          6           0        6.882873    0.369225   -0.506502
      2          6           0        6.421564   -0.918433   -0.213838
      3          6           0        5.077811   -1.135849    0.104918
      4          6           0        4.219072   -0.037863    0.121776
      5          6           0        4.648431    1.256973   -0.165174
      6          6           0        5.996397    1.450912   -0.481280
      7          1           0        7.928369    0.529001   -0.753090
      8          1           0        7.107749   -1.760360   -0.232661
      9          1           0        4.693985   -2.122201    0.335581
     10          1           0        3.940551    2.076488   -0.138349
     11          1           0        6.351857    2.452025   -0.708137
     12          7           0        2.794271   -0.255605    0.457826
     13          8           0        2.057862    0.728405    0.465873
     14          8           0        2.440899   -1.406157    0.706813
     15          6           0       -1.947558   -0.282108   -0.007367
     16          6           0       -2.769878   -1.378304   -0.287841
     17          6           0       -4.159860   -1.232540   -0.323162
     18          6           0       -4.696200    0.029441   -0.072097
     19          6           0       -3.903416    1.140771    0.210269
     20          6           0       -2.515949    0.971720    0.240356
     21          1           0       -0.868762   -0.404386    0.018039
     22          1           0       -2.331228   -2.353224   -0.480619
     23          1           0       -4.819869   -2.064270   -0.537717
     24          1           0       -4.369885    2.100183    0.398295
     25          1           0       -1.879776    1.824812    0.458447
     26          7           0       -6.166381    0.196081   -0.106720
     27          8           0       -6.614243    1.318387    0.117968
     28          8           0       -6.843009   -0.798768   -0.357890
 ---------------------------------------------------------------------

 SCF Done:  E(RHF) =  -868.341635734     A.U. after   16 cycles
 E2 =    -0.2598215042D+01 EUMP2 =    -0.87093985077566D+03

 The electronic state is 1-A.
 Alpha  occ. eigenvalues --  -20.62105 -20.62100 -20.59906 -20.59901 -15.87084
 Alpha  occ. eigenvalues --  -15.84953 -11.32077 -11.30062 -11.28597 -11.28589
 Alpha  occ. eigenvalues --  -11.28261 -11.27519 -11.27509 -11.26641 -11.26624
 Alpha  occ. eigenvalues --  -11.26019 -11.25495 -11.25446  -1.61145  -1.58989
 Alpha  occ. eigenvalues --   -1.40705  -1.38550  -1.20209  -1.18193  -1.09676
 Alpha  occ. eigenvalues --   -1.07575  -1.05552  -1.03576  -0.96573  -0.94460
 Alpha  occ. eigenvalues --   -0.86968  -0.84947  -0.83420  -0.81326  -0.78507
 Alpha  occ. eigenvalues --   -0.76459  -0.73316  -0.72426  -0.71309  -0.71174
 Alpha  occ. eigenvalues --   -0.70312  -0.69135  -0.65863  -0.65549  -0.63814
 Alpha  occ. eigenvalues --   -0.63542  -0.62903  -0.60943  -0.56068  -0.53914
 Alpha  occ. eigenvalues --   -0.53847  -0.53636  -0.51909  -0.51638  -0.50084
 Alpha  occ. eigenvalues --   -0.50048  -0.47946  -0.47904  -0.46187  -0.44015
 Alpha  occ. eigenvalues --   -0.38163  -0.37136  -0.36076  -0.35215
 Alpha virt. eigenvalues --    0.03989   0.06088   0.10525   0.12467   0.15568
 Alpha virt. eigenvalues --    0.17675   0.20706   0.22879   0.26646   0.27569
 Alpha virt. eigenvalues --    0.28510   0.29847   0.30392   0.31770   0.32681

 Mulliken charges:
               1
     1  C   -0.169316
     2  C   -0.218556
     3  C   -0.170196
     4  C    0.157968
     5  C   -0.170139
     6  C   -0.218510
     7  H    0.228704
     8  H    0.226151
     9  H    0.276302
    10  H    0.275469
    11  H    0.226095
    12  N    0.489597
    13  O   -0.467066
    14  O   -0.461066
    15  C   -0.178164
    16  C   -0.220930
    17  C   -0.172297
    18  C    0.156567
    19  C   -0.172685
    20  C   -0.221693
    21  H    0.250994
    22  H    0.222620
    23  H    0.271478
    24  H    0.271406
    25  H    0.226303
    26  N    0.488388
    27  O   -0.463703
    28  O   -0.463720
 Sum of Mulliken charges =  -0.00000

 Dipole moment (field-independent basis, Debye):
    X=             11.0212    Y=              0.1700    Z=             -1.0558  Tot=             11.0729
 Quadrupole moment (field-independent basis, Debye-Ang):
   XX=           -112.3530   YY=            -95.4575   ZZ=           -106.5732
   XY=              5.6588   XZ=             -5.4371   YZ=              0.7116

 Normal termination of Gaussian 16 at Thu May  6 01:45:19 2021.
