 Gaussian 16, Revision A.03,
 Gaussian 16:  EM64L-G16RevA.03 25-Dec-2016

 -------------
 #p 6-31g* mp2
 -------------

 ------------------------------------------------------
 Input file generated by CHIRIPA (05-May-2021 14:51:10)
 ------------------------------------------------------
 Symbolic Z-matrix:
 Charge =  0 Multiplicity = 1

                         Standard orientation:
 ---------------------------------------------------------------------
 Center     Atomic      Atomic             Coordinates (Angstroms)
 Number     Number       Type             X           Y           Z
 ---------------------------------------------------------------------
      1          6           0        3.599600    0.539114   -0.194243
      2          6           0        3.806683   -0.815058   -0.873449
      3          6           0        5.276238   -1.102986   -1.182157
      4          1           0        4.002150    1.331458   -0.840068
      5          1           0        4.183162    0.567770    0.736364
      6          1           0        3.221810   -0.841668   -1.801798
      7          1           0        3.403420   -1.604253   -0.226018
      8          1           0        5.870137   -1.103597   -0.262437
      9          1           0        5.687495   -0.336680   -1.847170
     10          1           0        5.401359   -2.075971   -1.667444
     11          6           0        2.135633    0.841310    0.120725
     12          6           0        1.928550    2.195482    0.799931
     13          6           0        0.458995    2.483409    1.108638
     14          1           0        1.552071    0.812654   -0.809882
     15          1           0        1.733082    0.048966    0.766550
     16          1           0        2.331812    2.984677    0.152500
     17          1           0        2.513422    2.222092    1.728280
     18          1           0        0.047737    1.717104    1.773652
     19          1           0       -0.134905    2.484021    0.188919
     20          1           0        0.333874    3.456395    1.593926
     21          6           0       -2.597127   -1.152400    0.581415
     22          6           0       -1.107020   -1.460281    0.430497
     23          6           0       -0.580602   -2.386103    1.527552
     24          1           0       -2.772780   -0.695006    1.564715
     25          1           0       -3.162150   -2.094741    0.569601
     26          1           0       -0.545099   -0.517548    0.441203
     27          1           0       -0.934867   -1.916821   -0.552635
     28          1           0       -1.115371   -3.341333    1.514937
     29          1           0       -0.723389   -1.934109    2.514424
     30          1           0        0.486575   -2.593032    1.400369
     31          6           0       -3.138105   -0.228024   -0.507897
     32          6           0       -4.628212    0.079857   -0.356979
     33          6           0       -5.154631    1.005679   -1.454034
     34          1           0       -2.573082    0.714317   -0.496083
     35          1           0       -2.962453   -0.685418   -1.491197
     36          1           0       -4.800366    0.536396    0.626153
     37          1           0       -5.190133   -0.862876   -0.367685
     38          1           0       -5.011844    0.553685   -2.440905
     39          1           0       -4.619862    1.960908   -1.441419
     40          1           0       -6.221807    1.212609   -1.326851
 ---------------------------------------------------------------------

 SCF Done:  E(RHF) =  -470.732588064     A.U. after   11 cycles
 E2 =    -0.1584374363D+01 EUMP2 =    -0.47231696242643D+03

 The electronic state is 1-A.
 Alpha  occ. eigenvalues --  -11.21664 -11.21622 -11.21554 -11.21422 -11.21419
 Alpha  occ. eigenvalues --  -11.21357 -11.21334 -11.21271 -11.21182 -11.21085
 Alpha  occ. eigenvalues --  -11.21056 -11.21039  -1.08486  -1.08346  -1.03594
 Alpha  occ. eigenvalues --   -1.03461  -0.96036  -0.95929  -0.87050  -0.86948
 Alpha  occ. eigenvalues --   -0.79712  -0.79500  -0.78419  -0.78027  -0.65151
 Alpha  occ. eigenvalues --   -0.64957  -0.61053  -0.60821  -0.59430  -0.59266
 Alpha  occ. eigenvalues --   -0.57704  -0.57488  -0.55319  -0.55227  -0.52730
 Alpha  occ. eigenvalues --   -0.52625  -0.52462  -0.52358  -0.49989  -0.49870
 Alpha  occ. eigenvalues --   -0.48149  -0.47773  -0.46789  -0.46578  -0.46070
 Alpha  occ. eigenvalues --   -0.45749  -0.45668  -0.45087  -0.43826  -0.43719
 Alpha virt. eigenvalues --    0.20649   0.22303   0.23750   0.24011   0.25885
 Alpha virt. eigenvalues --    0.26161   0.26573   0.27626   0.28895   0.29830
 Alpha virt. eigenvalues --    0.30451   0.31004   0.31583   0.31814   0.32394

 Mulliken charges:
               1
     1  C   -0.297590
     2  C   -0.299915
     3  C   -0.475749
     4  H    0.149623
     5  H    0.149431
     6  H    0.152246
     7  H    0.151763
     8  H    0.155222
     9  H    0.155267
    10  H    0.160354
    11  C   -0.304478
    12  C   -0.299170
    13  C   -0.479656
    14  H    0.150605
    15  H    0.155780
    16  H    0.152191
    17  H    0.152105
    18  H    0.156270
    19  H    0.156407
    20  H    0.161020
    21  C   -0.297215
    22  C   -0.309950
    23  C   -0.477088
    24  H    0.148943
    25  H    0.148852
    26  H    0.165313
    27  H    0.151072
    28  H    0.155507
    29  H    0.154082
    30  H    0.159655
    31  C   -0.300104
    32  C   -0.299506
    33  C   -0.475694
    34  H    0.151199
    35  H    0.149188
    36  H    0.152053
    37  H    0.151807
    38  H    0.154948
    39  H    0.155079
    40  H    0.160131
 Sum of Mulliken charges =  -0.00000

 Dipole moment (field-independent basis, Debye):
    X=              0.0491    Y=              0.0401    Z=             -0.0056  Tot=              0.0637
 Quadrupole moment (field-independent basis, Debye-Ang):
   XX=            -86.1543   YY=            -84.5397   ZZ=            -84.2357
   XY=              0.8293   XZ=              0.1326   YZ=              0.4931

 Normal termination of Gaussian 16 at Wed May  5 16:39:58 2021.
