 Gaussian 16, Revision A.03,
 Gaussian 16:  EM64L-G16RevA.03 25-Dec-2016

 -------------
 #p 6-31g* mp2
 -------------

 ------------------------------------------------------
 Input file generated by CHIRIPA (05-May-2021 14:55:24)
 ------------------------------------------------------
 Symbolic Z-matrix:
 Charge =  0 Multiplicity = 1

                         Standard orientation:
 ---------------------------------------------------------------------
 Center     Atomic      Atomic             Coordinates (Angstroms)
 Number     Number       Type             X           Y           Z
 ---------------------------------------------------------------------
      1          6           0       -2.309480    2.675969   -0.123727
      2          6           0       -1.501674    1.595615   -0.493599
      3          6           0       -2.001992    0.290597   -0.459560
      4          6           0       -3.320597    0.101420   -0.048729
      5          6           0       -4.150270    1.157182    0.325836
      6          6           0       -3.628874    2.453697    0.284091
      7          1           0       -1.912633    3.686436   -0.153162
      8          1           0       -0.476639    1.765250   -0.810732
      9          1           0       -1.398530   -0.563973   -0.740561
     10          1           0       -5.168118    0.956624    0.637573
     11          1           0       -4.258523    3.290807    0.571897
     12          7           0       -3.861419   -1.275643   -0.008615
     13          8           0       -5.026453   -1.415751    0.357039
     14          8           0       -3.110040   -2.188803   -0.343587
     15          6           0        3.570594   -0.784160   -0.291188
     16          6           0        2.454638   -1.252123    0.643497
     17          6           0        1.330203   -1.978286   -0.095510
     18          1           0        3.145013   -0.121067   -1.056780
     19          1           0        3.981779   -1.652932   -0.823689
     20          1           0        2.046613   -0.382911    1.175099
     21          1           0        2.882958   -1.914028    1.407068
     22          1           0        1.717042   -2.862564   -0.612238
     23          1           0        0.875947   -1.322747   -0.845524
     24          1           0        0.543108   -2.304117    0.591640
     25          6           0        4.701951   -0.056483    0.432860
     26          6           0        5.817908    0.411480   -0.501825
     27          6           0        6.942343    1.137642    0.237183
     28          1           0        4.290766    0.812288    0.965361
     29          1           0        5.127533   -0.719576    1.198452
     30          1           0        5.389589    1.073384   -1.265396
     31          1           0        6.225932   -0.457733   -1.033427
     32          1           0        7.396599    0.482104    0.987197
     33          1           0        6.555503    2.021920    0.753910
     34          1           0        7.729437    1.463473   -0.449968
 ---------------------------------------------------------------------

 SCF Done:  E(RHF) =  -669.535430439     A.U. after   15 cycles
 E2 =    -0.2091312313D+01 EUMP2 =    -0.67162674275149D+03

 The electronic state is 1-A.
 Alpha  occ. eigenvalues --  -20.60734 -20.60728 -15.85783 -11.31133 -11.27724
 Alpha  occ. eigenvalues --  -11.27662 -11.27476 -11.26740 -11.26728 -11.21986
 Alpha  occ. eigenvalues --  -11.21933 -11.21801 -11.21725 -11.21451 -11.21362
 Alpha  occ. eigenvalues --   -1.59807  -1.39360  -1.19318  -1.08809  -1.08719
 Alpha  occ. eigenvalues --   -1.04724  -1.03889  -0.96340  -0.95551  -0.87356
 Alpha  occ. eigenvalues --   -0.86119  -0.82385  -0.79950  -0.78618  -0.77428
 Alpha  occ. eigenvalues --   -0.72003  -0.71130  -0.70439  -0.65458  -0.64973
 Alpha  occ. eigenvalues --   -0.64736  -0.62149  -0.61241  -0.59680  -0.57934
 Alpha  occ. eigenvalues --   -0.55687  -0.55198  -0.53078  -0.53036  -0.52807
 Alpha  occ. eigenvalues --   -0.52695  -0.50275  -0.48762  -0.48755  -0.48257
 Alpha  occ. eigenvalues --   -0.46992  -0.46159  -0.46091  -0.44769  -0.44126
 Alpha  occ. eigenvalues --   -0.37309  -0.36323
 Alpha virt. eigenvalues --    0.05093   0.11316   0.16574   0.19980   0.22703
 Alpha virt. eigenvalues --    0.23826   0.25760   0.26518   0.27178   0.27994
 Alpha virt. eigenvalues --    0.29223   0.30386   0.31407   0.31580   0.32293

 Mulliken charges:
               1
     1  C   -0.170604
     2  C   -0.221391
     3  C   -0.177940
     4  C    0.158422
     5  C   -0.170296
     6  C   -0.219076
     7  H    0.225283
     8  H    0.222492
     9  H    0.286464
    10  H    0.275435
    11  H    0.223263
    12  N    0.487602
    13  O   -0.460625
    14  O   -0.460288
    15  C   -0.297855
    16  C   -0.300981
    17  C   -0.479281
    18  H    0.144472
    19  H    0.152406
    20  H    0.148928
    21  H    0.156034
    22  H    0.161648
    23  H    0.142452
    24  H    0.172129
    25  C   -0.298227
    26  C   -0.299650
    27  C   -0.475794
    28  H    0.147666
    29  H    0.151736
    30  H    0.150325
    31  H    0.153439
    32  H    0.156367
    33  H    0.154412
    34  H    0.161033
 Sum of Mulliken charges =  -0.00000

 Dipole moment (field-independent basis, Debye):
    X=              2.0101    Y=              4.7156    Z=             -0.0812  Tot=              5.1268
 Quadrupole moment (field-independent basis, Debye-Ang):
   XX=           -103.9767   YY=            -92.8135   ZZ=            -95.2277
   XY=            -19.0298   XZ=             -1.4611   YZ=              0.0078

 Normal termination of Gaussian 16 at Thu May  6 12:40:50 2021.
