 Gaussian 16, Revision A.03,
 Gaussian 16:  EM64L-G16RevA.03 25-Dec-2016

 -------------
 #p 6-31g* mp2
 -------------

 ------------------------------------------------------
 Input file generated by CHIRIPA (05-May-2021 14:53:15)
 ------------------------------------------------------
 Symbolic Z-matrix:
 Charge =  0 Multiplicity = 1

                         Standard orientation:
 ---------------------------------------------------------------------
 Center     Atomic      Atomic             Coordinates (Angstroms)
 Number     Number       Type             X           Y           Z
 ---------------------------------------------------------------------
      1          6           0        4.414739    0.461241    0.181632
      2          6           0        4.245484    1.743592   -0.633790
      3          6           0        5.426261    2.702590   -0.479242
      4          1           0        4.540819    0.722089    1.241353
      5          1           0        5.340614   -0.042700   -0.128519
      6          1           0        3.319491    2.244253   -0.323161
      7          1           0        4.119600    1.479652   -1.691667
      8          1           0        6.355390    2.225737   -0.807769
      9          1           0        5.550734    2.994683    0.568513
     10          1           0        5.284446    3.612575   -1.070575
     11          6           0        3.242377   -0.507528    0.037463
     12          6           0        3.411631   -1.789879    0.852885
     13          6           0        2.230855   -2.748877    0.698337
     14          1           0        2.316502   -0.003587    0.347615
     15          1           0        3.116297   -0.768376   -1.022257
     16          1           0        3.537515   -1.525938    1.910763
     17          1           0        4.337625   -2.290540    0.542257
     18          1           0        2.106382   -3.040969   -0.349417
     19          1           0        1.301726   -2.272024    1.026865
     20          1           0        2.372669   -3.658862    1.289671
     21          6           0       -4.319589    1.918639    0.908807
     22          6           0       -4.448759    1.609618   -0.449259
     23          6           0       -3.717575    0.558709   -1.010959
     24          6           0       -2.862623   -0.165658   -0.181718
     25          6           0       -2.712198    0.117850    1.174853
     26          6           0       -3.453247    1.173083    1.715107
     27          1           0       -4.891423    2.736690    1.336818
     28          1           0       -5.120813    2.186920   -1.077838
     29          1           0       -3.798400    0.297964   -2.059243
     30          1           0       -2.034264   -0.475614    1.776207
     31          1           0       -3.350923    1.410819    2.770121
     32          7           0       -2.083329   -1.280498   -0.765013
     33          8           0       -1.336869   -1.903487   -0.013136
     34          8           0       -2.233734   -1.510210   -1.963031
 ---------------------------------------------------------------------

 SCF Done:  E(RHF) =  -669.535749123     A.U. after   15 cycles
 E2 =    -0.2090906431D+01 EUMP2 =    -0.67162665555395D+03

 The electronic state is 1-A.
 Alpha  occ. eigenvalues --  -20.60874 -20.60869 -15.85915 -11.31267 -11.27839
 Alpha  occ. eigenvalues --  -11.27829 -11.27575 -11.26850 -11.26839 -11.21226
 Alpha  occ. eigenvalues --  -11.20878 -11.20793 -11.20729 -11.20643 -11.19693
 Alpha  occ. eigenvalues --   -1.59938  -1.39495  -1.19439  -1.08836  -1.07804
 Alpha  occ. eigenvalues --   -1.04841  -1.02834  -0.95676  -0.95251  -0.86264
 Alpha  occ. eigenvalues --   -0.86235  -0.82509  -0.78922  -0.77608  -0.77528
 Alpha  occ. eigenvalues --   -0.72139  -0.71256  -0.70548  -0.65095  -0.64844
 Alpha  occ. eigenvalues --   -0.64447  -0.62189  -0.60238  -0.58689  -0.56856
 Alpha  occ. eigenvalues --   -0.55342  -0.54533  -0.53170  -0.52934  -0.51957
 Alpha  occ. eigenvalues --   -0.51648  -0.49200  -0.48895  -0.48874  -0.47202
 Alpha  occ. eigenvalues --   -0.45981  -0.45172  -0.45065  -0.44778  -0.43106
 Alpha  occ. eigenvalues --   -0.37418  -0.36444
 Alpha virt. eigenvalues --    0.04961   0.11210   0.16436   0.21276   0.23419
 Alpha virt. eigenvalues --    0.24981   0.26992   0.27353   0.27839   0.28208
 Alpha virt. eigenvalues --    0.28992   0.30755   0.31867   0.32287   0.32572

 Mulliken charges:
               1
     1  C   -0.297678
     2  C   -0.298871
     3  C   -0.475225
     4  H    0.146909
     5  H    0.148889
     6  H    0.149534
     7  H    0.152794
     8  H    0.155198
     9  H    0.153696
    10  H    0.158521
    11  C   -0.296386
    12  C   -0.300569
    13  C   -0.477738
    14  H    0.147324
    15  H    0.152402
    16  H    0.146053
    17  H    0.148455
    18  H    0.160327
    19  H    0.170227
    20  H    0.153570
    21  C   -0.170726
    22  C   -0.218496
    23  C   -0.170794
    24  C    0.158108
    25  C   -0.170876
    26  C   -0.218486
    27  H    0.225894
    28  H    0.223757
    29  H    0.275867
    30  H    0.275044
    31  H    0.223677
    32  N    0.492087
    33  O   -0.463047
    34  O   -0.459443
 Sum of Mulliken charges =  -0.00000

 Dipole moment (field-independent basis, Debye):
    X=             -2.9892    Y=              3.8650    Z=              1.9822  Tot=              5.2728
 Quadrupole moment (field-independent basis, Debye-Ang):
   XX=            -80.0589   YY=            -97.1971   ZZ=            -91.0658
   XY=            -12.4019   XZ=             -3.9796   YZ=             -1.4073

 Normal termination of Gaussian 16 at Wed May  5 23:31:41 2021.
