 Gaussian 16, Revision A.03,
 Gaussian 16:  EM64L-G16RevA.03 25-Dec-2016

 -------------
 #p 6-31g* mp2
 -------------

 ------------------------------------------------------
 Input file generated by CHIRIPA (05-May-2021 14:51:14)
 ------------------------------------------------------
 Symbolic Z-matrix:
 Charge =  0 Multiplicity = 1

                         Standard orientation:
 ---------------------------------------------------------------------
 Center     Atomic      Atomic             Coordinates (Angstroms)
 Number     Number       Type             X           Y           Z
 ---------------------------------------------------------------------
      1          6           0        1.894548   -0.895890    0.525549
      2          6           0        1.587086   -0.973481    2.021354
      3          6           0        0.697166   -2.163651    2.380983
      4          1           0        0.950933   -0.832109   -0.033439
      5          1           0        2.382499   -1.828399    0.209758
      6          1           0        1.101109   -0.040543    2.334514
      7          1           0        2.531549   -1.036891    2.576857
      8          1           0        1.178812   -3.104708    2.096324
      9          1           0       -0.259756   -2.102699    1.852604
     10          1           0        0.489943   -2.199913    3.455043
     11          6           0        2.783213    0.288701    0.150386
     12          6           0        3.090675    0.366293   -1.345419
     13          6           0        3.980595    1.556462   -1.705048
     14          1           0        2.295262    1.221211    0.466177
     15          1           0        3.726828    0.224921    0.709374
     16          1           0        2.146212    0.429703   -1.900922
     17          1           0        3.576653   -0.566645   -1.658579
     18          1           0        4.937517    1.495510   -1.176669
     19          1           0        3.498949    2.497519   -1.420389
     20          1           0        4.187818    1.592725   -2.779108
     21          6           0       -1.989560   -0.346176   -0.535971
     22          6           0       -2.895564   -1.313811   -1.298090
     23          6           0       -2.182441   -2.609096   -1.687306
     24          1           0       -1.111946   -0.111829   -1.153886
     25          1           0       -1.611570   -0.843604    0.367956
     26          1           0       -3.272837   -0.814238   -2.199593
     27          1           0       -3.771219   -1.545732   -0.678366
     28          1           0       -1.820374   -3.132228   -0.796328
     29          1           0       -1.319160   -2.396577   -2.326198
     30          1           0       -2.848452   -3.286259   -2.231124
     31          6           0       -2.688201    0.953365   -0.139964
     32          6           0       -1.782197    1.921000    0.622155
     33          6           0       -2.495321    3.216283    1.011371
     34          1           0       -3.066191    1.450792   -1.043890
     35          1           0       -3.565815    0.719018    0.477951
     36          1           0       -0.906542    2.152921    0.002431
     37          1           0       -1.404925    1.421426    1.523658
     38          1           0       -3.358601    3.003765    1.650264
     39          1           0       -2.857387    3.739416    0.120393
     40          1           0       -1.829309    3.893448    1.555189
 ---------------------------------------------------------------------

 SCF Done:  E(RHF) =  -470.732465585     A.U. after   11 cycles
 E2 =    -0.1585251611D+01 EUMP2 =    -0.47231771719596D+03

 The electronic state is 1-A.
 Alpha  occ. eigenvalues --  -11.21714 -11.21674 -11.21585 -11.21541 -11.21504
 Alpha  occ. eigenvalues --  -11.21445 -11.21310 -11.21183 -11.21150 -11.21111
 Alpha  occ. eigenvalues --  -11.21060 -11.21057  -1.08556  -1.08342  -1.03615
 Alpha  occ. eigenvalues --   -1.03494  -0.96062  -0.95939  -0.87079  -0.86958
 Alpha  occ. eigenvalues --   -0.79714  -0.79540  -0.78502  -0.78044  -0.65196
 Alpha  occ. eigenvalues --   -0.64987  -0.61019  -0.60902  -0.59451  -0.59288
 Alpha  occ. eigenvalues --   -0.57678  -0.57550  -0.55421  -0.55172  -0.52748
 Alpha  occ. eigenvalues --   -0.52650  -0.52506  -0.52366  -0.50080  -0.49829
 Alpha  occ. eigenvalues --   -0.48106  -0.47876  -0.46832  -0.46557  -0.46316
 Alpha  occ. eigenvalues --   -0.45768  -0.45632  -0.45009  -0.43870  -0.43724
 Alpha virt. eigenvalues --    0.19916   0.22160   0.23188   0.23827   0.25372
 Alpha virt. eigenvalues --    0.26256   0.27316   0.27809   0.28746   0.29768
 Alpha virt. eigenvalues --    0.30638   0.31506   0.31621   0.31808   0.32325

 Mulliken charges:
               1
     1  C   -0.306927
     2  C   -0.300862
     3  C   -0.481443
     4  H    0.161132
     5  H    0.148361
     6  H    0.152998
     7  H    0.151767
     8  H    0.155656
     9  H    0.158546
    10  H    0.159942
    11  C   -0.298654
    12  C   -0.299845
    13  C   -0.475596
    14  H    0.150007
    15  H    0.149168
    16  H    0.150609
    17  H    0.152091
    18  H    0.155371
    19  H    0.154937
    20  H    0.159990
    21  C   -0.310389
    22  C   -0.298667
    23  C   -0.477449
    24  H    0.151903
    25  H    0.158441
    26  H    0.152123
    27  H    0.152103
    28  H    0.156385
    29  H    0.155690
    30  H    0.160781
    31  C   -0.297071
    32  C   -0.302783
    33  C   -0.475687
    34  H    0.149917
    35  H    0.150074
    36  H    0.152005
    37  H    0.153689
    38  H    0.155610
    39  H    0.155536
    40  H    0.160541
 Sum of Mulliken charges =  -0.00000

 Dipole moment (field-independent basis, Debye):
    X=             -0.0717    Y=              0.0034    Z=             -0.0188  Tot=              0.0742
 Quadrupole moment (field-independent basis, Debye-Ang):
   XX=            -84.5537   YY=            -85.8911   ZZ=            -84.3423
   XY=             -0.5059   XZ=              0.2498   YZ=             -0.3940

 Normal termination of Gaussian 16 at Thu May  6 00:49:41 2021.
