 Gaussian 16, Revision A.03,
 Gaussian 16:  EM64L-G16RevA.03 25-Dec-2016

 -------------
 #p 6-31g* mp2
 -------------

 ------------------------------------------------------
 Input file generated by CHIRIPA (05-May-2021 14:57:26)
 ------------------------------------------------------
 Symbolic Z-matrix:
 Charge =  0 Multiplicity = 1

                         Standard orientation:
 ---------------------------------------------------------------------
 Center     Atomic      Atomic             Coordinates (Angstroms)
 Number     Number       Type             X           Y           Z
 ---------------------------------------------------------------------
      1          6           0        1.905424   -0.179233    1.433653
      2          6           0        2.869797   -1.174791    1.621726
      3          6           0        4.071785   -1.142762    0.908462
      4          6           0        4.277322   -0.095900    0.011174
      5          6           0        3.335913    0.910666   -0.198265
      6          6           0        2.141145    0.858489    0.525859
      7          1           0        0.974495   -0.211940    1.991951
      8          1           0        2.689445   -1.981897    2.326067
      9          1           0        4.835505   -1.900548    1.034598
     10          1           0        3.544269    1.702605   -0.907376
     11          1           0        1.393997    1.633008    0.377759
     12          7           0        5.545992   -0.051327   -0.749674
     13          8           0        5.702948    0.881619   -1.534286
     14          8           0        6.359396   -0.950180   -0.547010
     15          6           0       -5.989767   -1.489662   -0.505712
     16          6           0       -6.238506   -0.176367   -0.093518
     17          6           0       -5.181558    0.714875    0.114087
     18          6           0       -3.882463    0.257242   -0.100885
     19          6           0       -3.602367   -1.045117   -0.511612
     20          6           0       -4.674809   -1.919089   -0.713078
     21          1           0       -6.816847   -2.175292   -0.664599
     22          1           0       -7.258699    0.159887    0.068300
     23          1           0       -5.345649    1.736976    0.433150
     24          1           0       -2.574640   -1.351284   -0.664765
     25          1           0       -4.478651   -2.938447   -1.033197
     26          7           0       -2.755318    1.191618    0.115648
     27          8           0       -1.619887    0.763937   -0.080626
     28          8           0       -3.028636    2.333971    0.477540
 ---------------------------------------------------------------------

 SCF Done:  E(RHF) =  -868.340404597     A.U. after   16 cycles
 E2 =    -0.2598411338D+01 EUMP2 =    -0.87093881593529D+03

 The electronic state is 1-A.
 Alpha  occ. eigenvalues --  -20.61853 -20.61816 -20.60052 -20.60041 -15.86854
 Alpha  occ. eigenvalues --  -15.85092 -11.31938 -11.30256 -11.28475 -11.28460
 Alpha  occ. eigenvalues --  -11.28152 -11.27418 -11.27406 -11.26842 -11.26700
 Alpha  occ. eigenvalues --  -11.26376 -11.25829 -11.25505  -1.60899  -1.59129
 Alpha  occ. eigenvalues --   -1.40459  -1.38688  -1.20082  -1.18380  -1.09530
 Alpha  occ. eigenvalues --   -1.07790  -1.05440  -1.03738  -0.96412  -0.94671
 Alpha  occ. eigenvalues --   -0.86851  -0.85123  -0.83252  -0.81508  -0.78331
 Alpha  occ. eigenvalues --   -0.76599  -0.73093  -0.72199  -0.71314  -0.71181
 Alpha  occ. eigenvalues --   -0.70451  -0.69443  -0.65737  -0.65436  -0.64010
 Alpha  occ. eigenvalues --   -0.63682  -0.62788  -0.61074  -0.55946  -0.54184
 Alpha  occ. eigenvalues --   -0.53786  -0.53525  -0.52099  -0.51795  -0.49854
 Alpha  occ. eigenvalues --   -0.49816  -0.48083  -0.48048  -0.45924  -0.44140
 Alpha  occ. eigenvalues --   -0.38044  -0.37031  -0.36326  -0.35345
 Alpha virt. eigenvalues --    0.04168   0.05902   0.10628   0.12310   0.15718
 Alpha virt. eigenvalues --    0.17476   0.20802   0.22578   0.26741   0.27642
 Alpha virt. eigenvalues --    0.28525   0.29330   0.30449   0.31883   0.32223

 Mulliken charges:
               1
     1  C   -0.171408
     2  C   -0.220250
     3  C   -0.173577
     4  C    0.157803
     5  C   -0.174209
     6  C   -0.218500
     7  H    0.229323
     8  H    0.218017
     9  H    0.271367
    10  H    0.273816
    11  H    0.242892
    12  N    0.488134
    13  O   -0.461967
    14  O   -0.463946
    15  C   -0.169731
    16  C   -0.218543
    17  C   -0.170356
    18  C    0.157265
    19  C   -0.171472
    20  C   -0.218535
    21  H    0.228214
    22  H    0.225789
    23  H    0.276608
    24  H    0.275445
    25  H    0.225714
    26  N    0.490012
    27  O   -0.470771
    28  O   -0.457134
 Sum of Mulliken charges =  -0.00000

 Dipole moment (field-independent basis, Debye):
    X=             -9.0732    Y=             -3.3248    Z=              1.8940  Tot=              9.8470
 Quadrupole moment (field-independent basis, Debye-Ang):
   XX=           -110.9903   YY=           -100.7528   ZZ=           -104.8356
   XY=              8.1668   XZ=             14.7100   YZ=             -1.0046

 Normal termination of Gaussian 16 at Thu May  6 13:05:44 2021.
