 Gaussian 16, Revision A.03,
 Gaussian 16:  EM64L-G16RevA.03 25-Dec-2016

 -------------
 #p 6-31g* mp2
 -------------

 ------------------------------------------------------
 Input file generated by CHIRIPA (05-May-2021 14:55:21)
 ------------------------------------------------------
 Symbolic Z-matrix:
 Charge =  0 Multiplicity = 1

                         Standard orientation:
 ---------------------------------------------------------------------
 Center     Atomic      Atomic             Coordinates (Angstroms)
 Number     Number       Type             X           Y           Z
 ---------------------------------------------------------------------
      1          6           0        5.593954    1.446346    0.589913
      2          6           0        5.118431    0.466293    1.467350
      3          6           0        4.027995   -0.334179    1.114161
      4          6           0        3.434312   -0.126575   -0.129918
      5          6           0        3.884938    0.841625   -1.025918
      6          6           0        4.976778    1.630559   -0.651731
      7          1           0        6.441576    2.063691    0.872435
      8          1           0        5.595775    0.321004    2.432274
      9          1           0        3.639434   -1.100185    1.774217
     10          1           0        3.388412    0.963000   -1.980982
     11          1           0        5.343934    2.390919   -1.335174
     12          7           0        2.279174   -0.967892   -0.514938
     13          8           0        1.773603   -0.765190   -1.616731
     14          8           0        1.901219   -1.814088    0.292367
     15          6           0       -5.132599    0.518046   -0.151053
     16          6           0       -6.489732    0.442052    0.549234
     17          6           0       -7.465160    1.515820    0.066163
     18          1           0       -4.696733    1.512757    0.014823
     19          1           0       -5.281191    0.418734   -1.235236
     20          1           0       -6.338489    0.540091    1.631883
     21          1           0       -6.922332   -0.552658    0.381833
     22          1           0       -7.645427    1.416850   -1.009155
     23          1           0       -7.058267    2.515808    0.247997
     24          1           0       -8.428868    1.443121    0.579819
     25          6           0       -4.146615   -0.548981    0.321195
     26          6           0       -2.789482   -0.472988   -0.379092
     27          6           0       -1.814055   -1.546755    0.103979
     28          1           0       -3.998024   -0.449669    1.405378
     29          1           0       -4.582482   -1.543692    0.155320
     30          1           0       -2.356882    0.521723   -0.211691
     31          1           0       -2.940725   -0.571026   -1.461740
     32          1           0       -2.220948   -2.546743   -0.077855
     33          1           0       -1.633787   -1.447784    1.179298
     34          1           0       -0.850347   -1.474056   -0.409676
 ---------------------------------------------------------------------

 SCF Done:  E(RHF) =  -669.536633173     A.U. after   15 cycles
 E2 =    -0.2091486480D+01 EUMP2 =    -0.67162811965320D+03

 The electronic state is 1-A.
 Alpha  occ. eigenvalues --  -20.61054 -20.61048 -15.86044 -11.31346 -11.27898
 Alpha  occ. eigenvalues --  -11.27895 -11.27632 -11.26897 -11.26887 -11.21018
 Alpha  occ. eigenvalues --  -11.20645 -11.20603 -11.20418 -11.20304 -11.19195
 Alpha  occ. eigenvalues --   -1.60090  -1.39644  -1.19506  -1.08916  -1.07545
 Alpha  occ. eigenvalues --   -1.04895  -1.02529  -0.95763  -0.94944  -0.86297
 Alpha  occ. eigenvalues --   -0.85957  -0.82595  -0.78637  -0.77657  -0.77314
 Alpha  occ. eigenvalues --   -0.72249  -0.71400  -0.70614  -0.65159  -0.64899
 Alpha  occ. eigenvalues --   -0.64195  -0.62241  -0.59950  -0.58387  -0.56538
 Alpha  occ. eigenvalues --   -0.55399  -0.54268  -0.53232  -0.52986  -0.51619
 Alpha  occ. eigenvalues --   -0.51387  -0.49026  -0.48981  -0.48899  -0.46900
 Alpha  occ. eigenvalues --   -0.45724  -0.45064  -0.44848  -0.44770  -0.42706
 Alpha  occ. eigenvalues --   -0.37480  -0.36494
 Alpha virt. eigenvalues --    0.04847   0.11163   0.16356   0.21303   0.23662
 Alpha virt. eigenvalues --    0.25399   0.27224   0.27462   0.28181   0.28311
 Alpha virt. eigenvalues --    0.29156   0.30862   0.32324   0.32420   0.32559

 Mulliken charges:
               1
     1  C   -0.170428
     2  C   -0.218652
     3  C   -0.170728
     4  C    0.160654
     5  C   -0.170721
     6  C   -0.218646
     7  H    0.226186
     8  H    0.224030
     9  H    0.276155
    10  H    0.276023
    11  H    0.224019
    12  N    0.487480
    13  O   -0.460401
    14  O   -0.457293
    15  C   -0.297145
    16  C   -0.298829
    17  C   -0.475129
    18  H    0.147350
    19  H    0.148654
    20  H    0.150553
    21  H    0.151376
    22  H    0.154622
    23  H    0.153860
    24  H    0.158350
    25  C   -0.296906
    26  C   -0.298718
    27  C   -0.484660
    28  H    0.146616
    29  H    0.148198
    30  H    0.146494
    31  H    0.150670
    32  H    0.149185
    33  H    0.148026
    34  H    0.189754
 Sum of Mulliken charges =  -0.00000

 Dipole moment (field-independent basis, Debye):
    X=              4.5191    Y=              2.9081    Z=              1.3044  Tot=              5.5300
 Quadrupole moment (field-independent basis, Debye-Ang):
   XX=            -69.1632   YY=            -95.0853   ZZ=            -91.0287
   XY=             10.7060   XZ=              4.8032   YZ=             -2.3137

 Normal termination of Gaussian 16 at Thu May  6 17:29:11 2021.
