 Gaussian 16, Revision A.03,
 Gaussian 16:  EM64L-G16RevA.03 25-Dec-2016

 -------------
 #p 6-31g* mp2
 -------------

 ------------------------------------------------------
 Input file generated by CHIRIPA (05-May-2021 14:51:10)
 ------------------------------------------------------
 Symbolic Z-matrix:
 Charge =  0 Multiplicity = 1

                         Standard orientation:
 ---------------------------------------------------------------------
 Center     Atomic      Atomic             Coordinates (Angstroms)
 Number     Number       Type             X           Y           Z
 ---------------------------------------------------------------------
      1          6           0        4.505122    0.027378   -0.177603
      2          6           0        5.824108   -0.655542    0.185548
      3          6           0        7.045047    0.204000   -0.143526
      4          1           0        4.507391    0.268588   -1.249404
      5          1           0        4.436118    0.984332    0.358001
      6          1           0        5.889975   -1.611569   -0.349514
      7          1           0        5.818620   -0.895328    1.256570
      8          1           0        7.006470    1.152724    0.401484
      9          1           0        7.078230    0.432413   -1.213726
     10          1           0        7.977135   -0.303367    0.124148
     11          6           0        3.275412   -0.819493    0.145430
     12          6           0        1.956425   -0.136573   -0.217722
     13          6           0        0.735486   -0.996116    0.111352
     14          1           0        3.344415   -1.776447   -0.390175
     15          1           0        3.273142   -1.060704    1.217231
     16          1           0        1.961913    0.103212   -1.288744
     17          1           0        1.890559    0.819453    0.317341
     18          1           0        0.702303   -1.224529    1.181552
     19          1           0        0.774063   -1.944840   -0.433658
     20          1           0       -0.196602   -0.488748   -0.156321
     21          6           0       -3.303795    0.759165    0.344168
     22          6           0       -2.915661    2.053823   -0.370812
     23          6           0       -1.740856    2.768793    0.297352
     24          1           0       -3.557129    0.986416    1.388736
     25          1           0       -2.433502    0.088945    0.372305
     26          1           0       -3.786820    2.720844   -0.398813
     27          1           0       -2.663407    1.823491   -1.413851
     28          1           0       -0.855739    2.124621    0.311933
     29          1           0       -1.985535    3.027072    1.332739
     30          1           0       -1.480115    3.691717   -0.229985
     31          6           0       -4.476738    0.032951   -0.311994
     32          6           0       -4.864872   -1.261708    0.402986
     33          6           0       -6.039677   -1.976677   -0.265179
     34          1           0       -5.347031    0.703170   -0.340131
     35          1           0       -4.223404   -0.194300   -1.356563
     36          1           0       -5.117127   -1.031375    1.446025
     37          1           0       -3.993714   -1.928728    0.430987
     38          1           0       -5.794999   -2.234957   -1.300565
     39          1           0       -6.924794   -1.332506   -0.279760
     40          1           0       -6.300419   -2.899601    0.262159
 ---------------------------------------------------------------------

 SCF Done:  E(RHF) =  -470.733149055     A.U. after   11 cycles
 E2 =    -0.1583034126D+01 EUMP2 =    -0.47231618318114D+03

 The electronic state is 1-A.
 Alpha  occ. eigenvalues --  -11.21657 -11.21616 -11.21589 -11.21568 -11.21434
 Alpha  occ. eigenvalues --  -11.21372 -11.21371 -11.21309 -11.21131 -11.21080
 Alpha  occ. eigenvalues --  -11.21050 -11.21046  -1.08464  -1.08405  -1.03577
 Alpha  occ. eigenvalues --   -1.03500  -0.96020  -0.95956  -0.87043  -0.86969
 Alpha  occ. eigenvalues --   -0.79635  -0.79566  -0.78272  -0.78221  -0.65103
 Alpha  occ. eigenvalues --   -0.65054  -0.61005  -0.60908  -0.59449  -0.59251
 Alpha  occ. eigenvalues --   -0.57635  -0.57556  -0.55311  -0.55239  -0.52764
 Alpha  occ. eigenvalues --   -0.52643  -0.52446  -0.52373  -0.49961  -0.49898
 Alpha  occ. eigenvalues --   -0.47973  -0.47864  -0.46666  -0.46583  -0.45813
 Alpha  occ. eigenvalues --   -0.45758  -0.45732  -0.45682  -0.43774  -0.43742
 Alpha virt. eigenvalues --    0.20602   0.23004   0.23575   0.25067   0.26160
 Alpha virt. eigenvalues --    0.26401   0.27024   0.27284   0.27987   0.28996
 Alpha virt. eigenvalues --    0.30596   0.31346   0.31569   0.31768   0.31953

 Mulliken charges:
               1
     1  C   -0.298334
     2  C   -0.299674
     3  C   -0.475730
     4  H    0.149697
     5  H    0.149811
     6  H    0.151918
     7  H    0.152015
     8  H    0.155286
     9  H    0.155196
    10  H    0.160302
    11  C   -0.298680
    12  C   -0.300654
    13  C   -0.484349
    14  H    0.149645
    15  H    0.149892
    16  H    0.152096
    17  H    0.153471
    18  H    0.155945
    19  H    0.155449
    20  H    0.167370
    21  C   -0.306427
    22  C   -0.299241
    23  C   -0.480256
    24  H    0.149740
    25  H    0.156708
    26  H    0.152082
    27  H    0.151494
    28  H    0.159414
    29  H    0.155123
    30  H    0.160265
    31  C   -0.297637
    32  C   -0.299844
    33  C   -0.475692
    34  H    0.149413
    35  H    0.149394
    36  H    0.151857
    37  H    0.152546
    38  H    0.155129
    39  H    0.155059
    40  H    0.160202
 Sum of Mulliken charges =  -0.00000

 Dipole moment (field-independent basis, Debye):
    X=              0.0294    Y=             -0.0113    Z=              0.0070  Tot=              0.0323
 Quadrupole moment (field-independent basis, Debye-Ang):
   XX=            -86.0550   YY=            -85.0285   ZZ=            -83.7090
   XY=             -1.3520   XZ=             -0.5744   YZ=              0.5714

 Normal termination of Gaussian 16 at Wed May  5 21:24:26 2021.
