 Gaussian 16, Revision A.03,
 Gaussian 16:  EM64L-G16RevA.03 25-Dec-2016

 -------------
 #p 6-31g* mp2
 -------------

 ------------------------------------------------------
 Input file generated by CHIRIPA (05-May-2021 14:51:08)
 ------------------------------------------------------
 Symbolic Z-matrix:
 Charge =  0 Multiplicity = 1

                         Standard orientation:
 ---------------------------------------------------------------------
 Center     Atomic      Atomic             Coordinates (Angstroms)
 Number     Number       Type             X           Y           Z
 ---------------------------------------------------------------------
      1          6           0        3.202246   -0.062862   -0.320928
      2          6           0        2.015023   -0.903598    0.149869
      3          6           0        0.677790   -0.389491   -0.384261
      4          1           0        3.054855    0.978457   -0.003321
      5          1           0        3.223967   -0.054485   -1.419496
      6          1           0        1.996360   -0.911526    1.247232
      7          1           0        2.165351   -1.943075   -0.168730
      8          1           0        0.671406   -0.397775   -1.479017
      9          1           0        0.501455    0.639635   -0.055010
     10          1           0       -0.157229   -1.005072   -0.035458
     11          6           0        4.546077   -0.564335    0.204785
     12          6           0        5.733300    0.276401   -0.266012
     13          6           0        7.070533   -0.237706    0.268118
     14          1           0        4.524356   -0.572712    1.303353
     15          1           0        4.693468   -1.605655   -0.112822
     16          1           0        5.582972    1.315878    0.052587
     17          1           0        5.751963    0.284328   -1.363375
     18          1           0        7.246868   -1.266833   -0.061133
     19          1           0        7.076917   -0.229422    1.362874
     20          1           0        7.905552    0.377875   -0.080685
     21          6           0       -3.780085    1.021903   -0.211902
     22          6           0       -2.682433    1.804887    0.509265
     23          6           0       -2.506157    3.220053   -0.042122
     24          1           0       -3.542803    0.972539   -1.283445
     25          1           0       -4.728405    1.570380   -0.126701
     26          1           0       -1.736755    1.254411    0.423912
     27          1           0       -2.922259    1.852229    1.579246
     28          1           0       -3.435081    3.790813    0.057543
     29          1           0       -2.242842    3.189599   -1.104354
     30          1           0       -1.716536    3.761900    0.487745
     31          6           0       -3.968238   -0.394706    0.328046
     32          6           0       -5.065890   -1.177690   -0.393122
     33          6           0       -5.242166   -2.592855    0.158265
     34          1           0       -3.019918   -0.943183    0.242844
     35          1           0       -4.205520   -0.345342    1.399589
     36          1           0       -4.826064   -1.225032   -1.463103
     37          1           0       -6.011568   -0.627214   -0.307769
     38          1           0       -5.505481   -2.562402    1.220497
     39          1           0       -4.313242   -3.163617    0.058599
     40          1           0       -6.031787   -3.134703   -0.371602
 ---------------------------------------------------------------------

 SCF Done:  E(RHF) =  -470.732989167     A.U. after   11 cycles
 E2 =    -0.1583009757D+01 EUMP2 =    -0.47231599892458D+03

 The electronic state is 1-A.
 Alpha  occ. eigenvalues --  -11.21665 -11.21627 -11.21563 -11.21447 -11.21438
 Alpha  occ. eigenvalues --  -11.21386 -11.21342 -11.21273 -11.21167 -11.21091
 Alpha  occ. eigenvalues --  -11.21047 -11.21003  -1.08477  -1.08358  -1.03588
 Alpha  occ. eigenvalues --   -1.03458  -0.96041  -0.95920  -0.87070  -0.86930
 Alpha  occ. eigenvalues --   -0.79692  -0.79493  -0.78295  -0.78160  -0.65127
 Alpha  occ. eigenvalues --   -0.64980  -0.61069  -0.60794  -0.59411  -0.59285
 Alpha  occ. eigenvalues --   -0.57669  -0.57512  -0.55368  -0.55175  -0.52773
 Alpha  occ. eigenvalues --   -0.52595  -0.52475  -0.52336  -0.50069  -0.49806
 Alpha  occ. eigenvalues --   -0.48019  -0.47796  -0.46804  -0.46426  -0.45862
 Alpha  occ. eigenvalues --   -0.45768  -0.45697  -0.45525  -0.43799  -0.43709
 Alpha virt. eigenvalues --    0.21461   0.22964   0.23893   0.24302   0.25724
 Alpha virt. eigenvalues --    0.26557   0.27077   0.27304   0.27826   0.29043
 Alpha virt. eigenvalues --    0.30405   0.31500   0.31681   0.31855   0.32183

 Mulliken charges:
               1
     1  C   -0.298810
     2  C   -0.299494
     3  C   -0.481991
     4  H    0.150049
     5  H    0.149592
     6  H    0.152520
     7  H    0.152100
     8  H    0.155499
     9  H    0.158872
    10  H    0.162592
    11  C   -0.298327
    12  C   -0.299687
    13  C   -0.475738
    14  H    0.149675
    15  H    0.149734
    16  H    0.152036
    17  H    0.151966
    18  H    0.155211
    19  H    0.155247
    20  H    0.160357
    21  C   -0.297147
    22  C   -0.309622
    23  C   -0.475413
    24  H    0.149560
    25  H    0.148985
    26  H    0.163592
    27  H    0.150762
    28  H    0.154919
    29  H    0.155099
    30  H    0.159099
    31  C   -0.301203
    32  C   -0.299533
    33  C   -0.475646
    34  H    0.151686
    35  H    0.149430
    36  H    0.151974
    37  H    0.151925
    38  H    0.155094
    39  H    0.154882
    40  H    0.160154
 Sum of Mulliken charges =  -0.00000

 Dipole moment (field-independent basis, Debye):
    X=              0.0615    Y=             -0.0189    Z=             -0.0078  Tot=              0.0648
 Quadrupole moment (field-independent basis, Debye-Ang):
   XX=            -85.5786   YY=            -85.5870   ZZ=            -83.8318
   XY=             -0.2396   XZ=             -0.7623   YZ=              1.1078

 Normal termination of Gaussian 16 at Wed May  5 15:06:17 2021.
