 Gaussian 16, Revision A.03,
 Gaussian 16:  EM64L-G16RevA.03 25-Dec-2016

 -------------
 #p 6-31g* mp2
 -------------

 ------------------------------------------------------
 Input file generated by CHIRIPA (05-May-2021 14:55:20)
 ------------------------------------------------------
 Symbolic Z-matrix:
 Charge =  0 Multiplicity = 1

                         Standard orientation:
 ---------------------------------------------------------------------
 Center     Atomic      Atomic             Coordinates (Angstroms)
 Number     Number       Type             X           Y           Z
 ---------------------------------------------------------------------
      1          6           0       -2.344918    2.526913   -0.067809
      2          6           0       -2.438975    1.767768   -1.238865
      3          6           0       -2.819495    0.423577   -1.184987
      4          6           0       -3.099965   -0.131889    0.062444
      5          6           0       -3.015328    0.598325    1.246890
      6          6           0       -2.632888    1.940802    1.169151
      7          1           0       -2.048576    3.570447   -0.118931
      8          1           0       -2.215930    2.220314   -2.200893
      9          1           0       -2.900317   -0.187193   -2.075968
     10          1           0       -3.243947    0.119438    2.191252
     11          1           0       -2.560681    2.527946    2.080245
     12          7           0       -3.503821   -1.554017    0.132112
     13          8           0       -3.745617   -2.019940    1.243457
     14          8           0       -3.570920   -2.175828   -0.925945
     15          6           0        4.574569   -0.367207   -0.286880
     16          6           0        5.701897    0.118730    0.624702
     17          6           0        7.079843   -0.361598    0.168253
     18          1           0        4.588318   -1.465137   -0.323009
     19          1           0        4.764696   -0.018352   -1.311354
     20          1           0        5.508980   -0.229769    1.647417
     21          1           0        5.685343    1.215625    0.658816
     22          1           0        7.297856   -0.001916   -0.842538
     23          1           0        7.120491   -1.455524    0.151679
     24          1           0        7.870939   -0.002756    0.834030
     25          6           0        3.190948    0.104820    0.156419
     26          6           0        2.063620   -0.381117   -0.755162
     27          6           0        0.685674    0.099211   -0.298715
     28          1           0        3.000820   -0.244035    1.180893
     29          1           0        3.177199    1.202750    0.192549
     30          1           0        2.080174   -1.478012   -0.789278
     31          1           0        2.256537   -0.032617   -1.777878
     32          1           0        0.645026    1.193137   -0.282139
     33          1           0        0.467661   -0.260470    0.712078
     34          1           0       -0.105422   -0.259630   -0.964492
 ---------------------------------------------------------------------

 SCF Done:  E(RHF) =  -669.533630530     A.U. after   15 cycles
 E2 =    -0.2093657336D+01 EUMP2 =    -0.67162728786668D+03

 The electronic state is 1-A.
 Alpha  occ. eigenvalues --  -20.60762 -20.60757 -15.85814 -11.31154 -11.27741
 Alpha  occ. eigenvalues --  -11.27704 -11.27481 -11.26770 -11.26734 -11.21685
 Alpha  occ. eigenvalues --  -11.21609 -11.21480 -11.21419 -11.21137 -11.20997
 Alpha  occ. eigenvalues --   -1.59838  -1.39392  -1.19350  -1.08744  -1.08493
 Alpha  occ. eigenvalues --   -1.04762  -1.03577  -0.96034  -0.95582  -0.87054
 Alpha  occ. eigenvalues --   -0.86157  -0.82417  -0.79653  -0.78314  -0.77463
 Alpha  occ. eigenvalues --   -0.72036  -0.71162  -0.70470  -0.65128  -0.65004
 Alpha  occ. eigenvalues --   -0.64764  -0.62107  -0.60984  -0.59459  -0.57655
 Alpha  occ. eigenvalues --   -0.55337  -0.55262  -0.53707  -0.52852  -0.52482
 Alpha  occ. eigenvalues --   -0.52041  -0.49984  -0.48793  -0.48790  -0.47972
 Alpha  occ. eigenvalues --   -0.46693  -0.45847  -0.45786  -0.44802  -0.43828
 Alpha  occ. eigenvalues --   -0.37271  -0.36246
 Alpha virt. eigenvalues --    0.05042   0.11205   0.16516   0.21371   0.22792
 Alpha virt. eigenvalues --    0.24237   0.26568   0.27192   0.27408   0.27964
 Alpha virt. eigenvalues --    0.28253   0.30911   0.31323   0.31770   0.31850

 Mulliken charges:
               1
     1  C   -0.170993
     2  C   -0.211505
     3  C   -0.178075
     4  C    0.165430
     5  C   -0.171626
     6  C   -0.216565
     7  H    0.225228
     8  H    0.223194
     9  H    0.275129
    10  H    0.275376
    11  H    0.223385
    12  N    0.487825
    13  O   -0.460649
    14  O   -0.461021
    15  C   -0.298223
    16  C   -0.299524
    17  C   -0.475718
    18  H    0.151263
    19  H    0.148766
    20  H    0.152253
    21  H    0.150535
    22  H    0.154877
    23  H    0.156085
    24  H    0.160135
    25  C   -0.298068
    26  C   -0.300398
    27  C   -0.474032
    28  H    0.150028
    29  H    0.146345
    30  H    0.154870
    31  H    0.148843
    32  H    0.149597
    33  H    0.155172
    34  H    0.162062
 Sum of Mulliken charges =  -0.00000

 Dipole moment (field-independent basis, Debye):
    X=              1.3543    Y=              5.0125    Z=             -0.2295  Tot=              5.1973
 Quadrupole moment (field-independent basis, Debye-Ang):
   XX=           -105.7515   YY=            -96.0514   ZZ=            -89.5838
   XY=            -15.7040   XZ=              0.5612   YZ=              0.2079

 Normal termination of Gaussian 16 at Thu May  6 06:08:19 2021.
