 Gaussian 16, Revision A.03,
 Gaussian 16:  EM64L-G16RevA.03 25-Dec-2016

 -------------
 #p 6-31g* mp2
 -------------

 ------------------------------------------------------
 Input file generated by CHIRIPA (05-May-2021 14:51:14)
 ------------------------------------------------------
 Symbolic Z-matrix:
 Charge =  0 Multiplicity = 1

                         Standard orientation:
 ---------------------------------------------------------------------
 Center     Atomic      Atomic             Coordinates (Angstroms)
 Number     Number       Type             X           Y           Z
 ---------------------------------------------------------------------
      1          6           0       -2.769954   -0.174012    0.068777
      2          6           0       -4.213554   -0.264343    0.564602
      3          6           0       -4.804671    1.101424    0.915396
      4          1           0       -2.153313    0.306735    0.840516
      5          1           0       -2.732843    0.480136   -0.813328
      6          1           0       -4.248145   -0.919232    1.444682
      7          1           0       -4.826792   -0.745104   -0.208330
      8          1           0       -4.799367    1.759683    0.040600
      9          1           0       -4.217432    1.584566    1.703004
     10          1           0       -5.837193    1.013524    1.267578
     11          6           0       -2.165175   -1.531278   -0.285904
     12          6           0       -0.721574   -1.440948   -0.781730
     13          6           0       -0.130457   -2.806714   -1.132524
     14          1           0       -2.202286   -2.185427    0.596200
     15          1           0       -2.781815   -2.012025   -1.057644
     16          1           0       -0.108337   -0.960187   -0.008798
     17          1           0       -0.686984   -0.786059   -1.661809
     18          1           0       -0.717696   -3.289856   -1.920132
     19          1           0       -0.135761   -3.464973   -0.257728
     20          1           0        0.902065   -2.718815   -1.484705
     21          6           0        2.098526    1.499727    0.277464
     22          6           0        1.503075    2.195506   -0.947002
     23          6           0        0.767956    3.488581   -0.592951
     24          1           0        1.295067    1.281910    0.994370
     25          1           0        2.789512    2.188983    0.782300
     26          1           0        0.814469    1.504661   -1.450162
     27          1           0        2.308017    2.411521   -1.661160
     28          1           0        1.447791    4.198636   -0.111029
     29          1           0       -0.054244    3.286623    0.101169
     30          1           0        0.350223    3.969491   -1.482942
     31          6           0        2.836603    0.205563   -0.060336
     32          6           0        3.432053   -0.490216    1.164129
     33          6           0        4.167172   -1.783291    0.810078
     34          1           0        2.145616   -0.483693   -0.565171
     35          1           0        3.640060    0.423381   -0.777243
     36          1           0        2.627112   -0.706231    1.878288
     37          1           0        4.120659    0.200629    1.667290
     38          1           0        4.989372   -1.581332    0.115960
     39          1           0        3.487338   -2.493346    0.328157
     40          1           0        4.584905   -2.264200    1.700071
 ---------------------------------------------------------------------

 SCF Done:  E(RHF) =  -470.732708759     A.U. after   11 cycles
 E2 =    -0.1584857615D+01 EUMP2 =    -0.47231756637396D+03

 The electronic state is 1-A.
 Alpha  occ. eigenvalues --  -11.21703 -11.21659 -11.21580 -11.21517 -11.21491
 Alpha  occ. eigenvalues --  -11.21432 -11.21348 -11.21265 -11.21191 -11.21110
 Alpha  occ. eigenvalues --  -11.21051 -11.21014  -1.08543  -1.08364  -1.03623
 Alpha  occ. eigenvalues --   -1.03483  -0.96073  -0.95930  -0.87081  -0.86950
 Alpha  occ. eigenvalues --   -0.79706  -0.79548  -0.78404  -0.78137  -0.65301
 Alpha  occ. eigenvalues --   -0.64923  -0.61074  -0.60826  -0.59438  -0.59300
 Alpha  occ. eigenvalues --   -0.57721  -0.57519  -0.55363  -0.55204  -0.52766
 Alpha  occ. eigenvalues --   -0.52627  -0.52503  -0.52354  -0.50027  -0.49853
 Alpha  occ. eigenvalues --   -0.48055  -0.47846  -0.46815  -0.46494  -0.46096
 Alpha  occ. eigenvalues --   -0.45811  -0.45642  -0.45374  -0.43871  -0.43732
 Alpha virt. eigenvalues --    0.19881   0.22261   0.23506   0.24082   0.25546
 Alpha virt. eigenvalues --    0.26081   0.26924   0.27537   0.28685   0.29824
 Alpha virt. eigenvalues --    0.30390   0.31232   0.31675   0.31992   0.32423

 Mulliken charges:
               1
     1  C   -0.298999
     2  C   -0.299692
     3  C   -0.475798
     4  H    0.149156
     5  H    0.150001
     6  H    0.152090
     7  H    0.152226
     8  H    0.155496
     9  H    0.155182
    10  H    0.160504
    11  C   -0.297843
    12  C   -0.307311
    13  C   -0.479407
    14  H    0.149764
    15  H    0.149999
    16  H    0.157532
    17  H    0.154142
    18  H    0.156287
    19  H    0.155814
    20  H    0.162343
    21  C   -0.298443
    22  C   -0.303228
    23  C   -0.475821
    24  H    0.148644
    25  H    0.149643
    26  H    0.156406
    27  H    0.151334
    28  H    0.154786
    29  H    0.155639
    30  H    0.159731
    31  C   -0.307735
    32  C   -0.299427
    33  C   -0.476998
    34  H    0.159975
    35  H    0.149565
    36  H    0.150844
    37  H    0.152023
    38  H    0.155132
    39  H    0.156321
    40  H    0.160123
 Sum of Mulliken charges =  -0.00000

 Dipole moment (field-independent basis, Debye):
    X=             -0.0524    Y=             -0.0368    Z=             -0.0249  Tot=              0.0687
 Quadrupole moment (field-independent basis, Debye-Ang):
   XX=            -84.5982   YY=            -86.2830   ZZ=            -83.9314
   XY=              1.4637   XZ=              0.4271   YZ=             -0.4890

 Normal termination of Gaussian 16 at Thu May  6 04:00:15 2021.
