 Gaussian 16, Revision A.03,
 Gaussian 16:  EM64L-G16RevA.03 25-Dec-2016

 -------------
 #p 6-31g* mp2
 -------------

 ------------------------------------------------------
 Input file generated by CHIRIPA (05-May-2021 14:51:12)
 ------------------------------------------------------
 Symbolic Z-matrix:
 Charge =  0 Multiplicity = 1

                         Standard orientation:
 ---------------------------------------------------------------------
 Center     Atomic      Atomic             Coordinates (Angstroms)
 Number     Number       Type             X           Y           Z
 ---------------------------------------------------------------------
      1          6           0        3.888916    0.618897   -0.002441
      2          6           0        3.398613    2.062134    0.118617
      3          6           0        4.500639    3.025811    0.559822
      4          1           0        4.296133    0.294344    0.964919
      5          1           0        4.720008    0.580335   -0.720211
      6          1           0        2.567784    2.097740    0.834907
      7          1           0        2.992341    2.383225   -0.849091
      8          1           0        5.327562    3.019876   -0.157649
      9          1           0        4.900593    2.732769    1.535918
     10          1           0        4.128323    4.051885    0.639905
     11          6           0        2.798631   -0.356406   -0.442656
     12          6           0        3.288934   -1.799643   -0.563714
     13          6           0        2.186908   -2.763320   -1.004919
     14          1           0        1.967539   -0.317844    0.275114
     15          1           0        2.391414   -0.031853   -1.410016
     16          1           0        3.695206   -2.120734    0.403994
     17          1           0        4.119763   -1.835249   -1.280004
     18          1           0        1.786954   -2.470277   -1.981015
     19          1           0        1.359985   -2.757385   -0.287448
     20          1           0        2.559225   -3.789393   -1.085001
     21          6           0       -3.060187   -0.840212    0.203123
     22          6           0       -1.886224   -1.050131    1.160062
     23          6           0       -1.329747   -2.473366    1.109746
     24          1           0       -3.856989   -1.555850    0.447893
     25          1           0       -2.735573   -1.071996   -0.820740
     26          1           0       -2.212573   -0.816687    2.181637
     27          1           0       -1.092201   -0.333782    0.913107
     28          1           0       -0.977486   -2.713847    0.101440
     29          1           0       -2.104224   -3.199497    1.377177
     30          1           0       -0.491339   -2.601304    1.801529
     31          6           0       -3.627361    0.577720    0.241973
     32          6           0       -4.801323    0.787640   -0.714965
     33          6           0       -5.357800    2.210875   -0.664649
     34          1           0       -3.951974    0.809505    1.265837
     35          1           0       -2.830558    1.293359   -0.002797
     36          1           0       -5.595346    0.071291   -0.468010
     37          1           0       -4.474974    0.554196   -1.736540
     38          1           0       -4.583322    2.937005   -0.932079
     39          1           0       -5.710061    2.451356    0.343658
     40          1           0       -6.196208    2.338813   -1.356432
 ---------------------------------------------------------------------

 SCF Done:  E(RHF) =  -470.733069565     A.U. after   11 cycles
 E2 =    -0.1582934867D+01 EUMP2 =    -0.47231600443222D+03

 The electronic state is 1-A.
 Alpha  occ. eigenvalues --  -11.21630 -11.21613 -11.21603 -11.21576 -11.21411
 Alpha  occ. eigenvalues --  -11.21410 -11.21351 -11.21351 -11.21091 -11.21078
 Alpha  occ. eigenvalues --  -11.21071 -11.20965  -1.08446  -1.08421  -1.03564
 Alpha  occ. eigenvalues --   -1.03499  -0.96032  -0.95933  -0.87074  -0.86928
 Alpha  occ. eigenvalues --   -0.79656  -0.79538  -0.78252  -0.78243  -0.65130
 Alpha  occ. eigenvalues --   -0.65005  -0.61085  -0.60799  -0.59382  -0.59314
 Alpha  occ. eigenvalues --   -0.57630  -0.57567  -0.55480  -0.55088  -0.52731
 Alpha  occ. eigenvalues --   -0.52652  -0.52474  -0.52318  -0.50150  -0.49683
 Alpha  occ. eigenvalues --   -0.47988  -0.47825  -0.46713  -0.46487  -0.45868
 Alpha  occ. eigenvalues --   -0.45753  -0.45706  -0.45636  -0.43796  -0.43774
 Alpha virt. eigenvalues --    0.20918   0.23177   0.23596   0.24942   0.25892
 Alpha virt. eigenvalues --    0.26619   0.26907   0.27338   0.28336   0.29129
 Alpha virt. eigenvalues --    0.31063   0.31296   0.31430   0.31654   0.32396

 Mulliken charges:
               1
     1  C   -0.298188
     2  C   -0.299691
     3  C   -0.475691
     4  H    0.149726
     5  H    0.149690
     6  H    0.151812
     7  H    0.151731
     8  H    0.155218
     9  H    0.155258
    10  H    0.160256
    11  C   -0.300431
    12  C   -0.299020
    13  C   -0.484293
    14  H    0.151079
    15  H    0.149213
    16  H    0.151666
    17  H    0.151708
    18  H    0.153658
    19  H    0.165713
    20  H    0.159951
    21  C   -0.298559
    22  C   -0.301770
    23  C   -0.480389
    24  H    0.149727
    25  H    0.150242
    26  H    0.152011
    27  H    0.153489
    28  H    0.160370
    29  H    0.155883
    30  H    0.159510
    31  C   -0.298457
    32  C   -0.299677
    33  C   -0.475725
    34  H    0.149442
    35  H    0.149948
    36  H    0.151934
    37  H    0.152004
    38  H    0.155237
    39  H    0.155156
    40  H    0.160261
 Sum of Mulliken charges =  -0.00000

 Dipole moment (field-independent basis, Debye):
    X=             -0.0299    Y=             -0.0096    Z=              0.0089  Tot=              0.0326
 Quadrupole moment (field-independent basis, Debye-Ang):
   XX=            -85.0859   YY=            -86.3153   ZZ=            -83.4161
   XY=              0.2362   XZ=             -0.9249   YZ=             -0.5910

 Normal termination of Gaussian 16 at Wed May  5 19:56:16 2021.
