 Gaussian 16, Revision A.03,
 Gaussian 16:  EM64L-G16RevA.03 25-Dec-2016

 -------------
 #p 6-31g* mp2
 -------------

 ------------------------------------------------------
 Input file generated by CHIRIPA (05-May-2021 14:57:26)
 ------------------------------------------------------
 Symbolic Z-matrix:
 Charge =  0 Multiplicity = 1

                         Standard orientation:
 ---------------------------------------------------------------------
 Center     Atomic      Atomic             Coordinates (Angstroms)
 Number     Number       Type             X           Y           Z
 ---------------------------------------------------------------------
      1          6           0       -2.369372    2.817854   -0.071640
      2          6           0       -1.492820    1.993280   -0.784560
      3          6           0       -1.723811    0.617086   -0.869890
      4          6           0       -2.846119    0.096684   -0.227319
      5          6           0       -3.737893    0.892122    0.490531
      6          6           0       -3.487140    2.265617    0.562512
      7          1           0       -2.182257    3.885867   -0.010539
      8          1           0       -0.623947    2.419398   -1.278046
      9          1           0       -1.061488   -0.044308   -1.415146
     10          1           0       -4.595601    0.438298    0.971986
     11          1           0       -4.169588    2.903578    1.116873
     12          7           0       -3.101119   -1.358802   -0.310587
     13          8           0       -4.096989   -1.792752    0.264362
     14          8           0       -2.300290   -2.038103   -0.949226
     15          6           0        4.757072    1.074378   -0.535423
     16          6           0        4.268664    1.191681    0.770034
     17          6           0        3.187076    0.414939    1.195931
     18          6           0        2.615285   -0.472971    0.286007
     19          6           0        3.079169   -0.612652   -1.021123
     20          6           0        4.161816    0.174172   -1.425266
     21          1           0        5.597688    1.681685   -0.857819
     22          1           0        4.728979    1.889961    1.463258
     23          1           0        2.788910    0.485627    2.200861
     24          1           0        2.599566   -1.317489   -1.689407
     25          1           0        4.539019    0.080964   -2.439699
     26          7           0        1.469696   -1.300609    0.725369
     27          8           0        0.983455   -2.075466   -0.095485
     28          8           0        1.079715   -1.158784    1.882279
 ---------------------------------------------------------------------

 SCF Done:  E(RHF) =  -868.336133478     A.U. after   16 cycles
 E2 =    -0.2601458464D+01 EUMP2 =    -0.87093759194177D+03

 The electronic state is 1-A.
 Alpha  occ. eigenvalues --  -20.60786 -20.60728 -20.59713 -20.59599 -15.85793
 Alpha  occ. eigenvalues --  -15.84715 -11.31398 -11.30415 -11.27978 -11.27974
 Alpha  occ. eigenvalues --  -11.27750 -11.27040 -11.27038 -11.27028 -11.27013
 Alpha  occ. eigenvalues --  -11.26895 -11.26178 -11.26146  -1.59830  -1.58721
 Alpha  occ. eigenvalues --   -1.39373  -1.38262  -1.19588  -1.18630  -1.08936
 Alpha  occ. eigenvalues --   -1.07973  -1.05013  -1.04100  -0.95726  -0.94751
 Alpha  occ. eigenvalues --   -0.86397  -0.85480  -0.82544  -0.81589  -0.77568
 Alpha  occ. eigenvalues --   -0.76564  -0.71985  -0.71218  -0.70916  -0.70671
 Alpha  occ. eigenvalues --   -0.70023  -0.69756  -0.65220  -0.65001  -0.64290
 Alpha  occ. eigenvalues --   -0.64127  -0.62347  -0.61442  -0.55492  -0.54619
 Alpha  occ. eigenvalues --   -0.53350  -0.53093  -0.52394  -0.52211  -0.48780
 Alpha  occ. eigenvalues --   -0.48752  -0.47740  -0.47666  -0.44722  -0.43547
 Alpha  occ. eigenvalues --   -0.37587  -0.36642  -0.36627  -0.35717
 Alpha virt. eigenvalues --    0.04937   0.05995   0.10996   0.11926   0.16369
 Alpha virt. eigenvalues --    0.17413   0.21164   0.21956   0.27040   0.27656
 Alpha virt. eigenvalues --    0.28110   0.28878   0.30658   0.31445   0.32260

 Mulliken charges:
               1
     1  C   -0.171614
     2  C   -0.219513
     3  C   -0.173213
     4  C    0.162916
     5  C   -0.170138
     6  C   -0.218389
     7  H    0.221194
     8  H    0.217910
     9  H    0.278727
    10  H    0.274983
    11  H    0.220718
    12  N    0.488269
    13  O   -0.465740
    14  O   -0.448322
    15  C   -0.172080
    16  C   -0.219137
    17  C   -0.171781
    18  C    0.156739
    19  C   -0.175931
    20  C   -0.219110
    21  H    0.225698
    22  H    0.223470
    23  H    0.276379
    24  H    0.277979
    25  H    0.224129
    26  N    0.485110
    27  O   -0.449445
    28  O   -0.459806
 Sum of Mulliken charges =  -0.00000

 Dipole moment (field-independent basis, Debye):
    X=              5.0061    Y=              7.6936    Z=             -1.2411  Tot=              9.2624
 Quadrupole moment (field-independent basis, Debye-Ang):
   XX=            -86.8892   YY=           -107.0137   ZZ=           -100.9376
   XY=             -8.8760   XZ=             -6.4587   YZ=              3.2191

 Normal termination of Gaussian 16 at Fri May  7 12:44:29 2021.
