 Gaussian 16, Revision A.03,
 Gaussian 16:  EM64L-G16RevA.03 25-Dec-2016

 -------------
 #p 6-31g* mp2
 -------------

 ------------------------------------------------------
 Input file generated by CHIRIPA (05-May-2021 14:57:23)
 ------------------------------------------------------
 Symbolic Z-matrix:
 Charge =  0 Multiplicity = 1

                         Standard orientation:
 ---------------------------------------------------------------------
 Center     Atomic      Atomic             Coordinates (Angstroms)
 Number     Number       Type             X           Y           Z
 ---------------------------------------------------------------------
      1          6           0       -1.653523    2.004155    1.285916
      2          6           0       -1.591150    0.648860    1.626219
      3          6           0       -2.404471   -0.284458    0.976623
      4          6           0       -3.272551    0.174382   -0.012919
      5          6           0       -3.357739    1.518020   -0.374402
      6          6           0       -2.535064    2.433652    0.288450
      7          1           0       -1.018083    2.722309    1.795686
      8          1           0       -0.907479    0.312446    2.400470
      9          1           0       -2.376518   -1.339573    1.220283
     10          1           0       -4.049218    1.823239   -1.150363
     11          1           0       -2.585635    3.485575    0.022091
     12          7           0       -4.138528   -0.804318   -0.707634
     13          8           0       -4.894896   -0.374637   -1.575919
     14          8           0       -4.044516   -1.982572   -0.370712
     15          6           0        1.067038   -1.473509    0.801847
     16          6           0        1.105885   -1.049654   -0.530579
     17          6           0        2.243561   -0.418131   -1.041872
     18          6           0        3.329250   -0.225684   -0.188918
     19          6           0        3.321033   -0.636629    1.143128
     20          6           0        2.172786   -1.266009    1.632983
     21          1           0        0.179158   -1.963260    1.190705
     22          1           0        0.248626   -1.209480   -1.178351
     23          1           0        2.300536   -0.079982   -2.069407
     24          1           0        4.191179   -0.463382    1.764617
     25          1           0        2.145436   -1.594130    2.668180
     26          7           0        4.539251    0.441748   -0.718854
     27          8           0        5.482585    0.599538    0.053066
     28          8           0        4.521405    0.794453   -1.896104
 ---------------------------------------------------------------------

 SCF Done:  E(RHF) =  -868.336132801     A.U. after   16 cycles
 E2 =    -0.2602554879D+01 EUMP2 =    -0.87093868768026D+03

 The electronic state is 1-A.
 Alpha  occ. eigenvalues --  -20.61560 -20.61534 -20.61150 -20.61140 -15.86603
 Alpha  occ. eigenvalues --  -15.86203 -11.32017 -11.31631 -11.28624 -11.28463
 Alpha  occ. eigenvalues --  -11.28238 -11.28172 -11.28155 -11.28009 -11.27574
 Alpha  occ. eigenvalues --  -11.27481 -11.27300 -11.27155  -1.60628  -1.60223
 Alpha  occ. eigenvalues --   -1.40180  -1.39774  -1.20155  -1.19818  -1.09518
 Alpha  occ. eigenvalues --   -1.09221  -1.05569  -1.05215  -0.96363  -0.96040
 Alpha  occ. eigenvalues --   -0.86943  -0.86616  -0.83231  -0.82834  -0.78276
 Alpha  occ. eigenvalues --   -0.77876  -0.72813  -0.72419  -0.71963  -0.71550
 Alpha  occ. eigenvalues --   -0.71314  -0.70899  -0.65791  -0.65575  -0.65447
 Alpha  occ. eigenvalues --   -0.65214  -0.62923  -0.62549  -0.56028  -0.55734
 Alpha  occ. eigenvalues --   -0.54097  -0.53689  -0.53329  -0.53262  -0.49581
 Alpha  occ. eigenvalues --   -0.49564  -0.49183  -0.49170  -0.45575  -0.45165
 Alpha  occ. eigenvalues --   -0.38336  -0.37971  -0.36997  -0.36528
 Alpha virt. eigenvalues --    0.04137   0.04736   0.10422   0.10747   0.15517
 Alpha virt. eigenvalues --    0.16387   0.19133   0.21842   0.25092   0.26454
 Alpha virt. eigenvalues --    0.27430   0.29490   0.29890   0.30815   0.32337

 Mulliken charges:
               1
     1  C   -0.171212
     2  C   -0.209084
     3  C   -0.182613
     4  C    0.158339
     5  C   -0.171845
     6  C   -0.217409
     7  H    0.229885
     8  H    0.220988
     9  H    0.269158
    10  H    0.277956
    11  H    0.227560
    12  N    0.487600
    13  O   -0.456522
    14  O   -0.462591
    15  C   -0.172051
    16  C   -0.214810
    17  C   -0.171969
    18  C    0.158118
    19  C   -0.171216
    20  C   -0.224108
    21  H    0.221905
    22  H    0.229154
    23  H    0.277619
    24  H    0.276187
    25  H    0.222222
    26  N    0.487858
    27  O   -0.460186
    28  O   -0.458935
 Sum of Mulliken charges =  -0.00000

 Dipole moment (field-independent basis, Debye):
    X=             -1.2456    Y=              1.3328    Z=              4.1704  Tot=              4.5520
 Quadrupole moment (field-independent basis, Debye-Ang):
   XX=           -152.4730   YY=           -100.5466   ZZ=           -100.7499
   XY=            -20.0131   XZ=              2.4917   YZ=             -2.1422

 Normal termination of Gaussian 16 at Thu May  6 06:37:16 2021.
