 Gaussian 16, Revision A.03,
 Gaussian 16:  EM64L-G16RevA.03 25-Dec-2016

 -------------
 #p 6-31g* mp2
 -------------

 ------------------------------------------------------
 Input file generated by CHIRIPA (05-May-2021 14:53:13)
 ------------------------------------------------------
 Symbolic Z-matrix:
 Charge =  0 Multiplicity = 1

                         Standard orientation:
 ---------------------------------------------------------------------
 Center     Atomic      Atomic             Coordinates (Angstroms)
 Number     Number       Type             X           Y           Z
 ---------------------------------------------------------------------
      1          6           0        4.161488    0.714960    0.144514
      2          6           0        2.902089    0.620417    1.006466
      3          6           0        1.964862    1.813460    0.816606
      4          1           0        4.694955    1.644317    0.386698
      5          1           0        3.869459    0.788477   -0.912231
      6          1           0        3.196441    0.545706    2.061166
      7          1           0        2.371659   -0.308917    0.762337
      8          1           0        1.642668    1.887976   -0.227060
      9          1           0        2.472136    2.747455    1.079148
     10          1           0        1.071088    1.725387    1.442123
     11          6           0        5.108336   -0.470476    0.323258
     12          6           0        6.367735   -0.375933   -0.538695
     13          6           0        7.304962   -1.568976   -0.348835
     14          1           0        5.400365   -0.543993    1.380002
     15          1           0        4.574869   -1.399833    0.081073
     16          1           0        6.898165    0.553401   -0.294566
     17          1           0        6.073383   -0.301222   -1.593394
     18          1           0        6.797688   -2.502971   -0.611377
     19          1           0        7.627156   -1.643492    0.694831
     20          1           0        8.198736   -1.480903   -0.974351
     21          6           0       -1.477370    1.057611   -0.846800
     22          6           0       -2.645167    1.804516   -0.659973
     23          6           0       -3.838613    1.176165   -0.291993
     24          6           0       -3.828266   -0.206980   -0.118523
     25          6           0       -2.681128   -0.978624   -0.297215
     26          6           0       -1.499039   -0.329131   -0.665144
     27          1           0       -0.554684    1.553942   -1.132635
     28          1           0       -2.631292    2.881617   -0.800354
     29          1           0       -4.757125    1.730143   -0.140788
     30          1           0       -2.726085   -2.050870   -0.149951
     31          1           0       -0.593627   -0.911729   -0.809547
     32          7           0       -5.085702   -0.883379    0.271014
     33          8           0       -5.050308   -2.103166    0.417657
     34          8           0       -6.082864   -0.180945    0.422315
 ---------------------------------------------------------------------

 SCF Done:  E(RHF) =  -669.535311278     A.U. after   15 cycles
 E2 =    -0.2091226736D+01 EUMP2 =    -0.67162653801341D+03

 The electronic state is 1-A.
 Alpha  occ. eigenvalues --  -20.60730 -20.60725 -15.85784 -11.31139 -11.27718
 Alpha  occ. eigenvalues --  -11.27713 -11.27410 -11.26721 -11.26705 -11.22538
 Alpha  occ. eigenvalues --  -11.22183 -11.22175 -11.22143 -11.22011 -11.21517
 Alpha  occ. eigenvalues --   -1.59806  -1.39360  -1.19314  -1.09172  -1.08704
 Alpha  occ. eigenvalues --   -1.04718  -1.04283  -0.96745  -0.95539  -0.87763
 Alpha  occ. eigenvalues --   -0.86112  -0.82379  -0.80355  -0.78952  -0.77428
 Alpha  occ. eigenvalues --   -0.72002  -0.71130  -0.70435  -0.65813  -0.64963
 Alpha  occ. eigenvalues --   -0.64722  -0.62073  -0.61687  -0.60108  -0.58330
 Alpha  occ. eigenvalues --   -0.56168  -0.55131  -0.53440  -0.53154  -0.53004
 Alpha  occ. eigenvalues --   -0.52808  -0.50671  -0.48762  -0.48758  -0.48659
 Alpha  occ. eigenvalues --   -0.47386  -0.46499  -0.46410  -0.44768  -0.44518
 Alpha  occ. eigenvalues --   -0.37268  -0.36328
 Alpha virt. eigenvalues --    0.05101   0.11302   0.16564   0.19639   0.22535
 Alpha virt. eigenvalues --    0.23888   0.25421   0.25672   0.26895   0.27688
 Alpha virt. eigenvalues --    0.28645   0.29915   0.30941   0.31448   0.32024

 Mulliken charges:
               1
     1  C   -0.298609
     2  C   -0.299590
     3  C   -0.479862
     4  H    0.152025
     5  H    0.147138
     6  H    0.157224
     7  H    0.147911
     8  H    0.143734
     9  H    0.160127
    10  H    0.166132
    11  C   -0.298595
    12  C   -0.300087
    13  C   -0.476077
    14  H    0.151631
    15  H    0.149034
    16  H    0.152984
    17  H    0.151681
    18  H    0.155535
    19  H    0.156298
    20  H    0.161775
    21  C   -0.170703
    22  C   -0.220669
    23  C   -0.170787
    24  C    0.158190
    25  C   -0.170896
    26  C   -0.221435
    27  H    0.231289
    28  H    0.223690
    29  H    0.275412
    30  H    0.275375
    31  H    0.223290
    32  N    0.488074
    33  O   -0.460655
    34  O   -0.460582
 Sum of Mulliken charges =  -0.00000

 Dipole moment (field-independent basis, Debye):
    X=              4.6342    Y=              2.4067    Z=             -1.2860  Tot=              5.3779
 Quadrupole moment (field-independent basis, Debye-Ang):
   XX=           -127.7701   YY=            -92.3369   ZZ=            -94.6336
   XY=            -11.6817   XZ=              5.3268   YZ=              0.5175

 Normal termination of Gaussian 16 at Thu May  6 02:36:51 2021.
