 Gaussian 16, Revision A.03,
 Gaussian 16:  EM64L-G16RevA.03 25-Dec-2016

 -------------
 #p 6-31g* mp2
 -------------

 ------------------------------------------------------
 Input file generated by CHIRIPA (05-May-2021 14:51:09)
 ------------------------------------------------------
 Symbolic Z-matrix:
 Charge =  0 Multiplicity = 1

                         Standard orientation:
 ---------------------------------------------------------------------
 Center     Atomic      Atomic             Coordinates (Angstroms)
 Number     Number       Type             X           Y           Z
 ---------------------------------------------------------------------
      1          6           0       -3.694266   -0.690611    0.151025
      2          6           0       -4.276484    0.592181   -0.443494
      3          6           0       -5.769506    0.752644   -0.155520
      4          1           0       -4.241497   -1.554523   -0.250396
      5          1           0       -3.861375   -0.691905    1.237058
      6          1           0       -4.107099    0.591697   -1.527895
      7          1           0       -3.727677    1.453129   -0.040759
      8          1           0       -5.953080    0.778941    0.923466
      9          1           0       -6.334658   -0.087385   -0.572120
     10          1           0       -6.165100    1.676207   -0.589568
     11          6           0       -2.202572   -0.865203   -0.128427
     12          6           0       -1.620354   -2.147994    0.466092
     13          6           0       -0.127332   -2.308458    0.178117
     14          1           0       -2.035463   -0.863909   -1.214461
     15          1           0       -1.655341   -0.001290    0.272993
     16          1           0       -2.169161   -3.008942    0.063356
     17          1           0       -1.789738   -2.147511    1.550492
     18          1           0        0.437820   -1.468429    0.594717
     19          1           0        0.056242   -2.334755   -0.900869
     20          1           0        0.268262   -3.232021    0.612165
     21          6           0        3.112584    0.038613   -0.110931
     22          6           0        4.612751   -0.256779   -0.095891
     23          6           0        4.925239   -1.739996   -0.296426
     24          1           0        2.621406   -0.550643    0.675495
     25          1           0        2.688752   -0.300441   -1.066339
     26          1           0        5.033879    0.083987    0.858648
     27          1           0        5.100442    0.333394   -0.882320
     28          1           0        4.532036   -2.090183   -1.256301
     29          1           0        4.465094   -2.341006    0.494558
     30          1           0        6.003231   -1.928654   -0.282237
     31          6           0        2.784255    1.517200    0.088334
     32          6           0        1.284086    1.812593    0.073294
     33          6           0        0.971599    3.295810    0.273829
     34          1           0        3.208085    1.856254    1.043743
     35          1           0        3.275433    2.106457   -0.698092
     36          1           0        0.796396    1.222420    0.859723
     37          1           0        0.862959    1.471825   -0.881244
     38          1           0        1.431744    3.896820   -0.517155
     39          1           0        1.364802    3.645997    1.233704
     40          1           0       -0.106393    3.484467    0.259640
 ---------------------------------------------------------------------

 SCF Done:  E(RHF) =  -470.732642774     A.U. after   11 cycles
 E2 =    -0.1583985206D+01 EUMP2 =    -0.47231662798061D+03

 The electronic state is 1-A.
 Alpha  occ. eigenvalues --  -11.21628 -11.21585 -11.21569 -11.21535 -11.21391
 Alpha  occ. eigenvalues --  -11.21358 -11.21308 -11.21289 -11.21101 -11.21058
 Alpha  occ. eigenvalues --  -11.21031 -11.20937  -1.08443  -1.08370  -1.03528
 Alpha  occ. eigenvalues --   -1.03481  -0.95996  -0.95907  -0.87011  -0.86928
 Alpha  occ. eigenvalues --   -0.79603  -0.79571  -0.78368  -0.78049  -0.65133
 Alpha  occ. eigenvalues --   -0.64956  -0.60936  -0.60877  -0.59382  -0.59258
 Alpha  occ. eigenvalues --   -0.57710  -0.57438  -0.55339  -0.55148  -0.52694
 Alpha  occ. eigenvalues --   -0.52635  -0.52488  -0.52241  -0.49987  -0.49822
 Alpha  occ. eigenvalues --   -0.47978  -0.47887  -0.46734  -0.46621  -0.46046
 Alpha  occ. eigenvalues --   -0.45756  -0.45610  -0.45121  -0.43771  -0.43736
 Alpha virt. eigenvalues --    0.21163   0.22992   0.23791   0.24189   0.25391
 Alpha virt. eigenvalues --    0.26375   0.26548   0.27423   0.28629   0.29790
 Alpha virt. eigenvalues --    0.30731   0.31189   0.31753   0.31776   0.32111

 Mulliken charges:
               1
     1  C   -0.298120
     2  C   -0.299446
     3  C   -0.475662
     4  H    0.149556
     5  H    0.149222
     6  H    0.151814
     7  H    0.151516
     8  H    0.155133
     9  H    0.155180
    10  H    0.160145
    11  C   -0.302120
    12  C   -0.299559
    13  C   -0.481255
    14  H    0.148873
    15  H    0.154565
    16  H    0.151414
    17  H    0.150952
    18  H    0.163248
    19  H    0.154529
    20  H    0.158953
    21  C   -0.301684
    22  C   -0.299262
    23  C   -0.475516
    24  H    0.153473
    25  H    0.150849
    26  H    0.151501
    27  H    0.151643
    28  H    0.155301
    29  H    0.155478
    30  H    0.159939
    31  C   -0.298408
    32  C   -0.302939
    33  C   -0.475931
    34  H    0.149054
    35  H    0.149656
    36  H    0.152924
    37  H    0.154212
    38  H    0.155600
    39  H    0.155081
    40  H    0.160088
 Sum of Mulliken charges =  -0.00000

 Dipole moment (field-independent basis, Debye):
    X=              0.0366    Y=              0.0172    Z=             -0.0107  Tot=              0.0418
 Quadrupole moment (field-independent basis, Debye-Ang):
   XX=            -86.1994   YY=            -85.7645   ZZ=            -83.0140
   XY=              0.7392   XZ=              0.3350   YZ=              0.1137

 Normal termination of Gaussian 16 at Wed May  5 21:23:17 2021.
