 Gaussian 16, Revision A.03,
 Gaussian 16:  EM64L-G16RevA.03 25-Dec-2016

 -------------
 #p 6-31g* mp2
 -------------

 ------------------------------------------------------
 Input file generated by CHIRIPA (05-May-2021 14:55:20)
 ------------------------------------------------------
 Symbolic Z-matrix:
 Charge =  0 Multiplicity = 1

                         Standard orientation:
 ---------------------------------------------------------------------
 Center     Atomic      Atomic             Coordinates (Angstroms)
 Number     Number       Type             X           Y           Z
 ---------------------------------------------------------------------
      1          6           0       -1.052537   -2.420692    1.234970
      2          6           0       -0.954025   -1.124105    1.750408
      3          6           0       -1.602142   -0.058083    1.119465
      4          6           0       -2.343665   -0.325798   -0.030215
      5          6           0       -2.460854   -1.606512   -0.568106
      6          6           0       -1.804312   -2.657341    0.079395
      7          1           0       -0.545791   -3.242903    1.731534
      8          1           0       -0.370880   -0.937367    2.647690
      9          1           0       -1.542678    0.955494    1.497016
     10          1           0       -3.049462   -1.761537   -1.464168
     11          1           0       -1.882578   -3.663261   -0.323152
     12          7           0       -3.034257    0.794710   -0.706931
     13          8           0       -3.681377    0.532576   -1.718443
     14          8           0       -2.915347    1.913881   -0.213014
     15          6           0        3.322211    0.285120   -0.582384
     16          6           0        3.697313   -1.117726   -0.103525
     17          6           0        4.634046   -1.841833   -1.070995
     18          1           0        2.847263    0.213599   -1.570439
     19          1           0        4.238686    0.875914   -0.718146
     20          1           0        2.780321   -1.705268    0.032620
     21          1           0        4.171251   -1.042876    0.883590
     22          1           0        5.564744   -1.279763   -1.199373
     23          1           0        4.165911   -1.945919   -2.055178
     24          1           0        4.889331   -2.842720   -0.709177
     25          6           0        2.386197    1.021685    0.374214
     26          6           0        2.011094    2.424532   -0.104645
     27          6           0        1.074362    3.148637    0.862825
     28          1           0        1.469722    0.430891    0.509976
     29          1           0        2.861146    1.093206    1.362269
     30          1           0        1.537157    2.349680   -1.091760
     31          1           0        2.928087    3.012073   -0.240790
     32          1           0        1.542497    3.252725    1.847008
     33          1           0        0.143664    2.586568    0.991203
     34          1           0        0.819076    4.149525    0.501007
 ---------------------------------------------------------------------

 SCF Done:  E(RHF) =  -669.535396059     A.U. after   15 cycles
 E2 =    -0.2093286904D+01 EUMP2 =    -0.67162868296283D+03

 The electronic state is 1-A.
 Alpha  occ. eigenvalues --  -20.60868 -20.60862 -15.85914 -11.31303 -11.27864
 Alpha  occ. eigenvalues --  -11.27860 -11.27608 -11.26890 -11.26880 -11.21911
 Alpha  occ. eigenvalues --  -11.21585 -11.21555 -11.21465 -11.21355 -11.21030
 Alpha  occ. eigenvalues --   -1.59938  -1.39491  -1.19482  -1.08866  -1.08581
 Alpha  occ. eigenvalues --   -1.04888  -1.03667  -0.96112  -0.95697  -0.87134
 Alpha  occ. eigenvalues --   -0.86274  -0.82526  -0.79743  -0.78419  -0.77563
 Alpha  occ. eigenvalues --   -0.72131  -0.71260  -0.70584  -0.65227  -0.65124
 Alpha  occ. eigenvalues --   -0.64878  -0.62265  -0.61036  -0.59483  -0.57729
 Alpha  occ. eigenvalues --   -0.55484  -0.55301  -0.53239  -0.53009  -0.52784
 Alpha  occ. eigenvalues --   -0.52497  -0.50053  -0.48892  -0.48886  -0.48057
 Alpha  occ. eigenvalues --   -0.46773  -0.45947  -0.45859  -0.44874  -0.43909
 Alpha  occ. eigenvalues --   -0.37453  -0.36417
 Alpha virt. eigenvalues --    0.04904   0.11078   0.16372   0.20792   0.22840
 Alpha virt. eigenvalues --    0.24009   0.25877   0.26780   0.27043   0.28083
 Alpha virt. eigenvalues --    0.28856   0.30250   0.31383   0.31645   0.31866

 Mulliken charges:
               1
     1  C   -0.171749
     2  C   -0.218645
     3  C   -0.173674
     4  C    0.157866
     5  C   -0.170955
     6  C   -0.218355
     7  H    0.226656
     8  H    0.226028
     9  H    0.281733
    10  H    0.276007
    11  H    0.224086
    12  N    0.488066
    13  O   -0.459767
    14  O   -0.460785
    15  C   -0.297475
    16  C   -0.299704
    17  C   -0.475636
    18  H    0.151629
    19  H    0.150427
    20  H    0.148380
    21  H    0.150087
    22  H    0.156693
    23  H    0.156158
    24  H    0.158432
    25  C   -0.305717
    26  C   -0.299763
    27  C   -0.478855
    28  H    0.152074
    29  H    0.145439
    30  H    0.156403
    31  H    0.152051
    32  H    0.150683
    33  H    0.154916
    34  H    0.167264
 Sum of Mulliken charges =  -0.00000

 Dipole moment (field-independent basis, Debye):
    X=              2.3282    Y=             -3.9243    Z=              2.3192  Tot=              5.1185
 Quadrupole moment (field-independent basis, Debye-Ang):
   XX=           -106.2526   YY=            -90.5184   ZZ=            -93.0109
   XY=             10.6477   XZ=             -3.6989   YZ=              1.4333

 Normal termination of Gaussian 16 at Thu May  6 06:09:27 2021.
