 Gaussian 16, Revision A.03,
 Gaussian 16:  EM64L-G16RevA.03 25-Dec-2016

 -------------
 #p 6-31g* mp2
 -------------

 ------------------------------------------------------
 Input file generated by CHIRIPA (05-May-2021 14:53:11)
 ------------------------------------------------------
 Symbolic Z-matrix:
 Charge =  0 Multiplicity = 1

                         Standard orientation:
 ---------------------------------------------------------------------
 Center     Atomic      Atomic             Coordinates (Angstroms)
 Number     Number       Type             X           Y           Z
 ---------------------------------------------------------------------
      1          6           0        4.478728    0.589255   -0.307078
      2          6           0        5.910174    0.865594    0.153993
      3          6           0        6.460390    2.186276   -0.385317
      4          1           0        4.449510    0.579126   -1.405253
      5          1           0        3.831009    1.416285    0.015219
      6          1           0        6.554743    0.037617   -0.167879
      7          1           0        5.936024    0.874876    1.251199
      8          1           0        5.841355    3.025886   -0.052974
      9          1           0        6.463590    2.183870   -1.480116
     10          1           0        7.484814    2.363874   -0.043450
     11          6           0        3.914770   -0.727461    0.223900
     12          6           0        2.483325   -1.003799   -0.237171
     13          6           0        1.933109   -2.324482    0.302139
     14          1           0        4.562490   -1.554491   -0.098397
     15          1           0        3.943988   -0.717332    1.322075
     16          1           0        2.457475   -1.013082   -1.334377
     17          1           0        1.838756   -0.175823    0.084702
     18          1           0        1.929909   -2.322076    1.396938
     19          1           0        2.552144   -3.164092   -0.030204
     20          1           0        0.908684   -2.502080   -0.039728
     21          6           0       -4.912641    1.974622   -0.053246
     22          6           0       -4.838067    1.070953   -1.118300
     23          6           0       -3.936483    0.003083   -1.081584
     24          6           0       -3.120748   -0.131693    0.040780
     25          6           0       -3.171494    0.752053    1.117677
     26          6           0       -4.080583    1.812574    1.059382
     27          1           0       -5.615928    2.801316   -0.090150
     28          1           0       -5.483027    1.194334   -1.983661
     29          1           0       -3.857967   -0.711158   -1.892210
     30          1           0       -2.515639    0.603061    1.966838
     31          1           0       -4.136321    2.512840    1.887974
     32          7           0       -2.162308   -1.258310    0.091072
     33          8           0       -1.454559   -1.355098    1.091252
     34          8           0       -2.136982   -2.023231   -0.870640
 ---------------------------------------------------------------------

 SCF Done:  E(RHF) =  -669.536538805     A.U. after   15 cycles
 E2 =    -0.2091473798D+01 EUMP2 =    -0.67162801260322D+03

 The electronic state is 1-A.
 Alpha  occ. eigenvalues --  -20.61041 -20.61036 -15.86040 -11.31340 -11.27895
 Alpha  occ. eigenvalues --  -11.27891 -11.27628 -11.26895 -11.26885 -11.21079
 Alpha  occ. eigenvalues --  -11.20711 -11.20677 -11.20451 -11.20333 -11.19188
 Alpha  occ. eigenvalues --   -1.60081  -1.39636  -1.19501  -1.08912  -1.07589
 Alpha  occ. eigenvalues --   -1.04892  -1.02560  -0.95760  -0.94975  -0.86295
 Alpha  occ. eigenvalues --   -0.85994  -0.82590  -0.78686  -0.77651  -0.77355
 Alpha  occ. eigenvalues --   -0.72249  -0.71389  -0.70610  -0.65156  -0.64896
 Alpha  occ. eigenvalues --   -0.64236  -0.62240  -0.59971  -0.58435  -0.56570
 Alpha  occ. eigenvalues --   -0.55396  -0.54293  -0.53226  -0.52984  -0.51645
 Alpha  occ. eigenvalues --   -0.51428  -0.49076  -0.49014  -0.48838  -0.46943
 Alpha  occ. eigenvalues --   -0.45760  -0.45050  -0.44889  -0.44800  -0.42762
 Alpha  occ. eigenvalues --   -0.37477  -0.36491
 Alpha virt. eigenvalues --    0.04862   0.11165   0.16364   0.21301   0.23616
 Alpha virt. eigenvalues --    0.25377   0.27221   0.27405   0.28151   0.28286
 Alpha virt. eigenvalues --    0.29110   0.30870   0.32253   0.32428   0.32513

 Mulliken charges:
               1
     1  C   -0.297067
     2  C   -0.298872
     3  C   -0.475080
     4  H    0.148073
     5  H    0.146723
     6  H    0.151487
     7  H    0.150977
     8  H    0.153509
     9  H    0.154350
    10  H    0.158563
    11  C   -0.297066
    12  C   -0.299303
    13  C   -0.479027
    14  H    0.147736
    15  H    0.148006
    16  H    0.147733
    17  H    0.149010
    18  H    0.152483
    19  H    0.144417
    20  H    0.186705
    21  C   -0.170447
    22  C   -0.218592
    23  C   -0.170633
    24  C    0.159619
    25  C   -0.170777
    26  C   -0.218576
    27  H    0.226179
    28  H    0.224007
    29  H    0.275986
    30  H    0.275856
    31  H    0.223974
    32  N    0.488117
    33  O   -0.457946
    34  O   -0.460124
 Sum of Mulliken charges =  -0.00000

 Dipole moment (field-independent basis, Debye):
    X=             -3.7875    Y=              3.9146    Z=             -0.1496  Tot=              5.4490
 Quadrupole moment (field-independent basis, Debye-Ang):
   XX=            -75.0940   YY=            -96.6857   ZZ=            -90.3195
   XY=            -12.4277   XZ=              2.0290   YZ=              2.5200

 Normal termination of Gaussian 16 at Thu May  6 02:28:58 2021.
