 Gaussian 16, Revision A.03,
 Gaussian 16:  EM64L-G16RevA.03 25-Dec-2016

 -------------
 #p 6-31g* mp2
 -------------

 ------------------------------------------------------
 Input file generated by CHIRIPA (05-May-2021 14:53:16)
 ------------------------------------------------------
 Symbolic Z-matrix:
 Charge =  0 Multiplicity = 1

                         Standard orientation:
 ---------------------------------------------------------------------
 Center     Atomic      Atomic             Coordinates (Angstroms)
 Number     Number       Type             X           Y           Z
 ---------------------------------------------------------------------
      1          6           0        3.580217    0.855233   -0.373013
      2          6           0        2.910473    1.970491    0.430498
      3          6           0        2.605018    3.206991   -0.415408
      4          1           0        4.510453    1.238046   -0.814669
      5          1           0        2.928197    0.574845   -1.211850
      6          1           0        3.562939    2.247735    1.268376
      7          1           0        1.981821    1.584923    0.870450
      8          1           0        1.935134    2.951780   -1.242888
      9          1           0        3.525235    3.618358   -0.842701
     10          1           0        2.126509    3.991721    0.178804
     11          6           0        3.891840   -0.387572    0.458885
     12          6           0        4.561584   -1.502829   -0.344625
     13          6           0        4.867039   -2.739330    0.501281
     14          1           0        4.543860   -0.107184    1.297723
     15          1           0        2.961604   -0.770385    0.900542
     16          1           0        5.490236   -1.117261   -0.784578
     17          1           0        3.909118   -1.780074   -1.182503
     18          1           0        3.946822   -3.150697    0.928574
     19          1           0        5.536924   -2.484119    1.328760
     20          1           0        5.345549   -3.524060   -0.092931
     21          6           0       -0.409223   -0.057747   -0.262627
     22          6           0       -1.134038    1.074285    0.124244
     23          6           0       -2.524824    1.016622    0.254379
     24          6           0       -3.161386   -0.194758   -0.011397
     25          6           0       -2.467122   -1.339886   -0.398657
     26          6           0       -1.076902   -1.259102   -0.522385
     27          1           0        0.670953   -0.003973   -0.361230
     28          1           0       -0.618161    2.008608    0.326620
     29          1           0       -3.110558    1.877776    0.552284
     30          1           0       -3.009309   -2.257192   -0.593600
     31          1           0       -0.516580   -2.139848   -0.823001
     32          7           0       -4.633450   -0.268042    0.122979
     33          8           0       -5.170678   -1.347152   -0.116907
     34          8           0       -5.222153    0.755015    0.465647
 ---------------------------------------------------------------------

 SCF Done:  E(RHF) =  -669.534837606     A.U. after   15 cycles
 E2 =    -0.2093100519D+01 EUMP2 =    -0.67162793812559D+03

 The electronic state is 1-A.
 Alpha  occ. eigenvalues --  -20.60741 -20.60736 -15.85795 -11.31161 -11.27728
 Alpha  occ. eigenvalues --  -11.27722 -11.27411 -11.26739 -11.26715 -11.22947
 Alpha  occ. eigenvalues --  -11.22709 -11.22615 -11.22542 -11.22289 -11.21901
 Alpha  occ. eigenvalues --   -1.59817  -1.39370  -1.19329  -1.09681  -1.08718
 Alpha  occ. eigenvalues --   -1.04747  -1.04664  -0.97113  -0.95563  -0.88119
 Alpha  occ. eigenvalues --   -0.86131  -0.82396  -0.80744  -0.79450  -0.77442
 Alpha  occ. eigenvalues --   -0.72013  -0.71140  -0.70567  -0.66341  -0.64980
 Alpha  occ. eigenvalues --   -0.64707  -0.62246  -0.61893  -0.60473  -0.58705
 Alpha  occ. eigenvalues --   -0.56484  -0.55137  -0.53767  -0.53506  -0.53063
 Alpha  occ. eigenvalues --   -0.52814  -0.51044  -0.49031  -0.48771  -0.48767
 Alpha  occ. eigenvalues --   -0.47819  -0.46951  -0.46940  -0.44942  -0.44776
 Alpha  occ. eigenvalues --   -0.37298  -0.36336
 Alpha virt. eigenvalues --    0.05070   0.11255   0.16501   0.18353   0.22148
 Alpha virt. eigenvalues --    0.23822   0.25124   0.25749   0.26375   0.28236
 Alpha virt. eigenvalues --    0.30003   0.30237   0.30729   0.30899   0.32079

 Mulliken charges:
               1
     1  C   -0.305555
     2  C   -0.307045
     3  C   -0.478981
     4  H    0.158461
     5  H    0.143853
     6  H    0.160042
     7  H    0.145699
     8  H    0.154283
     9  H    0.161948
    10  H    0.162279
    11  C   -0.301416
    12  C   -0.299867
    13  C   -0.476262
    14  H    0.155460
    15  H    0.145677
    16  H    0.155754
    17  H    0.148924
    18  H    0.154671
    19  H    0.158041
    20  H    0.163377
    21  C   -0.179441
    22  C   -0.225326
    23  C   -0.170639
    24  C    0.158282
    25  C   -0.170567
    26  C   -0.221711
    27  H    0.240829
    28  H    0.227764
    29  H    0.275648
    30  H    0.275463
    31  H    0.223294
    32  N    0.487974
    33  O   -0.460485
    34  O   -0.460428
 Sum of Mulliken charges =  -0.00000

 Dipole moment (field-independent basis, Debye):
    X=              5.4977    Y=              0.3070    Z=             -0.4471  Tot=              5.5244
 Quadrupole moment (field-independent basis, Debye-Ang):
   XX=           -125.9512   YY=            -90.5590   ZZ=            -95.3906
   XY=             -1.1753   XZ=              1.5930   YZ=              2.1131

 Normal termination of Gaussian 16 at Thu May  6 04:21:34 2021.
