 Gaussian 16, Revision A.03,
 Gaussian 16:  EM64L-G16RevA.03 25-Dec-2016

 -------------
 #p 6-31g* mp2
 -------------

 ------------------------------------------------------
 Input file generated by CHIRIPA (05-May-2021 14:53:16)
 ------------------------------------------------------
 Symbolic Z-matrix:
 Charge =  0 Multiplicity = 1

                         Standard orientation:
 ---------------------------------------------------------------------
 Center     Atomic      Atomic             Coordinates (Angstroms)
 Number     Number       Type             X           Y           Z
 ---------------------------------------------------------------------
      1          6           0       -3.463008    1.057381    0.032311
      2          6           0       -2.488919    1.871429   -0.820015
      3          6           0       -2.439364    3.345296   -0.416214
      4          1           0       -4.467049    1.495601   -0.050208
      5          1           0       -3.171974    1.139511    1.088696
      6          1           0       -2.780887    1.786663   -1.874617
      7          1           0       -1.487117    1.431105   -0.735609
      8          1           0       -2.126215    3.448385    0.627774
      9          1           0       -3.427336    3.805962   -0.517706
     10          1           0       -1.736856    3.908599   -1.038333
     11          6           0       -3.523685   -0.417974   -0.359321
     12          6           0       -4.497774   -1.232022    0.493005
     13          6           0       -4.547328   -2.705889    0.089204
     14          1           0       -3.814719   -0.500104   -1.415706
     15          1           0       -2.519644   -0.856194   -0.276802
     16          1           0       -5.499576   -0.791698    0.408599
     17          1           0       -4.205806   -1.147255    1.547607
     18          1           0       -3.559357   -3.166555    0.190696
     19          1           0       -4.860478   -2.808977   -0.954784
     20          1           0       -5.249837   -3.269192    0.711323
     21          6           0        5.192830   -0.130524   -0.403408
     22          6           0        4.682944    0.547229    0.708880
     23          6           0        3.319590    0.488202    1.012742
     24          6           0        2.491000   -0.261296    0.179088
     25          6           0        2.968897   -0.947559   -0.936237
     26          6           0        4.335691   -0.874445   -1.220975
     27          1           0        6.253252   -0.079199   -0.632028
     28          1           0        5.346260    1.125736    1.345580
     29          1           0        2.898279    1.003191    1.867554
     30          1           0        2.282916   -1.516142   -1.552323
     31          1           0        4.728890   -1.401814   -2.085452
     32          7           0        1.045858   -0.331243    0.490650
     33          8           0        0.336767   -0.998392   -0.259510
     34          8           0        0.649610    0.282406    1.479113
 ---------------------------------------------------------------------

 SCF Done:  E(RHF) =  -669.536985478     A.U. after   15 cycles
 E2 =    -0.2092200882D+01 EUMP2 =    -0.67162918635942D+03

 The electronic state is 1-A.
 Alpha  occ. eigenvalues --  -20.61213 -20.61186 -15.86196 -11.31430 -11.27977
 Alpha  occ. eigenvalues --  -11.27974 -11.27701 -11.26962 -11.26952 -11.20213
 Alpha  occ. eigenvalues --  -11.20142 -11.19946 -11.19886 -11.19824 -11.19543
 Alpha  occ. eigenvalues --   -1.60239  -1.39796  -1.19586  -1.09009  -1.06887
 Alpha  occ. eigenvalues --   -1.04966  -1.02174  -0.95863  -0.94627  -0.86371
 Alpha  occ. eigenvalues --   -0.85658  -0.82700  -0.78232  -0.77764  -0.76682
 Alpha  occ. eigenvalues --   -0.72405  -0.71544  -0.70693  -0.65241  -0.64971
 Alpha  occ. eigenvalues --   -0.63489  -0.62312  -0.59565  -0.58018  -0.56253
 Alpha  occ. eigenvalues --   -0.55476  -0.53904  -0.53303  -0.53056  -0.51405
 Alpha  occ. eigenvalues --   -0.51076  -0.49228  -0.49173  -0.48552  -0.46567
 Alpha  occ. eigenvalues --   -0.45287  -0.45182  -0.44249  -0.43958  -0.42364
 Alpha  occ. eigenvalues --   -0.37558  -0.36561
 Alpha virt. eigenvalues --    0.04729   0.11096   0.16247   0.21228   0.24436
 Alpha virt. eigenvalues --    0.25541   0.27167   0.27942   0.28338   0.29018
 Alpha virt. eigenvalues --    0.29412   0.30875   0.32358   0.32614   0.32990

 Mulliken charges:
               1
     1  C   -0.295610
     2  C   -0.301148
     3  C   -0.475478
     4  H    0.141067
     5  H    0.154362
     6  H    0.144862
     7  H    0.163125
     8  H    0.157089
     9  H    0.150652
    10  H    0.153130
    11  C   -0.311890
    12  C   -0.298126
    13  C   -0.475287
    14  H    0.140470
    15  H    0.181923
    16  H    0.145435
    17  H    0.152273
    18  H    0.158541
    19  H    0.151231
    20  H    0.154661
    21  C   -0.170168
    22  C   -0.218669
    23  C   -0.170290
    24  C    0.158201
    25  C   -0.170484
    26  C   -0.218623
    27  H    0.226556
    28  H    0.224344
    29  H    0.276163
    30  H    0.276308
    31  H    0.224385
    32  N    0.489053
    33  O   -0.459353
    34  O   -0.458705
 Sum of Mulliken charges =  -0.00000

 Dipole moment (field-independent basis, Debye):
    X=              5.6174    Y=              0.1098    Z=             -0.9898  Tot=              5.7050
 Quadrupole moment (field-independent basis, Debye-Ang):
   XX=            -70.9377   YY=            -95.7651   ZZ=            -92.0052
   XY=             -0.3982   XZ=             -1.0952   YZ=              3.0616

 Normal termination of Gaussian 16 at Wed May  5 20:18:57 2021.
