 Gaussian 16, Revision A.03,
 Gaussian 16:  EM64L-G16RevA.03 25-Dec-2016

 -------------
 #p 6-31g* mp2
 -------------

 ------------------------------------------------------
 Input file generated by CHIRIPA (05-May-2021 14:55:22)
 ------------------------------------------------------
 Symbolic Z-matrix:
 Charge =  0 Multiplicity = 1

                         Standard orientation:
 ---------------------------------------------------------------------
 Center     Atomic      Atomic             Coordinates (Angstroms)
 Number     Number       Type             X           Y           Z
 ---------------------------------------------------------------------
      1          6           0       -1.680498    1.827216   -1.312714
      2          6           0       -3.040053    1.898358   -0.991666
      3          6           0       -3.681206    0.820156   -0.374455
      4          6           0       -2.929036   -0.318866   -0.091332
      5          6           0       -1.573127   -0.420137   -0.398816
      6          6           0       -0.952658    0.670236   -1.015788
      7          1           0       -1.190469    2.669517   -1.792086
      8          1           0       -3.607801    2.795617   -1.221087
      9          1           0       -4.732536    0.848416   -0.114983
     10          1           0       -1.033486   -1.327926   -0.157729
     11          1           0        0.103315    0.612175   -1.263973
     12          7           0       -3.596847   -1.466753    0.561955
     13          8           0       -2.911964   -2.458955    0.800928
     14          8           0       -4.792516   -1.352529    0.822659
     15          6           0        3.917365   -0.235635   -0.316765
     16          6           0        4.454562   -1.598579    0.121167
     17          6           0        5.069793   -2.390205   -1.033222
     18          1           0        3.166125   -0.380800   -1.105125
     19          1           0        4.734323    0.345369   -0.766665
     20          1           0        3.637147   -2.176311    0.571361
     21          1           0        5.204472   -1.450164    0.908710
     22          1           0        5.903245   -1.837276   -1.478451
     23          1           0        4.327015   -2.567549   -1.817715
     24          1           0        5.447456   -3.361162   -0.697850
     25          6           0        3.299204    0.567617    0.826210
     26          6           0        2.762006    1.930562    0.388277
     27          6           0        2.146775    2.722188    1.542666
     28          1           0        2.482245   -0.013386    1.276109
     29          1           0        4.050444    0.712782    1.614569
     30          1           0        2.012096    1.782146   -0.399265
     31          1           0        3.579422    2.508293   -0.061918
     32          1           0        2.889554    2.899532    2.327160
     33          1           0        1.313324    2.169259    1.987895
     34          1           0        1.769112    3.693144    1.207294
 ---------------------------------------------------------------------

 SCF Done:  E(RHF) =  -669.535436659     A.U. after   15 cycles
 E2 =    -0.2091622522D+01 EUMP2 =    -0.67162705918048D+03

 The electronic state is 1-A.
 Alpha  occ. eigenvalues --  -20.60783 -20.60778 -15.85837 -11.31209 -11.27783
 Alpha  occ. eigenvalues --  -11.27777 -11.27521 -11.26790 -11.26776 -11.22453
 Alpha  occ. eigenvalues --  -11.22120 -11.22077 -11.22034 -11.21712 -11.21467
 Alpha  occ. eigenvalues --   -1.59859  -1.39412  -1.19382  -1.09109  -1.08773
 Alpha  occ. eigenvalues --   -1.04789  -1.04144  -0.96572  -0.95608  -0.87587
 Alpha  occ. eigenvalues --   -0.86188  -0.82442  -0.80225  -0.78918  -0.77489
 Alpha  occ. eigenvalues --   -0.72055  -0.71182  -0.70487  -0.65825  -0.65034
 Alpha  occ. eigenvalues --   -0.64759  -0.62182  -0.61489  -0.59949  -0.58187
 Alpha  occ. eigenvalues --   -0.55854  -0.55284  -0.53262  -0.53109  -0.52999
 Alpha  occ. eigenvalues --   -0.52880  -0.50508  -0.48824  -0.48810  -0.48516
 Alpha  occ. eigenvalues --   -0.47261  -0.46450  -0.46368  -0.44816  -0.44413
 Alpha  occ. eigenvalues --   -0.37355  -0.36385
 Alpha virt. eigenvalues --    0.05046   0.11179   0.16502   0.18952   0.22856
 Alpha virt. eigenvalues --    0.23852   0.24812   0.26338   0.27043   0.28413
 Alpha virt. eigenvalues --    0.29131   0.30656   0.31216   0.31368   0.31993

 Mulliken charges:
               1
     1  C   -0.171609
     2  C   -0.218506
     3  C   -0.170892
     4  C    0.158763
     5  C   -0.172551
     6  C   -0.221667
     7  H    0.226005
     8  H    0.223588
     9  H    0.275736
    10  H    0.275387
    11  H    0.229176
    12  N    0.488056
    13  O   -0.460521
    14  O   -0.460305
    15  C   -0.298240
    16  C   -0.300415
    17  C   -0.476013
    18  H    0.141953
    19  H    0.151702
    20  H    0.153585
    21  H    0.154380
    22  H    0.155639
    23  H    0.154599
    24  H    0.163197
    25  C   -0.299995
    26  C   -0.300742
    27  C   -0.476181
    28  H    0.150288
    29  H    0.154162
    30  H    0.140432
    31  H    0.154518
    32  H    0.158653
    33  H    0.159207
    34  H    0.158609
 Sum of Mulliken charges =  -0.00000

 Dipole moment (field-independent basis, Debye):
    X=              2.4784    Y=              4.0395    Z=             -2.2010  Tot=              5.2253
 Quadrupole moment (field-independent basis, Debye-Ang):
   XX=           -103.6223   YY=            -96.7075   ZZ=            -95.5687
   XY=            -14.6854   XZ=              7.3645   YZ=              0.0143

 Normal termination of Gaussian 16 at Thu May  6 03:03:48 2021.
