 Gaussian 16, Revision A.03,
 Gaussian 16:  EM64L-G16RevA.03 25-Dec-2016

 -------------
 #p 6-31g* mp2
 -------------

 ------------------------------------------------------
 Input file generated by CHIRIPA (05-May-2021 14:57:27)
 ------------------------------------------------------
 Symbolic Z-matrix:
 Charge =  0 Multiplicity = 1

                         Standard orientation:
 ---------------------------------------------------------------------
 Center     Atomic      Atomic             Coordinates (Angstroms)
 Number     Number       Type             X           Y           Z
 ---------------------------------------------------------------------
      1          6           0        1.582725    2.466038    0.535052
      2          6           0        2.173975    1.761096    1.588618
      3          6           0        2.926853    0.609937    1.338508
      4          6           0        3.068640    0.190133    0.016785
      5          6           0        2.491904    0.870857   -1.054327
      6          6           0        1.743293    2.019456   -0.780738
      7          1           0        0.999529    3.359292    0.738463
      8          1           0        2.050958    2.105593    2.611474
      9          1           0        3.395468    0.045112    2.135245
     10          1           0        2.632261    0.502948   -2.063465
     11          1           0        1.285262    2.564923   -1.600932
     12          7           0        3.863419   -1.027192   -0.260423
     13          8           0        3.973366   -1.376358   -1.433723
     14          8           0        4.361371   -1.609116    0.700850
     15          6           0       -5.356611    0.318047    0.047730
     16          6           0       -4.565136    0.696766   -1.041610
     17          6           0       -3.223633    0.309726   -1.113162
     18          6           0       -2.703795   -0.459288   -0.073127
     19          6           0       -3.466742   -0.852417    1.025351
     20          6           0       -4.805859   -0.453975    1.075920
     21          1           0       -6.397795    0.623138    0.095164
     22          1           0       -4.990185    1.296312   -1.841561
     23          1           0       -2.588294    0.588974   -1.944897
     24          1           0       -3.014877   -1.450241    1.807555
     25          1           0       -5.418160   -0.749554    1.923131
     26          7           0       -1.284869   -0.875066   -0.137769
     27          8           0       -0.850661   -1.552428    0.791359
     28          8           0       -0.633791   -0.515717   -1.116341
 ---------------------------------------------------------------------

 SCF Done:  E(RHF) =  -868.337356246     A.U. after   16 cycles
 E2 =    -0.2601063496D+01 EUMP2 =    -0.87093841974198D+03

 The electronic state is 1-A.
 Alpha  occ. eigenvalues --  -20.61095 -20.61079 -20.59498 -20.59487 -15.86124
 Alpha  occ. eigenvalues --  -15.84549 -11.31541 -11.29817 -11.28132 -11.28087
 Alpha  occ. eigenvalues --  -11.27844 -11.27140 -11.27110 -11.26481 -11.26418
 Alpha  occ. eigenvalues --  -11.26320 -11.25552 -11.25488  -1.60146  -1.58559
 Alpha  occ. eigenvalues --   -1.39705  -1.38121  -1.19712  -1.18031  -1.09095
 Alpha  occ. eigenvalues --   -1.07484  -1.05121  -1.03456  -0.95926  -0.94323
 Alpha  occ. eigenvalues --   -0.86515  -0.84892  -0.82763  -0.81174  -0.77806
 Alpha  occ. eigenvalues --   -0.76195  -0.72364  -0.71468  -0.70815  -0.70795
 Alpha  occ. eigenvalues --   -0.69847  -0.69262  -0.65364  -0.65120  -0.63741
 Alpha  occ. eigenvalues --   -0.63547  -0.62469  -0.60844  -0.55612  -0.54085
 Alpha  occ. eigenvalues --   -0.53454  -0.53212  -0.51789  -0.51621  -0.49107
 Alpha  occ. eigenvalues --   -0.49060  -0.47544  -0.47534  -0.45103  -0.43550
 Alpha  occ. eigenvalues --   -0.37692  -0.36731  -0.36057  -0.34919
 Alpha virt. eigenvalues --    0.04705   0.06410   0.10924   0.12639   0.16204
 Alpha virt. eigenvalues --    0.17860   0.21069   0.22434   0.26958   0.27876
 Alpha virt. eigenvalues --    0.28417   0.29340   0.30632   0.31829   0.32282

 Mulliken charges:
               1
     1  C   -0.175359
     2  C   -0.219278
     3  C   -0.166486
     4  C    0.162334
     5  C   -0.149606
     6  C   -0.212324
     7  H    0.217333
     8  H    0.216983
     9  H    0.272361
    10  H    0.273769
    11  H    0.215660
    12  N    0.489473
    13  O   -0.461944
    14  O   -0.464221
    15  C   -0.171026
    16  C   -0.218591
    17  C   -0.171973
    18  C    0.158851
    19  C   -0.171216
    20  C   -0.218535
    21  H    0.226400
    22  H    0.223409
    23  H    0.272846
    24  H    0.276786
    25  H    0.224522
    26  N    0.489393
    27  O   -0.457573
    28  O   -0.461987
 Sum of Mulliken charges =  -0.00000

 Dipole moment (field-independent basis, Debye):
    X=             -7.9560    Y=              5.5102    Z=              1.1052  Tot=              9.7407
 Quadrupole moment (field-independent basis, Debye-Ang):
   XX=            -96.4296   YY=           -105.3888   ZZ=            -96.5701
   XY=             10.8247   XZ=              2.7659   YZ=             -3.2227

 Normal termination of Gaussian 16 at Fri May  7 08:12:54 2021.
