 Gaussian 16, Revision A.03,
 Gaussian 16:  EM64L-G16RevA.03 25-Dec-2016

 -------------
 #p 6-31g* mp2
 -------------

 ------------------------------------------------------
 Input file generated by CHIRIPA (05-May-2021 14:53:12)
 ------------------------------------------------------
 Symbolic Z-matrix:
 Charge =  0 Multiplicity = 1

                         Standard orientation:
 ---------------------------------------------------------------------
 Center     Atomic      Atomic             Coordinates (Angstroms)
 Number     Number       Type             X           Y           Z
 ---------------------------------------------------------------------
      1          6           0       -3.307183   -0.263481    0.234046
      2          6           0       -2.214187   -0.159423   -0.830151
      3          6           0       -0.838212   -0.572303   -0.306684
      4          1           0       -3.035649    0.366376    1.092239
      5          1           0       -3.350137   -1.296621    0.605761
      6          1           0       -2.174242    0.872898   -1.200738
      7          1           0       -2.488447   -0.789452   -1.685991
      8          1           0       -0.855072   -1.608849    0.045295
      9          1           0       -0.539082    0.062945    0.533305
     10          1           0       -0.071872   -0.490314   -1.083769
     11          6           0       -4.688441    0.145932   -0.274121
     12          6           0       -5.781437    0.041874    0.790076
     13          6           0       -7.157412    0.454755    0.266609
     14          1           0       -4.645487    1.179072   -0.645836
     15          1           0       -4.959974   -0.483925   -1.132314
     16          1           0       -5.507177    0.671903    1.645916
     17          1           0       -5.821382   -0.990446    1.160663
     18          1           0       -7.456542   -0.180494   -0.573380
     19          1           0       -7.140552    1.491301   -0.085370
     20          1           0       -7.923752    0.372765    1.043694
     21          6           0        3.307660    2.562234    0.006559
     22          6           0        2.707258    1.900454   -1.069585
     23          6           0        2.599659    0.506561   -1.075234
     24          6           0        3.105467   -0.197350    0.016533
     25          6           0        3.709046    0.433152    1.103478
     26          6           0        3.805760    1.827766    1.087749
     27          1           0        3.387018    3.645324    0.002643
     28          1           0        2.319545    2.468276   -1.910599
     29          1           0        2.139598   -0.031219   -1.895329
     30          1           0        4.086241   -0.160030    1.927661
     31          1           0        4.272538    2.339045    1.924861
     32          7           0        2.997317   -1.673385    0.021869
     33          8           0        3.450783   -2.270611    0.995690
     34          8           0        2.461134   -2.205125   -0.947871
 ---------------------------------------------------------------------

 SCF Done:  E(RHF) =  -669.534617874     A.U. after   15 cycles
 E2 =    -0.2092578061D+01 EUMP2 =    -0.67162719593519D+03

 The electronic state is 1-A.
 Alpha  occ. eigenvalues --  -20.60779 -20.60753 -15.85806 -11.31158 -11.27752
 Alpha  occ. eigenvalues --  -11.27747 -11.27497 -11.26755 -11.26745 -11.21537
 Alpha  occ. eigenvalues --  -11.21473 -11.21317 -11.21240 -11.21031 -11.20759
 Alpha  occ. eigenvalues --   -1.59830  -1.39387  -1.19350  -1.08741  -1.08329
 Alpha  occ. eigenvalues --   -1.04763  -1.03413  -0.95868  -0.95571  -0.86892
 Alpha  occ. eigenvalues --   -0.86147  -0.82415  -0.79491  -0.78148  -0.77462
 Alpha  occ. eigenvalues --   -0.72034  -0.71141  -0.70484  -0.65006  -0.64958
 Alpha  occ. eigenvalues --   -0.64779  -0.62155  -0.60806  -0.59232  -0.57479
 Alpha  occ. eigenvalues --   -0.55269  -0.55139  -0.53223  -0.52909  -0.52375
 Alpha  occ. eigenvalues --   -0.52242  -0.49773  -0.48795  -0.48784  -0.47793
 Alpha  occ. eigenvalues --   -0.46513  -0.45686  -0.45614  -0.44812  -0.43626
 Alpha  occ. eigenvalues --   -0.37310  -0.36312
 Alpha virt. eigenvalues --    0.05056   0.11252   0.16557   0.21175   0.22985
 Alpha virt. eigenvalues --    0.24350   0.26727   0.26752   0.27612   0.27816
 Alpha virt. eigenvalues --    0.28729   0.30428   0.31515   0.31622   0.31962

 Mulliken charges:
               1
     1  C   -0.298580
     2  C   -0.300066
     3  C   -0.478191
     4  H    0.148258
     5  H    0.152171
     6  H    0.146172
     7  H    0.153467
     8  H    0.165085
     9  H    0.151456
    10  H    0.158451
    11  C   -0.298026
    12  C   -0.299587
    13  C   -0.475609
    14  H    0.147551
    15  H    0.150195
    16  H    0.151202
    17  H    0.153043
    18  H    0.155497
    19  H    0.154195
    20  H    0.160174
    21  C   -0.170725
    22  C   -0.219476
    23  C   -0.168926
    24  C    0.162008
    25  C   -0.171253
    26  C   -0.218831
    27  H    0.225451
    28  H    0.223272
    29  H    0.274850
    30  H    0.275557
    31  H    0.223244
    32  N    0.488860
    33  O   -0.460410
    34  O   -0.460480
 Sum of Mulliken charges =  -0.00000

 Dipole moment (field-independent basis, Debye):
    X=              0.4295    Y=              5.1129    Z=              0.0001  Tot=              5.1309
 Quadrupole moment (field-independent basis, Debye-Ang):
   XX=            -93.3462   YY=            -96.4961   ZZ=            -91.0046
   XY=             16.8303   XZ=              2.1145   YZ=              0.2913

 Normal termination of Gaussian 16 at Thu May  6 13:38:25 2021.
