 Gaussian 16, Revision A.03,
 Gaussian 16:  EM64L-G16RevA.03 25-Dec-2016

 -------------
 #p 6-31g* mp2
 -------------

 ------------------------------------------------------
 Input file generated by CHIRIPA (05-May-2021 14:53:11)
 ------------------------------------------------------
 Symbolic Z-matrix:
 Charge =  0 Multiplicity = 1

                         Standard orientation:
 ---------------------------------------------------------------------
 Center     Atomic      Atomic             Coordinates (Angstroms)
 Number     Number       Type             X           Y           Z
 ---------------------------------------------------------------------
      1          6           0       -3.236067   -0.107488   -0.492591
      2          6           0       -4.450190   -0.799304    0.128118
      3          6           0       -4.645645   -2.225414   -0.387443
      4          1           0       -3.349931   -0.091540   -1.585168
      5          1           0       -2.336257   -0.701505   -0.280742
      6          1           0       -5.347247   -0.203439   -0.083656
      7          1           0       -4.333513   -0.813436    1.219357
      8          1           0       -3.767967   -2.840011   -0.162607
      9          1           0       -4.787461   -2.226548   -1.473025
     10          1           0       -5.519045   -2.701253    0.069295
     11          6           0       -3.027477    1.318940    0.012901
     12          6           0       -1.813354    2.010756   -0.607808
     13          6           0       -1.617899    3.436866   -0.092247
     14          1           0       -3.927287    1.912957   -0.198948
     15          1           0       -2.913613    1.302993    1.105478
     16          1           0       -1.930031    2.024888   -1.699047
     17          1           0       -0.916297    1.414891   -0.396033
     18          1           0       -1.476083    3.438000    0.993335
     19          1           0       -2.495577    4.051463   -0.317083
     20          1           0       -0.744499    3.912705   -0.548984
     21          6           0        4.644789    0.250439   -0.817921
     22          6           0        3.829373   -0.659414   -1.498941
     23          6           0        2.609407   -1.067411   -0.951430
     24          6           0        2.234193   -0.543185    0.284567
     25          6           0        3.024638    0.364804    0.987450
     26          6           0        4.240532    0.758748    0.420916
     27          1           0        5.590906    0.561923   -1.250629
     28          1           0        4.140777   -1.055818   -2.461197
     29          1           0        1.958752   -1.770484   -1.457152
     30          1           0        2.687359    0.742625    1.945005
     31          1           0        4.871760    1.465488    0.952058
     32          7           0        0.944826   -0.967674    0.874262
     33          8           0        0.636937   -0.491196    1.964587
     34          8           0        0.266522   -1.768829    0.234973
 ---------------------------------------------------------------------

 SCF Done:  E(RHF) =  -669.536622495     A.U. after   15 cycles
 E2 =    -0.2092135474D+01 EUMP2 =    -0.67162875796870D+03

 The electronic state is 1-A.
 Alpha  occ. eigenvalues --  -20.61086 -20.61072 -15.86093 -11.31355 -11.27908
 Alpha  occ. eigenvalues --  -11.27903 -11.27635 -11.26898 -11.26888 -11.20878
 Alpha  occ. eigenvalues --  -11.20508 -11.20433 -11.20334 -11.19972 -11.19965
 Alpha  occ. eigenvalues --   -1.60135  -1.39690  -1.19514  -1.08933  -1.07352
 Alpha  occ. eigenvalues --   -1.04899  -1.02578  -0.95784  -0.95014  -0.86303
 Alpha  occ. eigenvalues --   -0.86044  -0.82618  -0.78670  -0.77680  -0.77129
 Alpha  occ. eigenvalues --   -0.72312  -0.71451  -0.70622  -0.65170  -0.64903
 Alpha  occ. eigenvalues --   -0.63951  -0.62246  -0.59970  -0.58421  -0.56634
 Alpha  occ. eigenvalues --   -0.55409  -0.54284  -0.53232  -0.52990  -0.51788
 Alpha  occ. eigenvalues --   -0.51453  -0.49142  -0.49073  -0.48907  -0.46993
 Alpha  occ. eigenvalues --   -0.45703  -0.45232  -0.44686  -0.44329  -0.42782
 Alpha  occ. eigenvalues --   -0.37488  -0.36494
 Alpha virt. eigenvalues --    0.04805   0.11162   0.16289   0.21287   0.23825
 Alpha virt. eigenvalues --    0.25211   0.27224   0.27452   0.28153   0.28481
 Alpha virt. eigenvalues --    0.28911   0.30949   0.32160   0.32458   0.32557

 Mulliken charges:
               1
     1  C   -0.311331
     2  C   -0.298027
     3  C   -0.476840
     4  H    0.141470
     5  H    0.177453
     6  H    0.145661
     7  H    0.154408
     8  H    0.163397
     9  H    0.150400
    10  H    0.155614
    11  C   -0.297460
    12  C   -0.296332
    13  C   -0.475640
    14  H    0.144015
    15  H    0.155266
    16  H    0.148011
    17  H    0.148185
    18  H    0.157215
    19  H    0.153701
    20  H    0.154369
    21  C   -0.170247
    22  C   -0.218620
    23  C   -0.170305
    24  C    0.157101
    25  C   -0.170470
    26  C   -0.218628
    27  H    0.226288
    28  H    0.224134
    29  H    0.276268
    30  H    0.276058
    31  H    0.224112
    32  N    0.488961
    33  O   -0.458935
    34  O   -0.459252
 Sum of Mulliken charges =  -0.00000

 Dipole moment (field-independent basis, Debye):
    X=              4.8389    Y=              1.3302    Z=             -1.9462  Tot=              5.3825
 Quadrupole moment (field-independent basis, Debye-Ang):
   XX=            -75.5416   YY=            -96.6416   ZZ=            -92.6418
   XY=              1.2245   XZ=             -2.7913   YZ=              3.8556

 Normal termination of Gaussian 16 at Thu May  6 05:40:28 2021.
