 Gaussian 16, Revision A.03,
 Gaussian 16:  EM64L-G16RevA.03 25-Dec-2016

 -------------
 #p 6-31g* mp2
 -------------

 ------------------------------------------------------
 Input file generated by CHIRIPA (05-May-2021 14:53:17)
 ------------------------------------------------------
 Symbolic Z-matrix:
 Charge =  0 Multiplicity = 1

                         Standard orientation:
 ---------------------------------------------------------------------
 Center     Atomic      Atomic             Coordinates (Angstroms)
 Number     Number       Type             X           Y           Z
 ---------------------------------------------------------------------
      1          6           0        3.547478   -0.587953   -0.070998
      2          6           0        2.566623   -0.893367    1.061535
      3          6           0        1.234270   -1.447725    0.556248
      4          1           0        3.087491    0.131942   -0.761728
      5          1           0        3.726468   -1.505165   -0.648993
      6          1           0        2.390607    0.023830    1.638063
      7          1           0        3.029073   -1.612473    1.749753
      8          1           0        1.390263   -2.376828   -0.001457
      9          1           0        0.748169   -0.731229   -0.113781
     10          1           0        0.548176   -1.659042    1.382372
     11          6           0        4.884041   -0.033044    0.418291
     12          6           0        5.864896    0.272371   -0.714242
     13          6           0        7.197249    0.826729   -0.208955
     14          1           0        4.705051    0.884169    0.996286
     15          1           0        5.344028   -0.752939    1.109020
     16          1           0        5.402446    0.991476   -1.402460
     17          1           0        6.040912   -0.644826   -1.290770
     18          1           0        7.683350    0.110233    0.461074
     19          1           0        7.041256    1.755832    0.348750
     20          1           0        7.883342    1.038046   -1.035079
     21          6           0       -2.702337    2.689209    0.038593
     22          6           0       -3.942668    2.234332    0.498142
     23          6           0       -4.280923    0.880908    0.406623
     24          6           0       -3.350720    0.006045   -0.152508
     25          6           0       -2.106986    0.428643   -0.619230
     26          6           0       -1.790062    1.786504   -0.517646
     27          1           0       -2.447857    3.742305    0.113597
     28          1           0       -4.653120    2.933117    0.930580
     29          1           0       -5.234123    0.501750    0.754570
     30          1           0       -1.419513   -0.291841   -1.045496
     31          1           0       -0.826069    2.136937   -0.875356
     32          7           0       -3.697524   -1.429112   -0.254723
     33          8           0       -2.860503   -2.179690   -0.751378
     34          8           0       -4.799803   -1.776238    0.163753
 ---------------------------------------------------------------------

 SCF Done:  E(RHF) =  -669.535167389     A.U. after   15 cycles
 E2 =    -0.2091295823D+01 EUMP2 =    -0.67162646321118D+03

 The electronic state is 1-A.
 Alpha  occ. eigenvalues --  -20.60727 -20.60719 -15.85778 -11.31149 -11.27737
 Alpha  occ. eigenvalues --  -11.27702 -11.27489 -11.26755 -11.26745 -11.21821
 Alpha  occ. eigenvalues --  -11.21810 -11.21657 -11.21591 -11.21264 -11.21247
 Alpha  occ. eigenvalues --   -1.59800  -1.39352  -1.19334  -1.08728  -1.08664
 Alpha  occ. eigenvalues --   -1.04744  -1.03740  -0.96189  -0.95559  -0.87205
 Alpha  occ. eigenvalues --   -0.86136  -0.82394  -0.79804  -0.78481  -0.77433
 Alpha  occ. eigenvalues --   -0.71997  -0.71123  -0.70454  -0.65307  -0.64988
 Alpha  occ. eigenvalues --   -0.64753  -0.62142  -0.61116  -0.59542  -0.57793
 Alpha  occ. eigenvalues --   -0.55533  -0.55213  -0.53089  -0.52931  -0.52803
 Alpha  occ. eigenvalues --   -0.52538  -0.50124  -0.48758  -0.48748  -0.48113
 Alpha  occ. eigenvalues --   -0.46842  -0.46022  -0.45948  -0.44756  -0.43987
 Alpha  occ. eigenvalues --   -0.37320  -0.36329
 Alpha virt. eigenvalues --    0.05078   0.11293   0.16538   0.20634   0.22705
 Alpha virt. eigenvalues --    0.24024   0.25633   0.26670   0.27392   0.27909
 Alpha virt. eigenvalues --    0.28973   0.30629   0.31467   0.31645   0.32100

 Mulliken charges:
               1
     1  C   -0.297475
     2  C   -0.300956
     3  C   -0.473001
     4  H    0.144045
     5  H    0.152194
     6  H    0.149547
     7  H    0.154742
     8  H    0.162347
     9  H    0.140949
    10  H    0.166269
    11  C   -0.298223
    12  C   -0.299588
    13  C   -0.475764
    14  H    0.148162
    15  H    0.151297
    16  H    0.150269
    17  H    0.153260
    18  H    0.156135
    19  H    0.154524
    20  H    0.160731
    21  C   -0.170721
    22  C   -0.218743
    23  C   -0.170875
    24  C    0.157639
    25  C   -0.171612
    26  C   -0.219667
    27  H    0.225383
    28  H    0.223307
    29  H    0.275516
    30  H    0.280375
    31  H    0.222652
    32  N    0.487876
    33  O   -0.459748
    34  O   -0.460847
 Sum of Mulliken charges =  -0.00000

 Dipole moment (field-independent basis, Debye):
    X=              1.2722    Y=              4.9464    Z=              0.4087  Tot=              5.1237
 Quadrupole moment (field-independent basis, Debye-Ang):
   XX=            -99.9118   YY=            -94.1585   ZZ=            -94.7814
   XY=            -19.0496   XZ=             -3.7223   YZ=             -0.5147

 Normal termination of Gaussian 16 at Wed May  5 18:46:42 2021.
