 Gaussian 16, Revision A.03,
 Gaussian 16:  EM64L-G16RevA.03 25-Dec-2016

 -------------
 #p 6-31g* mp2
 -------------

 ------------------------------------------------------
 Input file generated by CHIRIPA (05-May-2021 14:57:23)
 ------------------------------------------------------
 Symbolic Z-matrix:
 Charge =  0 Multiplicity = 1

                         Standard orientation:
 ---------------------------------------------------------------------
 Center     Atomic      Atomic             Coordinates (Angstroms)
 Number     Number       Type             X           Y           Z
 ---------------------------------------------------------------------
      1          6           0        5.281610    0.199334    0.739637
      2          6           0        4.825622   -0.994654    0.171317
      3          6           0        3.520763   -1.093930   -0.320655
      4          6           0        2.695071    0.025397   -0.227757
      5          6           0        3.120116    1.228832    0.332931
      6          6           0        4.428906    1.305317    0.818491
      7          1           0        6.296783    0.267602    1.119322
      8          1           0        5.485635   -1.855185    0.108752
      9          1           0        3.141927   -2.006068   -0.765520
     10          1           0        2.438911    2.069686    0.381329
     11          1           0        4.780325    2.233864    1.259343
     12          7           0        1.311595   -0.067637   -0.745192
     13          8           0        0.603807    0.932815   -0.651553
     14          8           0        0.961212   -1.139249   -1.234598
     15          6           0       -3.095764    2.445224   -0.252661
     16          6           0       -3.290983    1.925263    1.031103
     17          6           0       -3.197713    0.549515    1.261678
     18          6           0       -2.906391   -0.281063    0.180678
     19          6           0       -2.706641    0.206672   -1.109867
     20          6           0       -2.804729    1.585784   -1.317172
     21          1           0       -3.170091    3.515245   -0.422740
     22          1           0       -3.517130    2.590338    1.859703
     23          1           0       -3.344214    0.120229    2.245380
     24          1           0       -2.482529   -0.481357   -1.915972
     25          1           0       -2.652635    1.986789   -2.315223
     26          7           0       -2.805099   -1.739287    0.412460
     27          8           0       -2.547328   -2.449879   -0.556689
     28          8           0       -2.985397   -2.144040    1.558892
 ---------------------------------------------------------------------

 SCF Done:  E(RHF) =  -868.337730118     A.U. after   16 cycles
 E2 =    -0.2600985248D+01 EUMP2 =    -0.87093871536627D+03

 The electronic state is 1-A.
 Alpha  occ. eigenvalues --  -20.60953 -20.60889 -20.59389 -20.59315 -15.85941
 Alpha  occ. eigenvalues --  -15.84399 -11.31250 -11.29571 -11.27846 -11.27778
 Alpha  occ. eigenvalues --  -11.27554 -11.26839 -11.26792 -11.26289 -11.26090
 Alpha  occ. eigenvalues --  -11.26020 -11.25308 -11.25125  -1.59998  -1.58428
 Alpha  occ. eigenvalues --   -1.39546  -1.37985  -1.19421  -1.17771  -1.08832
 Alpha  occ. eigenvalues --   -1.07237  -1.04814  -1.03178  -0.95674  -0.94094
 Alpha  occ. eigenvalues --   -0.86216  -0.84619  -0.82503  -0.80947  -0.77561
 Alpha  occ. eigenvalues --   -0.75985  -0.72160  -0.71315  -0.70646  -0.70531
 Alpha  occ. eigenvalues --   -0.69729  -0.68989  -0.65075  -0.64821  -0.63478
 Alpha  occ. eigenvalues --   -0.63264  -0.62162  -0.60568  -0.55329  -0.53795
 Alpha  occ. eigenvalues --   -0.53149  -0.52909  -0.51577  -0.51340  -0.48929
 Alpha  occ. eigenvalues --   -0.48837  -0.47406  -0.47374  -0.44956  -0.43419
 Alpha  occ. eigenvalues --   -0.37401  -0.36414  -0.35780  -0.34645
 Alpha virt. eigenvalues --    0.04966   0.06577   0.11241   0.12912   0.16469
 Alpha virt. eigenvalues --    0.18070   0.21380   0.22744   0.27289   0.28276
 Alpha virt. eigenvalues --    0.28645   0.29646   0.30933   0.32193   0.32512

 Mulliken charges:
               1
     1  C   -0.170484
     2  C   -0.218557
     3  C   -0.169972
     4  C    0.158334
     5  C   -0.171145
     6  C   -0.218566
     7  H    0.225887
     8  H    0.224739
     9  H    0.278889
    10  H    0.273198
    11  H    0.222642
    12  N    0.487621
    13  O   -0.465597
    14  O   -0.454669
    15  C   -0.170222
    16  C   -0.219678
    17  C   -0.172942
    18  C    0.156359
    19  C   -0.147653
    20  C   -0.208082
    21  H    0.218052
    22  H    0.215141
    23  H    0.268980
    24  H    0.277693
    25  H    0.218288
    26  N    0.487964
    27  O   -0.456030
    28  O   -0.470192
 Sum of Mulliken charges =  -0.00000

 Dipole moment (field-independent basis, Debye):
    X=              4.8761    Y=              5.2843    Z=              0.6961  Tot=              7.2239
 Quadrupole moment (field-independent basis, Debye-Ang):
   XX=            -78.5369   YY=           -104.2925   ZZ=           -101.9481
   XY=            -14.9362   XZ=              5.7016   YZ=              3.5323

 Normal termination of Gaussian 16 at Thu May  6 22:46:22 2021.
