 Gaussian 16, Revision A.03,
 Gaussian 16:  EM64L-G16RevA.03 25-Dec-2016

 -------------
 #p 6-31g* mp2
 -------------

 ------------------------------------------------------
 Input file generated by CHIRIPA (05-May-2021 14:53:13)
 ------------------------------------------------------
 Symbolic Z-matrix:
 Charge =  0 Multiplicity = 1

                         Standard orientation:
 ---------------------------------------------------------------------
 Center     Atomic      Atomic             Coordinates (Angstroms)
 Number     Number       Type             X           Y           Z
 ---------------------------------------------------------------------
      1          6           0       -3.416659    0.273580   -0.619854
      2          6           0       -4.200463   -0.718139    0.240454
      3          6           0       -5.098500   -1.637947   -0.587361
      4          1           0       -4.122160    0.878147   -1.206124
      5          1           0       -2.805293   -0.282912   -1.343693
      6          1           0       -4.809116   -0.159977    0.963373
      7          1           0       -3.493022   -1.320286    0.824887
      8          1           0       -4.503011   -2.220082   -1.298074
      9          1           0       -5.826584   -1.053180   -1.158801
     10          1           0       -5.649526   -2.338735    0.047561
     11          6           0       -2.514350    1.199972    0.193387
     12          6           0       -1.730546    2.191691   -0.666921
     13          6           0       -0.832509    3.111499    0.160894
     14          1           0       -3.125717    1.756464    0.917226
     15          1           0       -1.808850    0.595405    0.779657
     16          1           0       -2.437988    2.793838   -1.251354
     17          1           0       -1.121893    1.633529   -1.389840
     18          1           0       -0.104426    2.526732    0.732334
     19          1           0       -1.427998    3.693634    0.871607
     20          1           0       -0.281483    3.812287   -0.474028
     21          6           0        4.437739    0.367168   -0.822713
     22          6           0        3.765581   -0.674249   -1.470922
     23          6           0        2.589570   -1.204354   -0.931907
     24          6           0        2.111756   -0.666750    0.262231
     25          6           0        2.758685    0.370810    0.931737
     26          6           0        3.933036    0.885461    0.374437
     27          1           0        5.350648    0.772963   -1.248536
     28          1           0        4.155224   -1.078724   -2.400773
     29          1           0        2.049126   -2.010609   -1.412834
     30          1           0        2.345872    0.753335    1.857307
     31          1           0        4.452939    1.694236    0.880034
     32          7           0        0.867645   -1.219767    0.842540
     33          8           0        0.467287   -0.728682    1.895719
     34          8           0        0.316425   -2.133836    0.233220
 ---------------------------------------------------------------------

 SCF Done:  E(RHF) =  -669.536796649     A.U. after   15 cycles
 E2 =    -0.2092434650D+01 EUMP2 =    -0.67162923129876D+03

 The electronic state is 1-A.
 Alpha  occ. eigenvalues --  -20.61097 -20.61089 -15.86097 -11.31370 -11.27919
 Alpha  occ. eigenvalues --  -11.27915 -11.27641 -11.26912 -11.26901 -11.20991
 Alpha  occ. eigenvalues --  -11.20655 -11.20463 -11.20372 -11.20270 -11.20133
 Alpha  occ. eigenvalues --   -1.60142  -1.39698  -1.19525  -1.08940  -1.07492
 Alpha  occ. eigenvalues --   -1.04911  -1.02706  -0.95791  -0.95163  -0.86317
 Alpha  occ. eigenvalues --   -0.86192  -0.82626  -0.78769  -0.77689  -0.77262
 Alpha  occ. eigenvalues --   -0.72316  -0.71460  -0.70632  -0.65181  -0.64913
 Alpha  occ. eigenvalues --   -0.64103  -0.62260  -0.60104  -0.58553  -0.56765
 Alpha  occ. eigenvalues --   -0.55417  -0.54465  -0.53231  -0.53001  -0.51917
 Alpha  occ. eigenvalues --   -0.51596  -0.49199  -0.49085  -0.49011  -0.47100
 Alpha  occ. eigenvalues --   -0.45853  -0.45240  -0.44821  -0.44435  -0.42917
 Alpha  occ. eigenvalues --   -0.37494  -0.36501
 Alpha virt. eigenvalues --    0.04780   0.11082   0.16283   0.21176   0.23563
 Alpha virt. eigenvalues --    0.24915   0.26829   0.27443   0.27957   0.28771
 Alpha virt. eigenvalues --    0.28854   0.30700   0.31565   0.32314   0.32682

 Mulliken charges:
               1
     1  C   -0.296329
     2  C   -0.302193
     3  C   -0.475332
     4  H    0.143489
     5  H    0.150212
     6  H    0.147870
     7  H    0.166961
     8  H    0.155784
     9  H    0.150487
    10  H    0.158442
    11  C   -0.310249
    12  C   -0.298865
    13  C   -0.475490
    14  H    0.146174
    15  H    0.172092
    16  H    0.149379
    17  H    0.147182
    18  H    0.153364
    19  H    0.155376
    20  H    0.154569
    21  C   -0.170316
    22  C   -0.218378
    23  C   -0.170917
    24  C    0.158957
    25  C   -0.170731
    26  C   -0.218310
    27  H    0.226393
    28  H    0.224139
    29  H    0.275822
    30  H    0.276436
    31  H    0.224488
    32  N    0.487674
    33  O   -0.459222
    34  O   -0.458961
 Sum of Mulliken charges =  -0.00000

 Dipole moment (field-independent basis, Debye):
    X=              4.6214    Y=              1.7420    Z=             -1.9196  Tot=              5.2988
 Quadrupole moment (field-independent basis, Debye-Ang):
   XX=            -77.2837   YY=            -96.3024   ZZ=            -93.5034
   XY=              0.8008   XZ=             -3.7953   YZ=              4.5585

 Normal termination of Gaussian 16 at Thu May  6 01:00:15 2021.
