 Gaussian 16, Revision A.03,
 Gaussian 16:  EM64L-G16RevA.03 25-Dec-2016

 -------------
 #p 6-31g* mp2
 -------------

 ------------------------------------------------------
 Input file generated by CHIRIPA (05-May-2021 14:53:17)
 ------------------------------------------------------
 Symbolic Z-matrix:
 Charge =  0 Multiplicity = 1

                         Standard orientation:
 ---------------------------------------------------------------------
 Center     Atomic      Atomic             Coordinates (Angstroms)
 Number     Number       Type             X           Y           Z
 ---------------------------------------------------------------------
      1          6           0        4.419387   -0.722630   -0.043504
      2          6           0        2.956130   -0.492305    0.335725
      3          6           0        2.093006   -1.740143    0.146752
      4          1           0        4.472791   -1.052081   -1.090192
      5          1           0        4.823333   -1.544426    0.563845
      6          1           0        2.555462    0.329731   -0.271183
      7          1           0        2.906217   -0.163179    1.381575
      8          1           0        2.465785   -2.563574    0.764488
      9          1           0        2.113036   -2.067863   -0.897661
     10          1           0        1.050808   -1.553119    0.423709
     11          6           0        5.294920    0.515714    0.140004
     12          6           0        6.758176    0.285389   -0.239226
     13          6           0        7.621300    1.533227   -0.050253
     14          1           0        4.890973    1.337510   -0.467346
     15          1           0        5.241515    0.845165    1.186691
     16          1           0        6.808089   -0.043737   -1.285076
     17          1           0        7.158844   -0.536647    0.367683
     18          1           0        7.601270    1.860948    0.994160
     19          1           0        7.248522    2.356659   -0.667988
     20          1           0        8.663498    1.346204   -0.327209
     21          6           0       -6.051634    1.204081    0.063549
     22          6           0       -4.885928    1.976617    0.034604
     23          6           0       -3.630021    1.364982   -0.021503
     24          6           0       -3.576454   -0.027765   -0.047483
     25          6           0       -4.719775   -0.824846   -0.019773
     26          6           0       -5.964990   -0.191725    0.036316
     27          1           0       -7.023100    1.687559    0.107127
     28          1           0       -4.950188    3.060809    0.055646
     29          1           0       -2.711600    1.938891   -0.044908
     30          1           0       -4.623794   -1.903604   -0.041872
     31          1           0       -6.868618   -0.794219    0.058691
     32          7           0       -2.252542   -0.686650   -0.106871
     33          8           0       -2.232302   -1.915366   -0.128811
     34          8           0       -1.260167    0.038110   -0.130355
 ---------------------------------------------------------------------

 SCF Done:  E(RHF) =  -669.536630059     A.U. after   15 cycles
 E2 =    -0.2091175037D+01 EUMP2 =    -0.67162780509540D+03

 The electronic state is 1-A.
 Alpha  occ. eigenvalues --  -20.61056 -20.61047 -15.86056 -11.31352 -11.27905
 Alpha  occ. eigenvalues --  -11.27902 -11.27638 -11.26904 -11.26895 -11.20918
 Alpha  occ. eigenvalues --  -11.20526 -11.20520 -11.20258 -11.20094 -11.19045
 Alpha  occ. eigenvalues --   -1.60094  -1.39651  -1.19512  -1.08923  -1.07403
 Alpha  occ. eigenvalues --   -1.04902  -1.02379  -0.95770  -0.94808  -0.86304
 Alpha  occ. eigenvalues --   -0.85830  -0.82602  -0.78508  -0.77662  -0.77152
 Alpha  occ. eigenvalues --   -0.72264  -0.71401  -0.70620  -0.65167  -0.64905
 Alpha  occ. eigenvalues --   -0.64053  -0.62249  -0.59797  -0.58264  -0.56386
 Alpha  occ. eigenvalues --   -0.55404  -0.54134  -0.53237  -0.52993  -0.51488
 Alpha  occ. eigenvalues --   -0.51261  -0.49025  -0.48968  -0.48787  -0.46761
 Alpha  occ. eigenvalues --   -0.45588  -0.45069  -0.44695  -0.44603  -0.42581
 Alpha  occ. eigenvalues --   -0.37490  -0.36501
 Alpha virt. eigenvalues --    0.04864   0.11155   0.16372   0.21294   0.23789
 Alpha virt. eigenvalues --    0.25542   0.27216   0.27598   0.28170   0.28459
 Alpha virt. eigenvalues --    0.29259   0.30859   0.32406   0.32464   0.32659

 Mulliken charges:
               1
     1  C   -0.297102
     2  C   -0.297784
     3  C   -0.483086
     4  H    0.147606
     5  H    0.146565
     6  H    0.153835
     7  H    0.146638
     8  H    0.144198
     9  H    0.150043
    10  H    0.189394
    11  C   -0.297081
    12  C   -0.298744
    13  C   -0.475050
    14  H    0.147979
    15  H    0.147642
    16  H    0.150980
    17  H    0.150834
    18  H    0.154034
    19  H    0.154032
    20  H    0.158098
    21  C   -0.170451
    22  C   -0.218582
    23  C   -0.170707
    24  C    0.158592
    25  C   -0.170697
    26  C   -0.218615
    27  H    0.226201
    28  H    0.224043
    29  H    0.276013
    30  H    0.276067
    31  H    0.224035
    32  N    0.488378
    33  O   -0.458391
    34  O   -0.458917
 Sum of Mulliken charges =  -0.00000

 Dipole moment (field-independent basis, Debye):
    X=             -5.1668    Y=              2.3413    Z=              0.1913  Tot=              5.6757
 Quadrupole moment (field-independent basis, Debye-Ang):
   XX=            -62.9016   YY=            -91.7572   ZZ=            -94.8906
   XY=             -6.6135   XZ=             -0.4815   YZ=             -0.4474

 Normal termination of Gaussian 16 at Wed May  5 22:01:52 2021.
