 Gaussian 16, Revision A.03,
 Gaussian 16:  EM64L-G16RevA.03 25-Dec-2016

 -------------
 #p 6-31g* mp2
 -------------

 ------------------------------------------------------
 Input file generated by CHIRIPA (05-May-2021 14:53:16)
 ------------------------------------------------------
 Symbolic Z-matrix:
 Charge =  0 Multiplicity = 1

                         Standard orientation:
 ---------------------------------------------------------------------
 Center     Atomic      Atomic             Coordinates (Angstroms)
 Number     Number       Type             X           Y           Z
 ---------------------------------------------------------------------
      1          6           0        4.052066    0.406362   -0.221650
      2          6           0        4.257968   -1.096221   -0.027139
      3          6           0        5.726555   -1.509595   -0.127981
      4          1           0        4.450838    0.700763   -1.202086
      5          1           0        4.639567    0.950345    0.530892
      6          1           0        3.669163   -1.637243   -0.778949
      7          1           0        3.858487   -1.387113    0.952868
      8          1           0        6.324385   -0.995972    0.631882
      9          1           0        6.133985   -1.247523   -1.109776
     10          1           0        5.850840   -2.587656    0.014138
     11          6           0        2.589075    0.835056   -0.123632
     12          6           0        2.383173    2.337638   -0.318144
     13          6           0        0.914586    2.751012   -0.217301
     14          1           0        2.001574    0.291073   -0.876174
     15          1           0        2.190304    0.540655    0.856804
     16          1           0        2.782654    2.628530   -1.298150
     17          1           0        2.971978    2.878661    0.433667
     18          1           0        0.507156    2.488941    0.764493
     19          1           0        0.316756    2.237389   -0.977164
     20          1           0        0.790301    3.829073   -0.359421
     21          6           0       -0.341756   -1.497241    0.652233
     22          6           0       -0.689093   -0.252207    1.186807
     23          6           0       -1.934386    0.318254    0.906866
     24          6           0       -2.811953   -0.387062    0.084860
     25          6           0       -2.495041   -1.629212   -0.462790
     26          6           0       -1.244246   -2.180565   -0.169410
     27          1           0        0.627755   -1.932967    0.874917
     28          1           0        0.009796    0.280737    1.825218
     29          1           0       -2.229003    1.280624    1.307443
     30          1           0       -3.212786   -2.136597   -1.095894
     31          1           0       -0.977196   -3.147631   -0.585958
     32          7           0       -4.133201    0.206745   -0.218615
     33          8           0       -4.888561   -0.434800   -0.945586
     34          8           0       -4.388418    1.302473    0.276241
 ---------------------------------------------------------------------

 SCF Done:  E(RHF) =  -669.533438812     A.U. after   15 cycles
 E2 =    -0.2094379452D+01 EUMP2 =    -0.67162781826448D+03

 The electronic state is 1-A.
 Alpha  occ. eigenvalues --  -20.60704 -20.60698 -15.85757 -11.31108 -11.27669
 Alpha  occ. eigenvalues --  -11.27648 -11.27374 -11.26691 -11.26635 -11.22554
 Alpha  occ. eigenvalues --  -11.22307 -11.22249 -11.22169 -11.21818 -11.21663
 Alpha  occ. eigenvalues --   -1.59780  -1.39334  -1.19280  -1.09276  -1.08666
 Alpha  occ. eigenvalues --   -1.04705  -1.04285  -0.96736  -0.95507  -0.87752
 Alpha  occ. eigenvalues --   -0.86093  -0.82354  -0.80383  -0.79142  -0.77384
 Alpha  occ. eigenvalues --   -0.71976  -0.71104  -0.70367  -0.65953  -0.64933
 Alpha  occ. eigenvalues --   -0.64684  -0.62146  -0.61601  -0.60091  -0.58363
 Alpha  occ. eigenvalues --   -0.56024  -0.55163  -0.53418  -0.53210  -0.53003
 Alpha  occ. eigenvalues --   -0.52793  -0.50686  -0.48761  -0.48731  -0.48642
 Alpha  occ. eigenvalues --   -0.47407  -0.46610  -0.46526  -0.44742  -0.44561
 Alpha  occ. eigenvalues --   -0.37209  -0.36208
 Alpha virt. eigenvalues --    0.05111   0.11293   0.16493   0.19518   0.22611
 Alpha virt. eigenvalues --    0.23063   0.25138   0.25517   0.26470   0.28368
 Alpha virt. eigenvalues --    0.29599   0.30271   0.31161   0.31418   0.31615

 Mulliken charges:
               1
     1  C   -0.297967
     2  C   -0.301210
     3  C   -0.475773
     4  H    0.153418
     5  H    0.151397
     6  H    0.150392
     7  H    0.145849
     8  H    0.157367
     9  H    0.158108
    10  H    0.161013
    11  C   -0.299499
    12  C   -0.301160
    13  C   -0.474138
    14  H    0.154476
    15  H    0.137345
    16  H    0.155717
    17  H    0.152679
    18  H    0.143928
    19  H    0.161819
    20  H    0.164625
    21  C   -0.171640
    22  C   -0.213585
    23  C   -0.170382
    24  C    0.157252
    25  C   -0.171572
    26  C   -0.220245
    27  H    0.228021
    28  H    0.223427
    29  H    0.275401
    30  H    0.275097
    31  H    0.223000
    32  N    0.488101
    33  O   -0.460841
    34  O   -0.460420
 Sum of Mulliken charges =  -0.00000

 Dipole moment (field-independent basis, Debye):
    X=              4.8077    Y=             -2.0046    Z=              0.9405  Tot=              5.2930
 Quadrupole moment (field-independent basis, Debye-Ang):
   XX=           -121.9518   YY=            -90.2758   ZZ=            -92.5858
   XY=              5.6850   XZ=             -2.0354   YZ=              1.9491

 Normal termination of Gaussian 16 at Thu May  6 18:53:18 2021.
