 Gaussian 16, Revision A.03,
 Gaussian 16:  EM64L-G16RevA.03 25-Dec-2016

 -------------
 #p 6-31g* mp2
 -------------

 ------------------------------------------------------
 Input file generated by CHIRIPA (05-May-2021 14:55:23)
 ------------------------------------------------------
 Symbolic Z-matrix:
 Charge =  0 Multiplicity = 1

                         Standard orientation:
 ---------------------------------------------------------------------
 Center     Atomic      Atomic             Coordinates (Angstroms)
 Number     Number       Type             X           Y           Z
 ---------------------------------------------------------------------
      1          6           0        4.599162    1.355850    0.490589
      2          6           0        4.837409    0.037442    0.892534
      3          6           0        3.920383   -0.973663    0.590410
      4          6           0        2.770386   -0.629377   -0.118296
      5          6           0        2.504705    0.674877   -0.532572
      6          6           0        3.435622    1.669806   -0.219430
      7          1           0        5.316925    2.135017    0.729566
      8          1           0        5.740173   -0.209292    1.444064
      9          1           0        4.079847   -2.002543    0.889399
     10          1           0        1.595754    0.890151   -1.081100
     11          1           0        3.247977    2.692838   -0.532863
     12          7           0        1.792219   -1.691226   -0.443974
     13          8           0        0.786695   -1.362007   -1.069412
     14          8           0        2.049577   -2.832617   -0.067635
     15          6           0       -3.186212    0.883185   -0.331838
     16          6           0       -2.445831    2.013215    0.384299
     17          6           0       -1.315861    2.606409   -0.457770
     18          1           0       -2.469717    0.093137   -0.595282
     19          1           0       -3.594065    1.263640   -1.278573
     20          1           0       -2.040678    1.631099    1.330056
     21          1           0       -3.164205    2.800579    0.646239
     22          1           0       -1.707314    3.013914   -1.395483
     23          1           0       -0.577403    1.837790   -0.707781
     24          1           0       -0.800038    3.412487    0.073292
     25          6           0       -4.318683    0.280007    0.497267
     26          6           0       -5.059065   -0.850022   -0.218871
     27          6           0       -6.189035   -1.443218    0.623199
     28          1           0       -3.910831   -0.100448    1.444001
     29          1           0       -5.035178    1.070056    0.760711
     30          1           0       -4.340691   -1.637386   -0.480811
     31          1           0       -5.464217   -0.467908   -1.164627
     32          1           0       -6.927492   -0.674598    0.873210
     33          1           0       -5.797582   -1.850723    1.560912
     34          1           0       -6.704857   -2.249295    0.092138
 ---------------------------------------------------------------------

 SCF Done:  E(RHF) =  -669.535888421     A.U. after   15 cycles
 E2 =    -0.2091283385D+01 EUMP2 =    -0.67162717180539D+03

 The electronic state is 1-A.
 Alpha  occ. eigenvalues --  -20.60871 -20.60861 -15.85912 -11.31226 -11.27794
 Alpha  occ. eigenvalues --  -11.27772 -11.27529 -11.26804 -11.26785 -11.21399
 Alpha  occ. eigenvalues --  -11.21170 -11.21039 -11.20897 -11.20817 -11.20593
 Alpha  occ. eigenvalues --   -1.59936  -1.39491  -1.19397  -1.08802  -1.07995
 Alpha  occ. eigenvalues --   -1.04793  -1.03198  -0.95681  -0.95631  -0.86702
 Alpha  occ. eigenvalues --   -0.86193  -0.82476  -0.79266  -0.77777  -0.77525
 Alpha  occ. eigenvalues --   -0.72131  -0.71253  -0.70517  -0.65051  -0.64823
 Alpha  occ. eigenvalues --   -0.64598  -0.62174  -0.60578  -0.59045  -0.57261
 Alpha  occ. eigenvalues --   -0.55333  -0.54931  -0.53125  -0.52905  -0.52402
 Alpha  occ. eigenvalues --   -0.52075  -0.49603  -0.48891  -0.48882  -0.47578
 Alpha  occ. eigenvalues --   -0.46264  -0.45337  -0.45222  -0.44876  -0.43421
 Alpha  occ. eigenvalues --   -0.37379  -0.36387
 Alpha virt. eigenvalues --    0.04971   0.11223   0.16487   0.20739   0.23301
 Alpha virt. eigenvalues --    0.24317   0.25918   0.27275   0.27675   0.28270
 Alpha virt. eigenvalues --    0.29346   0.30227   0.31524   0.31881   0.32320

 Mulliken charges:
               1
     1  C   -0.170616
     2  C   -0.218664
     3  C   -0.170546
     4  C    0.157426
     5  C   -0.175437
     6  C   -0.220777
     7  H    0.225792
     8  H    0.223551
     9  H    0.275569
    10  H    0.284554
    11  H    0.224564
    12  N    0.488008
    13  O   -0.463029
    14  O   -0.459550
    15  C   -0.304021
    16  C   -0.297407
    17  C   -0.482498
    18  H    0.166134
    19  H    0.147340
    20  H    0.152311
    21  H    0.150506
    22  H    0.156375
    23  H    0.156325
    24  H    0.154804
    25  C   -0.298001
    26  C   -0.300797
    27  C   -0.475577
    28  H    0.149874
    29  H    0.146456
    30  H    0.158659
    31  H    0.150475
    32  H    0.152921
    33  H    0.155302
    34  H    0.159971
 Sum of Mulliken charges =  -0.00000

 Dipole moment (field-independent basis, Debye):
    X=              3.4997    Y=              3.6248    Z=              1.1282  Tot=              5.1633
 Quadrupole moment (field-independent basis, Debye-Ang):
   XX=            -74.9058   YY=            -97.6683   ZZ=            -94.8135
   XY=              5.4993   XZ=              5.2493   YZ=             -2.9738

 Normal termination of Gaussian 16 at Thu May  6 12:35:36 2021.
