 Gaussian 16, Revision A.03,
 Gaussian 16:  EM64L-G16RevA.03 25-Dec-2016

 -------------
 #p 6-31g* mp2
 -------------

 ------------------------------------------------------
 Input file generated by CHIRIPA (05-May-2021 14:53:18)
 ------------------------------------------------------
 Symbolic Z-matrix:
 Charge =  0 Multiplicity = 1

                         Standard orientation:
 ---------------------------------------------------------------------
 Center     Atomic      Atomic             Coordinates (Angstroms)
 Number     Number       Type             X           Y           Z
 ---------------------------------------------------------------------
      1          6           0        3.368099    1.293414    0.065349
      2          6           0        2.340596    1.973244   -0.840219
      3          6           0        2.223927    3.475137   -0.578493
      4          1           0        3.091985    1.463785    1.114958
      5          1           0        4.347590    1.769294   -0.081388
      6          1           0        1.363625    1.495308   -0.692833
      7          1           0        2.619082    1.801072   -1.887796
      8          1           0        3.185787    3.970976   -0.744537
      9          1           0        1.923197    3.663474    0.457215
     10          1           0        1.483966    3.941064   -1.236695
     11          6           0        3.496149   -0.208244   -0.184360
     12          6           0        4.523653   -0.888074    0.721208
     13          6           0        4.640321   -2.389967    0.459482
     14          1           0        2.516658   -0.684124   -0.037623
     15          1           0        3.772263   -0.378616   -1.233969
     16          1           0        4.245166   -0.715903    1.768785
     17          1           0        5.500623   -0.410139    0.573822
     18          1           0        4.941051   -2.578305   -0.576226
     19          1           0        3.678461   -2.885806    0.625526
     20          1           0        5.380282   -2.855894    1.117683
     21          6           0       -4.774336    0.899801    0.529344
     22          6           0       -4.759924   -0.030770   -0.514855
     23          6           0       -3.605841   -0.769792   -0.791418
     24          6           0       -2.479005   -0.551864   -0.000192
     25          6           0       -2.462090    0.368024    1.047094
     26          6           0       -3.627396    1.095882    1.305617
     27          1           0       -5.675215    1.469554    0.737178
     28          1           0       -5.649183   -0.185137   -1.119366
     29          1           0       -3.567087   -1.496616   -1.593691
     30          1           0       -1.560148    0.499913    1.632348
     31          1           0       -3.635696    1.817904    2.117197
     32          7           0       -1.251288   -1.328324   -0.283428
     33          8           0       -0.271617   -1.117762    0.428293
     34          8           0       -1.291921   -2.132772   -1.211785
 ---------------------------------------------------------------------

 SCF Done:  E(RHF) =  -669.536669742     A.U. after   15 cycles
 E2 =    -0.2091534572D+01 EUMP2 =    -0.67162820431418D+03

 The electronic state is 1-A.
 Alpha  occ. eigenvalues --  -20.61093 -20.61083 -15.86101 -11.31366 -11.27921
 Alpha  occ. eigenvalues --  -11.27916 -11.27647 -11.26915 -11.26906 -11.20787
 Alpha  occ. eigenvalues --  -11.20579 -11.20491 -11.20424 -11.19953 -11.19930
 Alpha  occ. eigenvalues --   -1.60133  -1.39693  -1.19527  -1.08942  -1.07369
 Alpha  occ. eigenvalues --   -1.04915  -1.02595  -0.95794  -0.95041  -0.86318
 Alpha  occ. eigenvalues --   -0.86063  -0.82631  -0.78670  -0.77694  -0.77125
 Alpha  occ. eigenvalues --   -0.72328  -0.71435  -0.70636  -0.65187  -0.64918
 Alpha  occ. eigenvalues --   -0.63984  -0.62263  -0.59997  -0.58440  -0.56648
 Alpha  occ. eigenvalues --   -0.55422  -0.54326  -0.53248  -0.53006  -0.51800
 Alpha  occ. eigenvalues --   -0.51468  -0.49180  -0.49078  -0.48895  -0.46990
 Alpha  occ. eigenvalues --   -0.45723  -0.45224  -0.44714  -0.44325  -0.42796
 Alpha  occ. eigenvalues --   -0.37501  -0.36512
 Alpha virt. eigenvalues --    0.04809   0.11134   0.16288   0.21224   0.23817
 Alpha virt. eigenvalues --    0.25176   0.27143   0.27509   0.28110   0.28718
 Alpha virt. eigenvalues --    0.29000   0.30919   0.32064   0.32427   0.32579

 Mulliken charges:
               1
     1  C   -0.295340
     2  C   -0.301133
     3  C   -0.474834
     4  H    0.145831
     5  H    0.144463
     6  H    0.156387
     7  H    0.150915
     8  H    0.154093
     9  H    0.150744
    10  H    0.156120
    11  C   -0.312901
    12  C   -0.297747
    13  C   -0.476449
    14  H    0.182062
    15  H    0.145181
    16  H    0.149106
    17  H    0.145967
    18  H    0.153135
    19  H    0.163363
    20  H    0.154701
    21  C   -0.170393
    22  C   -0.218576
    23  C   -0.170385
    24  C    0.157701
    25  C   -0.170805
    26  C   -0.218406
    27  H    0.226328
    28  H    0.224102
    29  H    0.276046
    30  H    0.275672
    31  H    0.224207
    32  N    0.490876
    33  O   -0.462786
    34  O   -0.457246
 Sum of Mulliken charges =  -0.00000

 Dipole moment (field-independent basis, Debye):
    X=             -4.6937    Y=              2.5283    Z=              0.9783  Tot=              5.4204
 Quadrupole moment (field-independent basis, Debye-Ang):
   XX=            -73.3448   YY=            -99.0253   ZZ=            -91.9196
   XY=             -3.2658   XZ=             -1.0643   YZ=              1.4936

 Normal termination of Gaussian 16 at Wed May  5 20:27:53 2021.
