 Gaussian 16, Revision A.03,
 Gaussian 16:  EM64L-G16RevA.03 25-Dec-2016

 -------------
 #p 6-31g* mp2
 -------------

 ------------------------------------------------------
 Input file generated by CHIRIPA (05-May-2021 14:53:12)
 ------------------------------------------------------
 Symbolic Z-matrix:
 Charge =  0 Multiplicity = 1

                         Standard orientation:
 ---------------------------------------------------------------------
 Center     Atomic      Atomic             Coordinates (Angstroms)
 Number     Number       Type             X           Y           Z
 ---------------------------------------------------------------------
      1          6           0        3.760429    0.663037    0.199383
      2          6           0        4.443681   -0.531799   -0.466590
      3          6           0        5.901464   -0.695074   -0.035309
      4          1           0        4.319852    1.577659   -0.040321
      5          1           0        3.809754    0.543394    1.290551
      6          1           0        4.391863   -0.410621   -1.556199
      7          1           0        3.882456   -1.443657   -0.225431
      8          1           0        5.968785   -0.840996    1.047639
      9          1           0        6.481086    0.197909   -0.290690
     10          1           0        6.370593   -1.555082   -0.523329
     11          6           0        2.302600    0.839397   -0.221759
     12          6           0        1.619348    2.034232    0.444213
     13          6           0        0.161565    2.197508    0.012932
     14          1           0        2.253275    0.959040   -1.312927
     15          1           0        1.743177   -0.075225    0.017944
     16          1           0        2.180573    2.946091    0.203054
     17          1           0        1.671166    1.913055    1.533822
     18          1           0       -0.418057    1.304524    0.268313
     19          1           0        0.094244    2.343430   -1.070016
     20          1           0       -0.307565    3.057516    0.500952
     21          6           0       -0.299251   -2.003721    0.286677
     22          6           0       -0.997688   -1.556223    1.412933
     23          6           0       -2.145389   -0.770637    1.270857
     24          6           0       -2.568405   -0.449914   -0.018129
     25          6           0       -1.894158   -0.880544   -1.159723
     26          6           0       -0.748922   -1.665051   -0.993799
     27          1           0        0.591353   -2.613565    0.406308
     28          1           0       -0.650779   -1.817695    2.408589
     29          1           0       -2.705176   -0.410765    2.125578
     30          1           0       -2.264341   -0.603619   -2.139364
     31          1           0       -0.208507   -2.011177   -1.870265
     32          7           0       -3.782120    0.381179   -0.181162
     33          8           0       -4.134227    0.649995   -1.327634
     34          8           0       -4.358341    0.748039    0.840611
 ---------------------------------------------------------------------

 SCF Done:  E(RHF) =  -669.533287395     A.U. after   15 cycles
 E2 =    -0.2096108624D+01 EUMP2 =    -0.67162939601880D+03

 The electronic state is 1-A.
 Alpha  occ. eigenvalues --  -20.60808 -20.60802 -15.85863 -11.31262 -11.27869
 Alpha  occ. eigenvalues --  -11.27840 -11.27639 -11.26924 -11.26883 -11.22210
 Alpha  occ. eigenvalues --  -11.21799 -11.21738 -11.21607 -11.21579 -11.20902
 Alpha  occ. eigenvalues --   -1.59881  -1.39433  -1.19512  -1.08901  -1.08766
 Alpha  occ. eigenvalues --   -1.04896  -1.03832  -0.96270  -0.95690  -0.87282
 Alpha  occ. eigenvalues --   -0.86284  -0.82519  -0.79936  -0.78612  -0.77550
 Alpha  occ. eigenvalues --   -0.72084  -0.71211  -0.70601  -0.65456  -0.65133
 Alpha  occ. eigenvalues --   -0.64881  -0.62226  -0.61287  -0.59658  -0.57909
 Alpha  occ. eigenvalues --   -0.55663  -0.55390  -0.53515  -0.52974  -0.52938
 Alpha  occ. eigenvalues --   -0.52546  -0.50199  -0.48846  -0.48833  -0.48157
 Alpha  occ. eigenvalues --   -0.46946  -0.46099  -0.45928  -0.44827  -0.44083
 Alpha  occ. eigenvalues --   -0.37374  -0.36503
 Alpha virt. eigenvalues --    0.04937   0.11118   0.16331   0.20557   0.22799
 Alpha virt. eigenvalues --    0.24052   0.25761   0.26536   0.27413   0.27679
 Alpha virt. eigenvalues --    0.29420   0.30665   0.31291   0.31515   0.32038

 Mulliken charges:
               1
     1  C   -0.297849
     2  C   -0.297853
     3  C   -0.475589
     4  H    0.151851
     5  H    0.148026
     6  H    0.152439
     7  H    0.142338
     8  H    0.155172
     9  H    0.157738
    10  H    0.160173
    11  C   -0.303656
    12  C   -0.297773
    13  C   -0.484009
    14  H    0.147172
    15  H    0.151171
    16  H    0.152306
    17  H    0.148986
    18  H    0.165230
    19  H    0.153661
    20  H    0.162366
    21  C   -0.174566
    22  C   -0.215918
    23  C   -0.176011
    24  C    0.160145
    25  C   -0.171012
    26  C   -0.212452
    27  H    0.227453
    28  H    0.224429
    29  H    0.276380
    30  H    0.276226
    31  H    0.225149
    32  N    0.488781
    33  O   -0.460110
    34  O   -0.460396
 Sum of Mulliken charges =  -0.00000

 Dipole moment (field-independent basis, Debye):
    X=              4.1565    Y=             -2.9568    Z=              0.5556  Tot=              5.1311
 Quadrupole moment (field-independent basis, Debye-Ang):
   XX=           -118.5247   YY=            -92.5954   ZZ=            -89.2517
   XY=              6.1057   XZ=             -2.6208   YZ=             -0.3811

 Normal termination of Gaussian 16 at Thu May  6 07:18:50 2021.
