 Gaussian 16, Revision A.03,
 Gaussian 16:  EM64L-G16RevA.03 25-Dec-2016

 -------------
 #p 6-31g* mp2
 -------------

 ------------------------------------------------------
 Input file generated by CHIRIPA (05-May-2021 14:55:22)
 ------------------------------------------------------
 Symbolic Z-matrix:
 Charge =  0 Multiplicity = 1

                         Standard orientation:
 ---------------------------------------------------------------------
 Center     Atomic      Atomic             Coordinates (Angstroms)
 Number     Number       Type             X           Y           Z
 ---------------------------------------------------------------------
      1          6           0       -0.247184   -2.061563   -0.084995
      2          6           0       -1.234580   -2.107162   -1.074688
      3          6           0       -2.380395   -1.312789   -0.971607
      4          6           0       -2.506892   -0.480554    0.139552
      5          6           0       -1.540693   -0.412827    1.142130
      6          6           0       -0.403117   -1.216031    1.018310
      7          1           0        0.639713   -2.682081   -0.173126
      8          1           0       -1.116150   -2.762871   -1.932630
      9          1           0       -3.160306   -1.328418   -1.723214
     10          1           0       -1.686879    0.250747    1.985764
     11          1           0        0.362083   -1.178555    1.788446
     12          7           0       -3.715554    0.365088    0.259657
     13          8           0       -3.803250    1.089903    1.248388
     14          8           0       -4.552322    0.287075   -0.637210
     15          6           0        2.315146    1.000188   -0.517679
     16          6           0        1.774413    2.358691   -0.070400
     17          6           0        0.496377    2.758345   -0.808434
     18          1           0        2.507652    1.027252   -1.598954
     19          1           0        1.543139    0.235017   -0.356697
     20          1           0        2.547706    3.120844   -0.230891
     21          1           0        1.583353    2.328451    1.009969
     22          1           0       -0.293479    2.019441   -0.638876
     23          1           0        0.676354    2.816337   -1.886787
     24          1           0        0.127166    3.732604   -0.473225
     25          6           0        3.592541    0.586825    0.211101
     26          6           0        4.133274   -0.771680   -0.236179
     27          6           0        5.411310   -1.171334    0.501854
     28          1           0        4.364548    1.351995    0.050119
     29          1           0        3.400034    0.559761    1.292375
     30          1           0        4.324334   -0.741439   -1.316549
     31          1           0        3.359980   -1.533833   -0.075688
     32          1           0        5.231333   -1.229325    1.580208
     33          1           0        6.201165   -0.432429    0.332297
     34          1           0        5.780520   -2.145592    0.166646
 ---------------------------------------------------------------------

 SCF Done:  E(RHF) =  -669.534515245     A.U. after   15 cycles
 E2 =    -0.2094702171D+01 EUMP2 =    -0.67162921741580D+03

 The electronic state is 1-A.
 Alpha  occ. eigenvalues --  -20.60849 -20.60844 -15.85907 -11.31339 -11.27895
 Alpha  occ. eigenvalues --  -11.27886 -11.27625 -11.26914 -11.26899 -11.22396
 Alpha  occ. eigenvalues --  -11.21950 -11.21833 -11.21742 -11.21601 -11.21082
 Alpha  occ. eigenvalues --   -1.59924  -1.39475  -1.19516  -1.08959  -1.08843
 Alpha  occ. eigenvalues --   -1.04918  -1.03961  -0.96382  -0.95715  -0.87397
 Alpha  occ. eigenvalues --   -0.86310  -0.82540  -0.80064  -0.78696  -0.77580
 Alpha  occ. eigenvalues --   -0.72121  -0.71250  -0.70601  -0.65632  -0.65150
 Alpha  occ. eigenvalues --   -0.64867  -0.62248  -0.61393  -0.59773  -0.57991
 Alpha  occ. eigenvalues --   -0.55684  -0.55400  -0.53323  -0.53064  -0.52994
 Alpha  occ. eigenvalues --   -0.52795  -0.50350  -0.48886  -0.48872  -0.48353
 Alpha  occ. eigenvalues --   -0.47133  -0.46217  -0.46125  -0.44865  -0.44197
 Alpha  occ. eigenvalues --   -0.37395  -0.36459
 Alpha virt. eigenvalues --    0.04923   0.11036   0.16337   0.19396   0.23044
 Alpha virt. eigenvalues --    0.23654   0.25436   0.25943   0.27142   0.28080
 Alpha virt. eigenvalues --    0.29297   0.30573   0.31111   0.31350   0.31971

 Mulliken charges:
               1
     1  C   -0.171254
     2  C   -0.217446
     3  C   -0.170789
     4  C    0.159417
     5  C   -0.171391
     6  C   -0.220283
     7  H    0.229109
     8  H    0.224603
     9  H    0.276450
    10  H    0.276579
    11  H    0.225439
    12  N    0.487966
    13  O   -0.459792
    14  O   -0.459843
    15  C   -0.309003
    16  C   -0.298400
    17  C   -0.478241
    18  H    0.149163
    19  H    0.158497
    20  H    0.152700
    21  H    0.147556
    22  H    0.157154
    23  H    0.154779
    24  H    0.163725
    25  C   -0.298155
    26  C   -0.298388
    27  C   -0.475610
    28  H    0.152739
    29  H    0.145079
    30  H    0.154679
    31  H    0.139400
    32  H    0.154419
    33  H    0.158748
    34  H    0.160394
 Sum of Mulliken charges =  -0.00000

 Dipole moment (field-independent basis, Debye):
    X=              4.1647    Y=             -2.9858    Z=             -0.4669  Tot=              5.1457
 Quadrupole moment (field-independent basis, Debye-Ang):
   XX=           -116.5397   YY=            -91.7255   ZZ=            -91.0037
   XY=              6.9389   XZ=              2.4808   YZ=              1.5195

 Normal termination of Gaussian 16 at Thu May  6 12:33:14 2021.
