 Gaussian 16, Revision A.03,
 Gaussian 16:  EM64L-G16RevA.03 25-Dec-2016

 -------------
 #p 6-31g* mp2
 -------------

 ------------------------------------------------------
 Input file generated by CHIRIPA (05-May-2021 14:57:25)
 ------------------------------------------------------
 Symbolic Z-matrix:
 Charge =  0 Multiplicity = 1

                         Standard orientation:
 ---------------------------------------------------------------------
 Center     Atomic      Atomic             Coordinates (Angstroms)
 Number     Number       Type             X           Y           Z
 ---------------------------------------------------------------------
      1          6           0        3.890804    2.625735   -0.057108
      2          6           0        2.739329    2.007779    0.441647
      3          6           0        2.654527    0.613986    0.510182
      4          6           0        3.744819   -0.134515    0.069387
      5          6           0        4.905703    0.451720   -0.432575
      6          6           0        4.968417    1.847106   -0.491860
      7          1           0        3.948101    3.709085   -0.106755
      8          1           0        1.900902    2.609951    0.779988
      9          1           0        1.775129    0.109600    0.891853
     10          1           0        5.725272   -0.175128   -0.762404
     11          1           0        5.863929    2.324294   -0.879666
     12          7           0        3.666735   -1.610904    0.137047
     13          8           0        4.640975   -2.247899   -0.257580
     14          8           0        2.632771   -2.103147    0.583424
     15          6           0       -5.946637    1.144615   -0.000421
     16          6           0       -5.941292   -0.250399   -0.102533
     17          6           0       -4.734393   -0.955282   -0.135420
     18          6           0       -3.546068   -0.229989   -0.063825
     19          6           0       -3.518554    1.160003    0.038428
     20          6           0       -4.737384    1.844131    0.069610
     21          1           0       -6.888820    1.684124    0.024464
     22          1           0       -6.878890   -0.796274   -0.157089
     23          1           0       -4.701277   -2.035164   -0.214014
     24          1           0       -2.567844    1.676531    0.091038
     25          1           0       -4.738498    2.927527    0.148958
     26          7           0       -2.262063   -0.965231   -0.097740
     27          8           0       -1.228712   -0.302921   -0.033166
     28          8           0       -2.313323   -2.189901   -0.188251
 ---------------------------------------------------------------------

 SCF Done:  E(RHF) =  -868.337577638     A.U. after   16 cycles
 E2 =    -0.2599223038D+01 EUMP2 =    -0.87093680067534D+03

 The electronic state is 1-A.
 Alpha  occ. eigenvalues --  -20.60932 -20.60868 -20.59692 -20.59619 -15.85962
 Alpha  occ. eigenvalues --  -15.84713 -11.31362 -11.30185 -11.27978 -11.27897
 Alpha  occ. eigenvalues --  -11.27672 -11.26977 -11.26925 -11.26875 -11.26677
 Alpha  occ. eigenvalues --  -11.26657 -11.25926 -11.25848  -1.59955  -1.58738
 Alpha  occ. eigenvalues --   -1.39518  -1.38281  -1.19533  -1.18410  -1.08915
 Alpha  occ. eigenvalues --   -1.07808  -1.04946  -1.03825  -0.95747  -0.94604
 Alpha  occ. eigenvalues --   -0.86341  -0.85228  -0.82588  -0.81428  -0.77632
 Alpha  occ. eigenvalues --   -0.76429  -0.72183  -0.71280  -0.70930  -0.70643
 Alpha  occ. eigenvalues --   -0.70066  -0.69531  -0.65191  -0.64949  -0.64067
 Alpha  occ. eigenvalues --   -0.63853  -0.62299  -0.61142  -0.55437  -0.54385
 Alpha  occ. eigenvalues --   -0.53266  -0.53042  -0.52169  -0.51923  -0.48927
 Alpha  occ. eigenvalues --   -0.48891  -0.47722  -0.47662  -0.44917  -0.43661
 Alpha  occ. eigenvalues --   -0.37508  -0.36550  -0.36450  -0.35432
 Alpha virt. eigenvalues --    0.04910   0.06095   0.11105   0.12211   0.16391
 Alpha virt. eigenvalues --    0.17526   0.21181   0.22259   0.27074   0.27737
 Alpha virt. eigenvalues --    0.28430   0.29241   0.30824   0.31738   0.32396

 Mulliken charges:
               1
     1  C   -0.171436
     2  C   -0.220550
     3  C   -0.170400
     4  C    0.155969
     5  C   -0.171336
     6  C   -0.219827
     7  H    0.220646
     8  H    0.218882
     9  H    0.293895
    10  H    0.273139
    11  H    0.219437
    12  N    0.487011
    13  O   -0.466688
    14  O   -0.450675
    15  C   -0.170806
    16  C   -0.218327
    17  C   -0.170329
    18  C    0.159026
    19  C   -0.170537
    20  C   -0.218161
    21  H    0.225998
    22  H    0.224584
    23  H    0.277645
    24  H    0.270175
    25  H    0.222296
    26  N    0.491105
    27  O   -0.469380
    28  O   -0.451354
 Sum of Mulliken charges =  -0.00000

 Dipole moment (field-independent basis, Debye):
    X=             -4.6657    Y=              7.5087    Z=             -0.0774  Tot=              8.8405
 Quadrupole moment (field-independent basis, Debye-Ang):
   XX=            -66.8486   YY=           -104.6824   ZZ=           -105.7916
   XY=             13.3549   XZ=             -2.6749   YZ=              0.6811

 Normal termination of Gaussian 16 at Thu May  6 22:51:43 2021.
