 Gaussian 16, Revision A.03,
 Gaussian 16:  EM64L-G16RevA.03 25-Dec-2016

 -------------
 #p 6-31g* mp2
 -------------

 ------------------------------------------------------
 Input file generated by CHIRIPA (05-May-2021 14:55:21)
 ------------------------------------------------------
 Symbolic Z-matrix:
 Charge =  0 Multiplicity = 1

                         Standard orientation:
 ---------------------------------------------------------------------
 Center     Atomic      Atomic             Coordinates (Angstroms)
 Number     Number       Type             X           Y           Z
 ---------------------------------------------------------------------
      1          6           0        4.813571   -0.791851   -1.246153
      2          6           0        4.159538    0.431128   -1.428044
      3          6           0        3.073676    0.782570   -0.620616
      4          6           0        2.666545   -0.116895    0.363507
      5          6           0        3.297623   -1.342739    0.569269
      6          6           0        4.381288   -1.673327   -0.249834
      7          1           0        5.656242   -1.056759   -1.877917
      8          1           0        4.493075    1.117658   -2.201009
      9          1           0        2.549211    1.722865   -0.739777
     10          1           0        2.942172   -2.006417    1.348116
     11          1           0        4.887318   -2.623789   -0.106306
     12          7           0        1.518154    0.244122    1.224474
     13          8           0        1.178861   -0.565774    2.084465
     14          8           0        0.979084    1.330148    1.023006
     15          6           0       -3.855214   -0.446319   -0.586642
     16          6           0       -5.055302   -1.091530    0.107241
     17          6           0       -5.442922   -2.435519   -0.510206
     18          1           0       -4.085841   -0.309131   -1.651976
     19          1           0       -2.999290   -1.133659   -0.538115
     20          1           0       -5.908315   -0.402603    0.058631
     21          1           0       -4.821864   -1.227024    1.171085
     22          1           0       -4.609462   -3.142689   -0.448108
     23          1           0       -5.702086   -2.313584   -1.566883
     24          1           0       -6.302998   -2.879072    0.001058
     25          6           0       -3.455671    0.897890    0.019324
     26          6           0       -2.255582    1.543102   -0.674559
     27          6           0       -1.867962    2.887090   -0.057113
     28          1           0       -4.311594    1.585230   -0.029203
     29          1           0       -3.225044    0.760702    1.084657
     30          1           0       -2.489021    1.678594   -1.738403
     31          1           0       -1.402569    0.854174   -0.625950
     32          1           0       -1.608798    2.765155    0.999564
     33          1           0       -2.701422    3.594259   -0.119210
     34          1           0       -1.007887    3.330643   -0.568377
 ---------------------------------------------------------------------

 SCF Done:  E(RHF) =  -669.536007387     A.U. after   15 cycles
 E2 =    -0.2091761084D+01 EUMP2 =    -0.67162776847063D+03

 The electronic state is 1-A.
 Alpha  occ. eigenvalues --  -20.61020 -20.60994 -15.86024 -11.31322 -11.27883
 Alpha  occ. eigenvalues --  -11.27879 -11.27616 -11.26884 -11.26874 -11.20891
 Alpha  occ. eigenvalues --  -11.20546 -11.20514 -11.20346 -11.20268 -11.19567
 Alpha  occ. eigenvalues --   -1.60068  -1.39624  -1.19489  -1.08900  -1.07455
 Alpha  occ. eigenvalues --   -1.04881  -1.02512  -0.95751  -0.94961  -0.86283
 Alpha  occ. eigenvalues --   -0.85990  -0.82578  -0.78627  -0.77636  -0.77251
 Alpha  occ. eigenvalues --   -0.72261  -0.71382  -0.70598  -0.65149  -0.64885
 Alpha  occ. eigenvalues --   -0.64066  -0.62228  -0.59874  -0.58394  -0.56585
 Alpha  occ. eigenvalues --   -0.55388  -0.54231  -0.53212  -0.52971  -0.51681
 Alpha  occ. eigenvalues --   -0.51408  -0.49115  -0.49009  -0.48774  -0.46939
 Alpha  occ. eigenvalues --   -0.45682  -0.45123  -0.44767  -0.44551  -0.42790
 Alpha  occ. eigenvalues --   -0.37466  -0.36480
 Alpha virt. eigenvalues --    0.04869   0.11173   0.16349   0.21238   0.23810
 Alpha virt. eigenvalues --    0.25190   0.27154   0.27530   0.27998   0.28435
 Alpha virt. eigenvalues --    0.29121   0.30848   0.31973   0.32475   0.32596

 Mulliken charges:
               1
     1  C   -0.170473
     2  C   -0.218517
     3  C   -0.170655
     4  C    0.157616
     5  C   -0.170648
     6  C   -0.218581
     7  H    0.226146
     8  H    0.224046
     9  H    0.276100
    10  H    0.275788
    11  H    0.223913
    12  N    0.490184
    13  O   -0.459407
    14  O   -0.459863
    15  C   -0.297398
    16  C   -0.299270
    17  C   -0.475142
    18  H    0.145619
    19  H    0.149206
    20  H    0.150241
    21  H    0.153903
    22  H    0.154335
    23  H    0.153059
    24  H    0.158347
    25  C   -0.299195
    26  C   -0.297856
    27  C   -0.469589
    28  H    0.145167
    29  H    0.156705
    30  H    0.141987
    31  H    0.155368
    32  H    0.172000
    33  H    0.143976
    34  H    0.152887
 Sum of Mulliken charges =  -0.00000

 Dipole moment (field-independent basis, Debye):
    X=              4.3621    Y=             -1.2940    Z=             -2.8420  Tot=              5.3647
 Quadrupole moment (field-independent basis, Debye-Ang):
   XX=            -74.4609   YY=            -92.0535   ZZ=            -96.1552
   XY=             -5.0560   XZ=             -6.8850   YZ=             -2.9385

 Normal termination of Gaussian 16 at Thu May  6 01:23:21 2021.
