 Gaussian 16, Revision A.03,
 Gaussian 16:  EM64L-G16RevA.03 25-Dec-2016

 -------------
 #p 6-31g* mp2
 -------------

 ------------------------------------------------------
 Input file generated by CHIRIPA (05-May-2021 14:51:10)
 ------------------------------------------------------
 Symbolic Z-matrix:
 Charge =  0 Multiplicity = 1

                         Standard orientation:
 ---------------------------------------------------------------------
 Center     Atomic      Atomic             Coordinates (Angstroms)
 Number     Number       Type             X           Y           Z
 ---------------------------------------------------------------------
      1          6           0       -2.589579   -0.971958    0.505991
      2          6           0       -1.441608   -1.132385    1.503192
      3          6           0       -1.236283   -2.583234    1.939852
      4          1           0       -3.515074   -1.355023    0.957283
      5          1           0       -2.390022   -1.596491   -0.375786
      6          1           0       -1.642599   -0.506668    2.382224
      7          1           0       -0.518775   -0.748718    1.049546
      8          1           0       -1.010986   -3.217258    1.076222
      9          1           0       -2.141195   -2.973833    2.416472
     10          1           0       -0.410811   -2.674979    2.652620
     11          6           0       -2.807211    0.472860    0.060049
     12          6           0       -3.955182    0.633286   -0.937152
     13          6           0       -4.160507    2.084136   -1.373812
     14          1           0       -3.006767    1.097392    0.941827
     15          1           0       -1.881715    0.855925   -0.391243
     16          1           0       -4.878014    0.249619   -0.483506
     17          1           0       -3.754191    0.007570   -1.816184
     18          1           0       -3.255595    2.474735   -1.850432
     19          1           0       -4.385804    2.718160   -0.510182
     20          1           0       -4.985979    2.175880   -2.086580
     21          6           0        2.641364   -0.511386   -0.249005
     22          6           0        2.610689   -1.179228   -1.624152
     23          6           0        2.496363   -2.701585   -1.539578
     24          1           0        3.486108   -0.912483    0.327601
     25          1           0        1.730165   -0.781510    0.302488
     26          1           0        3.521025   -0.906806   -2.173415
     27          1           0        1.766033   -0.776354   -2.197621
     28          1           0        1.580119   -2.990525   -1.014590
     29          1           0        3.345083   -3.121717   -0.990247
     30          1           0        2.476113   -3.158517   -2.533894
     31          6           0        2.755425    1.010484   -0.317035
     32          6           0        2.786100    1.678327    1.058113
     33          6           0        2.900427    3.200684    0.973538
     34          1           0        3.666624    1.280608   -0.868529
     35          1           0        1.910681    1.411582   -0.893640
     36          1           0        3.630757    1.275453    1.631581
     37          1           0        1.875764    1.405905    1.607376
     38          1           0        2.051707    3.620816    0.424207
     39          1           0        3.816670    3.489623    0.448550
     40          1           0        2.920677    3.657615    1.967854
 ---------------------------------------------------------------------

 SCF Done:  E(RHF) =  -470.733413948     A.U. after   11 cycles
 E2 =    -0.1583355033D+01 EUMP2 =    -0.47231676898094D+03

 The electronic state is 1-A.
 Alpha  occ. eigenvalues --  -11.21665 -11.21648 -11.21636 -11.21602 -11.21468
 Alpha  occ. eigenvalues --  -11.21422 -11.21408 -11.21361 -11.21133 -11.21109
 Alpha  occ. eigenvalues --  -11.21102 -11.21068  -1.08500  -1.08445  -1.03590
 Alpha  occ. eigenvalues --   -1.03543  -0.96034  -0.95996  -0.87051  -0.87009
 Alpha  occ. eigenvalues --   -0.79661  -0.79603  -0.78356  -0.78218  -0.65284
 Alpha  occ. eigenvalues --   -0.64949  -0.61056  -0.60875  -0.59403  -0.59361
 Alpha  occ. eigenvalues --   -0.57668  -0.57583  -0.55327  -0.55286  -0.52725
 Alpha  occ. eigenvalues --   -0.52688  -0.52457  -0.52422  -0.50052  -0.49872
 Alpha  occ. eigenvalues --   -0.48013  -0.47910  -0.46809  -0.46618  -0.46063
 Alpha  occ. eigenvalues --   -0.45799  -0.45776  -0.45346  -0.43839  -0.43800
 Alpha virt. eigenvalues --    0.19636   0.23158   0.23473   0.24729   0.25586
 Alpha virt. eigenvalues --    0.26518   0.26920   0.27583   0.28587   0.29479
 Alpha virt. eigenvalues --    0.30394   0.31682   0.31711   0.31921   0.32214

 Mulliken charges:
               1
     1  C   -0.297725
     2  C   -0.308847
     3  C   -0.476201
     4  H    0.150107
     5  H    0.149467
     6  H    0.152428
     7  H    0.158790
     8  H    0.155361
     9  H    0.155754
    10  H    0.161049
    11  C   -0.298313
    12  C   -0.299732
    13  C   -0.475736
    14  H    0.149802
    15  H    0.148804
    16  H    0.152189
    17  H    0.152050
    18  H    0.155052
    19  H    0.155312
    20  H    0.160488
    21  C   -0.307582
    22  C   -0.299127
    23  C   -0.476403
    24  H    0.150097
    25  H    0.158088
    26  H    0.152235
    27  H    0.151157
    28  H    0.155358
    29  H    0.155589
    30  H    0.160285
    31  C   -0.297755
    32  C   -0.300802
    33  C   -0.475685
    34  H    0.149748
    35  H    0.148873
    36  H    0.151968
    37  H    0.153110
    38  H    0.155292
    39  H    0.155112
    40  H    0.160343
 Sum of Mulliken charges =  -0.00000

 Dipole moment (field-independent basis, Debye):
    X=             -0.0110    Y=             -0.0074    Z=              0.0191  Tot=              0.0233
 Quadrupole moment (field-independent basis, Debye-Ang):
   XX=            -83.2834   YY=            -86.9744   ZZ=            -84.3429
   XY=              0.0024   XZ=             -0.6187   YZ=              0.3836

 Normal termination of Gaussian 16 at Thu May  6 02:12:52 2021.
