 Gaussian 16, Revision A.03,
 Gaussian 16:  EM64L-G16RevA.03 25-Dec-2016

 -------------
 #p 6-31g* mp2
 -------------

 ------------------------------------------------------
 Input file generated by CHIRIPA (05-May-2021 14:53:15)
 ------------------------------------------------------
 Symbolic Z-matrix:
 Charge =  0 Multiplicity = 1

                         Standard orientation:
 ---------------------------------------------------------------------
 Center     Atomic      Atomic             Coordinates (Angstroms)
 Number     Number       Type             X           Y           Z
 ---------------------------------------------------------------------
      1          6           0       -3.977178   -0.050994   -0.424834
      2          6           0       -5.470297   -0.067408   -0.095727
      3          6           0       -6.184425   -1.300261   -0.650605
      4          1           0       -3.848038   -0.091613   -1.515072
      5          1           0       -3.509721   -0.959570   -0.020644
      6          1           0       -5.934540    0.841597   -0.499217
      7          1           0       -5.595901   -0.026553    0.993847
      8          1           0       -5.748148   -2.216071   -0.238835
      9          1           0       -6.088711   -1.342989   -1.740382
     10          1           0       -7.250659   -1.291641   -0.403763
     11          6           0       -3.249480    1.175331    0.123171
     12          6           0       -1.756361    1.191745   -0.205937
     13          6           0       -1.042233    2.424597    0.348941
     14          1           0       -3.716936    2.083907   -0.281019
     15          1           0       -3.378620    1.215949    1.213408
     16          1           0       -1.630757    1.150889   -1.295510
     17          1           0       -1.292118    0.282740    0.197554
     18          1           0       -1.137946    2.467326    1.438719
     19          1           0       -1.478509    3.340408   -0.062829
     20          1           0        0.024001    2.415978    0.102099
     21          6           0        4.674258    0.955316   -0.879051
     22          6           0        4.466278   -0.353980   -1.325154
     23          6           0        3.443504   -1.135798   -0.779955
     24          6           0        2.643932   -0.574010    0.214213
     25          6           0        2.826136    0.727292    0.679726
     26          6           0        3.854968    1.490830    0.120203
     27          1           0        5.471126    1.555550   -1.308139
     28          1           0        5.101004   -0.772479   -2.101058
     29          1           0        3.260424   -2.152219   -1.106740
     30          1           0        2.177128    1.116950    1.454563
     31          1           0        4.014174    2.507352    0.468599
     32          7           0        1.557961   -1.392009    0.798972
     33          8           0        0.867283   -0.873835    1.673672
     34          8           0        1.418017   -2.535841    0.371536
 ---------------------------------------------------------------------

 SCF Done:  E(RHF) =  -669.536424440     A.U. after   15 cycles
 E2 =    -0.2091954039D+01 EUMP2 =    -0.67162837847920D+03

 The electronic state is 1-A.
 Alpha  occ. eigenvalues --  -20.60961 -20.60954 -15.85977 -11.31280 -11.27843
 Alpha  occ. eigenvalues --  -11.27828 -11.27577 -11.26850 -11.26840 -11.21024
 Alpha  occ. eigenvalues --  -11.20836 -11.20730 -11.20690 -11.20664 -11.20538
 Alpha  occ. eigenvalues --   -1.60014  -1.39570  -1.19449  -1.08856  -1.07776
 Alpha  occ. eigenvalues --   -1.04843  -1.02940  -0.95704  -0.95424  -0.86456
 Alpha  occ. eigenvalues --   -0.86236  -0.82537  -0.79004  -0.77612  -0.77563
 Alpha  occ. eigenvalues --   -0.72205  -0.71325  -0.70556  -0.65106  -0.64845
 Alpha  occ. eigenvalues --   -0.64385  -0.62195  -0.60315  -0.58809  -0.57042
 Alpha  occ. eigenvalues --   -0.55347  -0.54704  -0.53185  -0.52939  -0.52141
 Alpha  occ. eigenvalues --   -0.51850  -0.49360  -0.48967  -0.48960  -0.47340
 Alpha  occ. eigenvalues --   -0.46062  -0.45261  -0.45124  -0.44638  -0.43200
 Alpha  occ. eigenvalues --   -0.37422  -0.36431
 Alpha virt. eigenvalues --    0.04885   0.11156   0.16370   0.21150   0.23503
 Alpha virt. eigenvalues --    0.24540   0.27014   0.27335   0.27895   0.28252
 Alpha virt. eigenvalues --    0.29034   0.30984   0.31767   0.31949   0.32484

 Mulliken charges:
               1
     1  C   -0.299775
     2  C   -0.299301
     3  C   -0.475646
     4  H    0.147007
     5  H    0.157281
     6  H    0.149316
     7  H    0.152289
     8  H    0.157324
     9  H    0.153740
    10  H    0.158255
    11  C   -0.297415
    12  C   -0.308586
    13  C   -0.474974
    14  H    0.145051
    15  H    0.151395
    16  H    0.146382
    17  H    0.172240
    18  H    0.157344
    19  H    0.151506
    20  H    0.150133
    21  C   -0.170402
    22  C   -0.218427
    23  C   -0.170721
    24  C    0.158130
    25  C   -0.170781
    26  C   -0.219618
    27  H    0.226044
    28  H    0.223817
    29  H    0.275786
    30  H    0.278196
    31  H    0.224356
    32  N    0.487823
    33  O   -0.459147
    34  O   -0.458624
 Sum of Mulliken charges =  -0.00000

 Dipole moment (field-independent basis, Debye):
    X=              3.9830    Y=              2.6969    Z=             -1.9715  Tot=              5.1985
 Quadrupole moment (field-independent basis, Debye-Ang):
   XX=            -75.5165   YY=            -96.2738   ZZ=            -93.7832
   XY=              4.0946   XZ=             -6.0033   YZ=              3.7947

 Normal termination of Gaussian 16 at Thu May  6 13:47:20 2021.
