 Gaussian 16, Revision A.03,
 Gaussian 16:  EM64L-G16RevA.03 25-Dec-2016

 -------------
 #p 6-31g* mp2
 -------------

 ------------------------------------------------------
 Input file generated by CHIRIPA (05-May-2021 14:57:24)
 ------------------------------------------------------
 Symbolic Z-matrix:
 Charge =  0 Multiplicity = 1

                         Standard orientation:
 ---------------------------------------------------------------------
 Center     Atomic      Atomic             Coordinates (Angstroms)
 Number     Number       Type             X           Y           Z
 ---------------------------------------------------------------------
      1          6           0        3.487262    2.521420   -0.308728
      2          6           0        2.256632    2.053813   -0.781393
      3          6           0        1.895316    0.713450   -0.615783
      4          6           0        2.792817   -0.135513    0.030006
      5          6           0        4.026121    0.300301    0.511999
      6          6           0        4.366529    1.644717    0.335324
      7          1           0        3.759820    3.564221   -0.441675
      8          1           0        1.571796    2.732404   -1.281952
      9          1           0        0.948953    0.324906   -0.971941
     10          1           0        4.687880   -0.400047    1.006980
     11          1           0        5.322919    2.005086    0.703425
     12          7           0        2.421375   -1.556641    0.211187
     13          8           0        3.229736   -2.284405    0.783506
     14          8           0        1.328912   -1.915848   -0.222553
     15          6           0       -3.902573    2.082267    0.713892
     16          6           0       -3.582467    1.113198    1.670427
     17          6           0       -3.001198   -0.098853    1.286230
     18          6           0       -2.752666   -0.309554   -0.069176
     19          6           0       -3.060179    0.636324   -1.045925
     20          6           0       -3.640869    1.841162   -0.638846
     21          1           0       -4.353892    3.021016    1.021232
     22          1           0       -3.784580    1.297713    2.721687
     23          1           0       -2.743308   -0.866393    2.005809
     24          1           0       -2.846802    0.423624   -2.086428
     25          1           0       -3.888412    2.591938   -1.383899
     26          7           0       -2.137609   -1.588881   -0.488020
     27          8           0       -1.928699   -1.750222   -1.688421
     28          8           0       -1.876084   -2.406050    0.392023
 ---------------------------------------------------------------------

 SCF Done:  E(RHF) =  -868.335442831     A.U. after   16 cycles
 E2 =    -0.2601753295D+01 EUMP2 =    -0.87093719612633D+03

 The electronic state is 1-A.
 Alpha  occ. eigenvalues --  -20.60152 -20.60092 -20.60065 -20.59995 -15.85175
 Alpha  occ. eigenvalues --  -15.85095 -11.31027 -11.30802 -11.27670 -11.27586
 Alpha  occ. eigenvalues --  -11.27442 -11.27414 -11.27410 -11.27233 -11.26771
 Alpha  occ. eigenvalues --  -11.26709 -11.26522 -11.26499  -1.59156  -1.59112
 Alpha  occ. eigenvalues --   -1.38707  -1.38659  -1.19231  -1.19012  -1.08530
 Alpha  occ. eigenvalues --   -1.08347  -1.04695  -1.04465  -0.95287  -0.95117
 Alpha  occ. eigenvalues --   -0.86067  -0.85849  -0.82118  -0.81946  -0.77084
 Alpha  occ. eigenvalues --   -0.76950  -0.71439  -0.71349  -0.70517  -0.70316
 Alpha  occ. eigenvalues --   -0.70310  -0.70115  -0.64862  -0.64693  -0.64646
 Alpha  occ. eigenvalues --   -0.64477  -0.62029  -0.61809  -0.55164  -0.54965
 Alpha  occ. eigenvalues --   -0.53015  -0.52781  -0.52775  -0.52562  -0.48227
 Alpha  occ. eigenvalues --   -0.48135  -0.48034  -0.48013  -0.44232  -0.43737
 Alpha  occ. eigenvalues --   -0.37238  -0.37014  -0.36330  -0.36083
 Alpha virt. eigenvalues --    0.05455   0.05604   0.11289   0.11563   0.16863
 Alpha virt. eigenvalues --    0.17033   0.21411   0.21630   0.27222   0.27458
 Alpha virt. eigenvalues --    0.28232   0.28537   0.30648   0.31291   0.32375

 Mulliken charges:
               1
     1  C   -0.171946
     2  C   -0.218533
     3  C   -0.171744
     4  C    0.159030
     5  C   -0.171367
     6  C   -0.218642
     7  H    0.223081
     8  H    0.219770
     9  H    0.275610
    10  H    0.275513
    11  H    0.221944
    12  N    0.487638
    13  O   -0.463671
    14  O   -0.448523
    15  C   -0.172673
    16  C   -0.218466
    17  C   -0.171031
    18  C    0.158294
    19  C   -0.177773
    20  C   -0.219388
    21  H    0.224000
    22  H    0.223306
    23  H    0.278672
    24  H    0.274213
    25  H    0.221029
    26  N    0.491130
    27  O   -0.462506
    28  O   -0.446967
 Sum of Mulliken charges =  -0.00000

 Dipole moment (field-independent basis, Debye):
    X=             -0.9054    Y=              9.1148    Z=              0.9179  Tot=              9.2055
 Quadrupole moment (field-independent basis, Debye-Ang):
   XX=            -83.6280   YY=           -109.5306   ZZ=           -100.2932
   XY=              1.3976   XZ=             -3.5472   YZ=             -2.6155

 Normal termination of Gaussian 16 at Thu May  6 16:21:30 2021.
