 Gaussian 16, Revision A.03,
 Gaussian 16:  EM64L-G16RevA.03 25-Dec-2016

 -------------
 #p 6-31g* mp2
 -------------

 ------------------------------------------------------
 Input file generated by CHIRIPA (05-May-2021 14:55:23)
 ------------------------------------------------------
 Symbolic Z-matrix:
 Charge =  0 Multiplicity = 1

                         Standard orientation:
 ---------------------------------------------------------------------
 Center     Atomic      Atomic             Coordinates (Angstroms)
 Number     Number       Type             X           Y           Z
 ---------------------------------------------------------------------
      1          6           0       -3.191920   -2.361761   -0.117057
      2          6           0       -2.239718   -1.339993   -0.193348
      3          6           0       -2.632414    0.001105   -0.150978
      4          6           0       -3.991811    0.285710   -0.031274
      5          6           0       -4.964416   -0.709886    0.046948
      6          6           0       -4.548838   -2.044007    0.002636
      7          1           0       -2.877976   -3.400848   -0.150726
      8          1           0       -1.185227   -1.583807   -0.286345
      9          1           0       -1.916341    0.811904   -0.208087
     10          1           0       -6.008309   -0.435672    0.139214
     11          1           0       -5.290542   -2.835453    0.062089
     12          7           0       -4.419654    1.701777    0.014609
     13          8           0       -5.623427    1.926201    0.120438
     14          8           0       -3.543121    2.560453   -0.056126
     15          6           0        5.546823    0.484565    0.019500
     16          6           0        6.976519   -0.048609   -0.078896
     17          6           0        8.020612    1.066788   -0.138491
     18          1           0        5.343861    1.133003   -0.843796
     19          1           0        5.459743    1.117728    0.913322
     20          1           0        7.060511   -0.681696   -0.971511
     21          1           0        7.176036   -0.696007    0.784635
     22          1           0        7.965831    1.694003    0.757166
     23          1           0        7.849649    1.708394   -1.008959
     24          1           0        9.035573    0.663294   -0.208547
     25          6           0        4.491699   -0.618517    0.079922
     26          6           0        3.062004   -0.085343    0.178317
     27          6           0        2.017910   -1.200740    0.237913
     28          1           0        4.578780   -1.251680   -0.813900
     29          1           0        4.694661   -1.266956    0.943217
     30          1           0        2.862486    0.562054   -0.685214
     31          1           0        2.978012    0.547744    1.070932
     32          1           0        2.188874   -1.842347    1.108379
     33          1           0        2.072691   -1.827955   -0.657744
     34          1           0        1.002949   -0.797247    0.307969
 ---------------------------------------------------------------------

 SCF Done:  E(RHF) =  -669.535550380     A.U. after   15 cycles
 E2 =    -0.2090746220D+01 EUMP2 =    -0.67162629659989D+03

 The electronic state is 1-A.
 Alpha  occ. eigenvalues --  -20.60726 -20.60721 -15.85779 -11.31137 -11.27704
 Alpha  occ. eigenvalues --  -11.27695 -11.27434 -11.26720 -11.26664 -11.22241
 Alpha  occ. eigenvalues --  -11.22066 -11.21884 -11.21870 -11.21712 -11.21278
 Alpha  occ. eigenvalues --   -1.59802  -1.39356  -1.19304  -1.08884  -1.08700
 Alpha  occ. eigenvalues --   -1.04708  -1.04033  -0.96511  -0.95538  -0.87539
 Alpha  occ. eigenvalues --   -0.86101  -0.82373  -0.80102  -0.78658  -0.77422
 Alpha  occ. eigenvalues --   -0.71997  -0.71125  -0.70414  -0.65506  -0.64957
 Alpha  occ. eigenvalues --   -0.64729  -0.62104  -0.61418  -0.59890  -0.58096
 Alpha  occ. eigenvalues --   -0.55784  -0.55209  -0.53366  -0.53035  -0.52946
 Alpha  occ. eigenvalues --   -0.52635  -0.50432  -0.48755  -0.48753  -0.48413
 Alpha  occ. eigenvalues --   -0.47105  -0.46212  -0.46108  -0.44763  -0.44279
 Alpha  occ. eigenvalues --   -0.37284  -0.36308
 Alpha virt. eigenvalues --    0.05109   0.11340   0.16584   0.20243   0.22559
 Alpha virt. eigenvalues --    0.23786   0.25807   0.26248   0.27005   0.28135
 Alpha virt. eigenvalues --    0.28505   0.30305   0.30910   0.31371   0.32267

 Mulliken charges:
               1
     1  C   -0.171726
     2  C   -0.224791
     3  C   -0.173135
     4  C    0.158645
     5  C   -0.171261
     6  C   -0.218416
     7  H    0.225978
     8  H    0.232810
     9  H    0.274939
    10  H    0.275399
    11  H    0.223152
    12  N    0.488117
    13  O   -0.460653
    14  O   -0.460543
    15  C   -0.298941
    16  C   -0.299989
    17  C   -0.476020
    18  H    0.150998
    19  H    0.151060
    20  H    0.151977
    21  H    0.152124
    22  H    0.156008
    23  H    0.155951
    24  H    0.160978
    25  C   -0.299276
    26  C   -0.299589
    27  C   -0.481081
    28  H    0.149705
    29  H    0.150318
    30  H    0.154295
    31  H    0.155738
    32  H    0.159027
    33  H    0.155203
    34  H    0.153001
 Sum of Mulliken charges =  -0.00000

 Dipole moment (field-independent basis, Debye):
    X=              1.7198    Y=             -4.9824    Z=             -0.1457  Tot=              5.2729
 Quadrupole moment (field-independent basis, Debye-Ang):
   XX=           -102.2842   YY=            -98.2528   ZZ=            -94.5596
   XY=             21.6535   XZ=              0.3229   YZ=             -0.0114

 Normal termination of Gaussian 16 at Thu May  6 14:15:21 2021.
