 Gaussian 16, Revision A.03,
 Gaussian 16:  EM64L-G16RevA.03 25-Dec-2016

 -------------
 #p 6-31g* mp2
 -------------

 ------------------------------------------------------
 Input file generated by CHIRIPA (05-May-2021 14:51:11)
 ------------------------------------------------------
 Symbolic Z-matrix:
 Charge =  0 Multiplicity = 1

                         Standard orientation:
 ---------------------------------------------------------------------
 Center     Atomic      Atomic             Coordinates (Angstroms)
 Number     Number       Type             X           Y           Z
 ---------------------------------------------------------------------
      1          6           0        2.240916   -0.163120   -0.735751
      2          6           0        3.168123   -1.372455   -0.861377
      3          6           0        2.570295   -2.489310   -1.717549
      4          1           0        1.283953   -0.486142   -0.303520
      5          1           0        2.015936    0.223468   -1.739409
      6          1           0        3.392398   -1.755802    0.142297
      7          1           0        4.123058   -1.046482   -1.293182
      8          1           0        2.362641   -2.129146   -2.730348
      9          1           0        1.627829   -2.842496   -1.286713
     10          1           0        3.249701   -3.343954   -1.794039
     11          6           0        2.824642    0.961792    0.117223
     12          6           0        1.897435    2.171127    0.242849
     13          6           0        2.495263    3.287982    1.099020
     14          1           0        3.049622    0.575204    1.120881
     15          1           0        3.781604    1.284813   -0.315008
     16          1           0        0.942499    1.845154    0.674654
     17          1           0        1.673160    2.554474   -0.760825
     18          1           0        3.437728    3.641168    0.668185
     19          1           0        2.702916    2.927818    2.111820
     20          1           0        1.815856    4.142626    1.175511
     21          6           0       -1.920985   -0.511248    0.752678
     22          6           0       -1.774167   -1.956487    1.229874
     23          6           0       -0.545600   -2.164544    2.115950
     24          1           0       -1.016218   -0.220022    0.201743
     25          1           0       -1.981665    0.151792    1.626801
     26          1           0       -1.715172   -2.616742    0.355117
     27          1           0       -2.679468   -2.244369    1.779572
     28          1           0       -0.600686   -1.529645    3.006158
     29          1           0        0.369088   -1.904133    1.573610
     30          1           0       -0.459991   -3.204608    2.445791
     31          6           0       -3.144573   -0.287423   -0.134150
     32          6           0       -3.291391    1.157816   -0.611345
     33          6           0       -4.519957    1.365872   -1.497422
     34          1           0       -3.083892   -0.950463   -1.008273
     35          1           0       -4.049339   -0.578651    0.416785
     36          1           0       -2.386089    1.445698   -1.161044
     37          1           0       -3.350385    1.818070    0.263411
     38          1           0       -5.434645    1.105462   -0.955081
     39          1           0       -4.464871    0.730974   -2.387630
     40          1           0       -4.605566    2.405937   -1.827263
 ---------------------------------------------------------------------

 SCF Done:  E(RHF) =  -470.732982752     A.U. after   11 cycles
 E2 =    -0.1584346619D+01 EUMP2 =    -0.47231732937109D+03

 The electronic state is 1-A.
 Alpha  occ. eigenvalues --  -11.21661 -11.21637 -11.21598 -11.21580 -11.21423
 Alpha  occ. eigenvalues --  -11.21420 -11.21363 -11.21359 -11.21148 -11.21112
 Alpha  occ. eigenvalues --  -11.21069 -11.21057  -1.08495  -1.08422  -1.03573
 Alpha  occ. eigenvalues --   -1.03536  -0.96015  -0.95996  -0.87033  -0.87011
 Alpha  occ. eigenvalues --   -0.79638  -0.79597  -0.78442  -0.78117  -0.65330
 Alpha  occ. eigenvalues --   -0.64884  -0.61072  -0.60833  -0.59389  -0.59356
 Alpha  occ. eigenvalues --   -0.57626  -0.57605  -0.55315  -0.55281  -0.52714
 Alpha  occ. eigenvalues --   -0.52684  -0.52442  -0.52424  -0.49980  -0.49935
 Alpha  occ. eigenvalues --   -0.48009  -0.47894  -0.46831  -0.46610  -0.46332
 Alpha  occ. eigenvalues --   -0.45767  -0.45756  -0.44991  -0.43815  -0.43794
 Alpha virt. eigenvalues --    0.19655   0.23035   0.23512   0.24407   0.25453
 Alpha virt. eigenvalues --    0.26609   0.26814   0.27879   0.28250   0.30136
 Alpha virt. eigenvalues --    0.30647   0.31643   0.31725   0.31819   0.32170

 Mulliken charges:
               1
     1  C   -0.310605
     2  C   -0.299393
     3  C   -0.476423
     4  H    0.160306
     5  H    0.149243
     6  H    0.152407
     7  H    0.152402
     8  H    0.155145
     9  H    0.155087
    10  H    0.160699
    11  C   -0.297668
    12  C   -0.302998
    13  C   -0.475686
    14  H    0.149759
    15  H    0.149770
    16  H    0.155769
    17  H    0.151318
    18  H    0.155070
    19  H    0.155284
    20  H    0.160306
    21  C   -0.309011
    22  C   -0.299427
    23  C   -0.480959
    24  H    0.159565
    25  H    0.149280
    26  H    0.151857
    27  H    0.152531
    28  H    0.155419
    29  H    0.158662
    30  H    0.160951
    31  C   -0.297497
    32  C   -0.300129
    33  C   -0.475736
    34  H    0.149703
    35  H    0.149665
    36  H    0.152902
    37  H    0.151777
    38  H    0.155122
    39  H    0.155244
    40  H    0.160290
 Sum of Mulliken charges =  -0.00000

 Dipole moment (field-independent basis, Debye):
    X=             -0.0061    Y=              0.0009    Z=              0.0016  Tot=              0.0064
 Quadrupole moment (field-independent basis, Debye-Ang):
   XX=            -85.0914   YY=            -85.4798   ZZ=            -84.1676
   XY=              0.0356   XZ=             -1.5424   YZ=             -0.4902

 Normal termination of Gaussian 16 at Wed May  5 15:13:52 2021.
