 Gaussian 16, Revision A.03,
 Gaussian 16:  EM64L-G16RevA.03 25-Dec-2016

 -------------
 #p 6-31g* mp2
 -------------

 ------------------------------------------------------
 Input file generated by CHIRIPA (05-May-2021 14:57:25)
 ------------------------------------------------------
 Symbolic Z-matrix:
 Charge =  0 Multiplicity = 1

                         Standard orientation:
 ---------------------------------------------------------------------
 Center     Atomic      Atomic             Coordinates (Angstroms)
 Number     Number       Type             X           Y           Z
 ---------------------------------------------------------------------
      1          6           0       -4.666955    2.248402    0.733481
      2          6           0       -5.447775    1.333776    0.019129
      3          6           0       -4.916101    0.102596   -0.375921
      4          6           0       -3.593997   -0.182543   -0.038243
      5          6           0       -2.790728    0.707817    0.672608
      6          6           0       -3.343257    1.933059    1.057370
      7          1           0       -5.088072    3.202506    1.036370
      8          1           0       -6.476079    1.575989   -0.233793
      9          1           0       -5.498247   -0.623922   -0.929723
     10          1           0       -1.768852    0.438060    0.910134
     11          1           0       -2.734519    2.641436    1.612065
     12          7           0       -3.020098   -1.482795   -0.451019
     13          8           0       -1.852632   -1.710105   -0.141197
     14          8           0       -3.748610   -2.250004   -1.076558
     15          6           0        2.644336   -2.192266    0.749739
     16          6           0        3.766624   -1.679518    1.408585
     17          6           0        4.353476   -0.483270    0.985333
     18          6           0        3.789536    0.177116   -0.105149
     19          6           0        2.671828   -0.308228   -0.782246
     20          6           0        2.101477   -1.506194   -0.341650
     21          1           0        2.194865   -3.122209    1.085267
     22          1           0        4.190350   -2.210189    2.256460
     23          1           0        5.222716   -0.063800    1.477150
     24          1           0        2.271925    0.243346   -1.624422
     25          1           0        1.229935   -1.902040   -0.855231
     26          7           0        4.402076    1.444440   -0.562408
     27          8           0        3.886257    2.007181   -1.525680
     28          8           0        5.386403    1.851031    0.051122
 ---------------------------------------------------------------------

 SCF Done:  E(RHF) =  -868.340184634     A.U. after   16 cycles
 E2 =    -0.2598223136D+01 EUMP2 =    -0.87093840776993D+03

 The electronic state is 1-A.
 Alpha  occ. eigenvalues --  -20.61536 -20.61475 -20.60444 -20.60439 -15.86547
 Alpha  occ. eigenvalues --  -15.85487 -11.31642 -11.30679 -11.28177 -11.28172
 Alpha  occ. eigenvalues --  -11.27861 -11.27234 -11.27143 -11.27131 -11.27113
 Alpha  occ. eigenvalues --  -11.26815 -11.26220 -11.25969  -1.60574  -1.59525
 Alpha  occ. eigenvalues --   -1.40137  -1.39082  -1.19788  -1.18804  -1.09230
 Alpha  occ. eigenvalues --   -1.08214  -1.05148  -1.04159  -0.96112  -0.95090
 Alpha  occ. eigenvalues --   -0.86559  -0.85548  -0.82956  -0.81917  -0.78033
 Alpha  occ. eigenvalues --   -0.77002  -0.72786  -0.71879  -0.71707  -0.70889
 Alpha  occ. eigenvalues --   -0.70849  -0.69878  -0.65445  -0.65144  -0.64433
 Alpha  occ. eigenvalues --   -0.64096  -0.62498  -0.61488  -0.55653  -0.54618
 Alpha  occ. eigenvalues --   -0.53494  -0.53234  -0.52528  -0.52202  -0.49542
 Alpha  occ. eigenvalues --   -0.49500  -0.48476  -0.48445  -0.45601  -0.44527
 Alpha  occ. eigenvalues --   -0.37750  -0.36762  -0.36740  -0.35772
 Alpha virt. eigenvalues --    0.04469   0.05489   0.10918   0.11882   0.16010
 Alpha virt. eigenvalues --    0.17048   0.21076   0.22196   0.27019   0.27708
 Alpha virt. eigenvalues --    0.28347   0.28968   0.30679   0.31738   0.32247

 Mulliken charges:
               1
     1  C   -0.169819
     2  C   -0.218495
     3  C   -0.170603
     4  C    0.157559
     5  C   -0.171313
     6  C   -0.218247
     7  H    0.227936
     8  H    0.225047
     9  H    0.275968
    10  H    0.275030
    11  H    0.226505
    12  N    0.490802
    13  O   -0.471960
    14  O   -0.457033
    15  C   -0.172654
    16  C   -0.219280
    17  C   -0.173520
    18  C    0.157661
    19  C   -0.176265
    20  C   -0.221995
    21  H    0.229556
    22  H    0.221245
    23  H    0.272844
    24  H    0.273751
    25  H    0.244263
    26  N    0.487941
    27  O   -0.462455
    28  O   -0.462472
 Sum of Mulliken charges =  -0.00000

 Dipole moment (field-independent basis, Debye):
    X=             -4.5859    Y=              0.0597    Z=              3.0534  Tot=              5.5097
 Quadrupole moment (field-independent basis, Debye-Ang):
   XX=           -101.3279   YY=           -108.6390   ZZ=           -102.8528
   XY=            -33.3922   XZ=              6.0864   YZ=              0.8729

 Normal termination of Gaussian 16 at Thu May  6 05:06:58 2021.
