 Gaussian 16, Revision A.03,
 Gaussian 16:  EM64L-G16RevA.03 25-Dec-2016

 -------------
 #p 6-31g* mp2
 -------------

 ------------------------------------------------------
 Input file generated by CHIRIPA (05-May-2021 14:57:21)
 ------------------------------------------------------
 Symbolic Z-matrix:
 Charge =  0 Multiplicity = 1

                         Standard orientation:
 ---------------------------------------------------------------------
 Center     Atomic      Atomic             Coordinates (Angstroms)
 Number     Number       Type             X           Y           Z
 ---------------------------------------------------------------------
      1          6           0       -5.831025    1.179847   -0.526175
      2          6           0       -5.839354   -0.189385   -0.240418
      3          6           0       -4.659933   -0.845920    0.123554
      4          6           0       -3.484844   -0.099095    0.192178
      5          6           0       -3.444265    1.266169   -0.086562
      6          6           0       -4.635614    1.901980   -0.448472
      7          1           0       -6.751860    1.681810   -0.808117
      8          1           0       -6.766252   -0.752732   -0.299949
      9          1           0       -4.637898   -1.904992    0.350043
     10          1           0       -2.504764    1.801093   -0.018648
     11          1           0       -4.626160    2.965442   -0.669844
     12          7           0       -2.229930   -0.783170    0.576408
     13          8           0       -1.207780   -0.102718    0.629630
     14          8           0       -2.292239   -1.986846    0.817069
     15          6           0        4.959942    2.124628    0.301469
     16          6           0        5.649789    0.913853    0.180405
     17          6           0        4.957380   -0.277053   -0.058047
     18          6           0        3.569057   -0.220369   -0.170455
     19          6           0        2.853305    0.970253   -0.054661
     20          6           0        3.566359    2.148921    0.183758
     21          1           0        5.505841    3.045000    0.486691
     22          1           0        6.732051    0.891984    0.271371
     23          1           0        5.466341   -1.228251   -0.156029
     24          1           0        1.774317    0.960400   -0.150088
     25          1           0        3.027985    3.087772    0.277332
     26          7           0        2.825106   -1.474651   -0.422875
     27          8           0        1.602106   -1.397987   -0.517898
     28          8           0        3.479085   -2.510669   -0.520919
 ---------------------------------------------------------------------

 SCF Done:  E(RHF) =  -868.335972724     A.U. after   16 cycles
 E2 =    -0.2600534489D+01 EUMP2 =    -0.87093650721250D+03

 The electronic state is 1-A.
 Alpha  occ. eigenvalues --  -20.60215 -20.60201 -20.59543 -20.59418 -15.85282
 Alpha  occ. eigenvalues --  -15.84535 -11.30890 -11.30215 -11.27529 -11.27454
 Alpha  occ. eigenvalues --  -11.27266 -11.26884 -11.26750 -11.26703 -11.26578
 Alpha  occ. eigenvalues --  -11.26531 -11.25968 -11.25933  -1.59253  -1.58567
 Alpha  occ. eigenvalues --   -1.38815  -1.38100  -1.19080  -1.18440  -1.08423
 Alpha  occ. eigenvalues --   -1.07791  -1.04526  -1.03889  -0.95221  -0.94560
 Alpha  occ. eigenvalues --   -0.85912  -0.85272  -0.82065  -0.81383  -0.77076
 Alpha  occ. eigenvalues --   -0.76360  -0.71516  -0.70773  -0.70530  -0.70195
 Alpha  occ. eigenvalues --   -0.69907  -0.69550  -0.64736  -0.64533  -0.64084
 Alpha  occ. eigenvalues --   -0.63908  -0.61879  -0.61213  -0.55013  -0.54412
 Alpha  occ. eigenvalues --   -0.52832  -0.52627  -0.52213  -0.51986  -0.48266
 Alpha  occ. eigenvalues --   -0.48215  -0.47560  -0.47437  -0.44155  -0.43426
 Alpha  occ. eigenvalues --   -0.37067  -0.36465  -0.36139  -0.35510
 Alpha virt. eigenvalues --    0.05480   0.06168   0.11512   0.12140   0.16918
 Alpha virt. eigenvalues --    0.17580   0.21532   0.22215   0.27416   0.27905
 Alpha virt. eigenvalues --    0.28411   0.29243   0.30997   0.31734   0.32580

 Mulliken charges:
               1
     1  C   -0.171592
     2  C   -0.218286
     3  C   -0.170685
     4  C    0.159986
     5  C   -0.170449
     6  C   -0.218161
     7  H    0.224323
     8  H    0.223028
     9  H    0.276935
    10  H    0.269861
    11  H    0.220963
    12  N    0.491914
    13  O   -0.462426
    14  O   -0.453598
    15  C   -0.171683
    16  C   -0.219323
    17  C   -0.171511
    18  C    0.156928
    19  C   -0.173138
    20  C   -0.219917
    21  H    0.221478
    22  H    0.219944
    23  H    0.273757
    24  H    0.289124
    25  H    0.218992
    26  N    0.486000
    27  O   -0.444284
    28  O   -0.468180
 Sum of Mulliken charges =  -0.00000

 Dipole moment (field-independent basis, Debye):
    X=             -2.1094    Y=              6.6000    Z=             -0.4426  Tot=              6.9430
 Quadrupole moment (field-independent basis, Debye-Ang):
   XX=            -53.2077   YY=           -103.2744   ZZ=           -107.4682
   XY=              7.4531   XZ=              6.5050   YZ=             -0.8892

 Normal termination of Gaussian 16 at Thu May  6 17:51:40 2021.
