 Gaussian 16, Revision A.03,
 Gaussian 16:  EM64L-G16RevA.03 25-Dec-2016

 -------------
 #p 6-31g* mp2
 -------------

 ------------------------------------------------------
 Input file generated by CHIRIPA (05-May-2021 14:55:18)
 ------------------------------------------------------
 Symbolic Z-matrix:
 Charge =  0 Multiplicity = 1

                         Standard orientation:
 ---------------------------------------------------------------------
 Center     Atomic      Atomic             Coordinates (Angstroms)
 Number     Number       Type             X           Y           Z
 ---------------------------------------------------------------------
      1          6           0       -0.829921   -2.200477    1.260191
      2          6           0       -1.907668   -1.512848    1.827773
      3          6           0       -2.651805   -0.606558    1.066559
      4          6           0       -2.288861   -0.411306   -0.265146
      5          6           0       -1.220437   -1.081219   -0.859265
      6          6           0       -0.490344   -1.982852   -0.079155
      7          1           0       -0.257313   -2.902696    1.858859
      8          1           0       -2.173665   -1.679864    2.867675
      9          1           0       -3.490892   -0.060816    1.480706
     10          1           0       -0.979268   -0.893704   -1.898540
     11          1           0        0.346152   -2.515469   -0.522594
     12          7           0       -3.069211    0.545678   -1.081010
     13          8           0       -2.729203    0.699945   -2.252007
     14          8           0       -4.006082    1.123375   -0.534040
     15          6           0        2.033514    0.947057    0.148425
     16          6           0        1.660279    1.913197    1.273262
     17          6           0        0.193439    2.341636    1.222135
     18          1           0        1.822293    1.422023   -0.819428
     19          1           0        1.388931    0.059174    0.208173
     20          1           0        2.306305    2.798376    1.212250
     21          1           0        1.872591    1.435949    2.238547
     22          1           0       -0.465281    1.471194    1.305922
     23          1           0       -0.029103    2.841362    0.273794
     24          1           0       -0.051697    3.032113    2.035160
     25          6           0        3.496725    0.509654    0.186119
     26          6           0        3.869959   -0.456485   -0.938718
     27          6           0        5.336799   -0.884925   -0.887591
     28          1           0        4.141307    1.397538    0.126371
     29          1           0        3.707944    0.034690    1.153972
     30          1           0        3.657647    0.020762   -1.904003
     31          1           0        3.223933   -1.341664   -0.877705
     32          1           0        5.559341   -1.384650    0.060750
     33          1           0        5.995519   -0.014482   -0.971378
     34          1           0        5.581935   -1.575401   -1.700616
 ---------------------------------------------------------------------

 SCF Done:  E(RHF) =  -669.534213511     A.U. after   15 cycles
 E2 =    -0.2095343348D+01 EUMP2 =    -0.67162955685838D+03

 The electronic state is 1-A.
 Alpha  occ. eigenvalues --  -20.60814 -20.60807 -15.85868 -11.31277 -11.27864
 Alpha  occ. eigenvalues --  -11.27848 -11.27634 -11.26914 -11.26882 -11.22084
 Alpha  occ. eigenvalues --  -11.21659 -11.21642 -11.21476 -11.21379 -11.20919
 Alpha  occ. eigenvalues --   -1.59886  -1.39438  -1.19497  -1.08872  -1.08644
 Alpha  occ. eigenvalues --   -1.04906  -1.03731  -0.96156  -0.95688  -0.87176
 Alpha  occ. eigenvalues --   -0.86287  -0.82520  -0.79827  -0.78469  -0.77547
 Alpha  occ. eigenvalues --   -0.72088  -0.71209  -0.70577  -0.65332  -0.65132
 Alpha  occ. eigenvalues --   -0.64869  -0.62232  -0.61159  -0.59551  -0.57785
 Alpha  occ. eigenvalues --   -0.55466  -0.55388  -0.53364  -0.52979  -0.52847
 Alpha  occ. eigenvalues --   -0.52588  -0.50126  -0.48852  -0.48838  -0.48098
 Alpha  occ. eigenvalues --   -0.46860  -0.45964  -0.45819  -0.44830  -0.43968
 Alpha  occ. eigenvalues --   -0.37447  -0.36388
 Alpha virt. eigenvalues --    0.04974   0.11039   0.16398   0.20415   0.22883
 Alpha virt. eigenvalues --    0.23910   0.25433   0.26622   0.27613   0.28263
 Alpha virt. eigenvalues --    0.28954   0.30055   0.31466   0.31592   0.32077

 Mulliken charges:
               1
     1  C   -0.171115
     2  C   -0.216748
     3  C   -0.174916
     4  C    0.162957
     5  C   -0.167582
     6  C   -0.222476
     7  H    0.226423
     8  H    0.224448
     9  H    0.276601
    10  H    0.276885
    11  H    0.226647
    12  N    0.488464
    13  O   -0.460384
    14  O   -0.459912
    15  C   -0.308669
    16  C   -0.297604
    17  C   -0.483264
    18  H    0.150671
    19  H    0.156374
    20  H    0.152332
    21  H    0.147900
    22  H    0.158877
    23  H    0.159500
    24  H    0.159688
    25  C   -0.297387
    26  C   -0.298593
    27  C   -0.475549
    28  H    0.151501
    29  H    0.146859
    30  H    0.154527
    31  H    0.141206
    32  H    0.154211
    33  H    0.157952
    34  H    0.160175
 Sum of Mulliken charges =  -0.00000

 Dipole moment (field-independent basis, Debye):
    X=              2.6225    Y=             -3.3795    Z=              2.8338  Tot=              5.1311
 Quadrupole moment (field-independent basis, Debye-Ang):
   XX=           -107.1424   YY=            -91.9984   ZZ=            -93.1397
   XY=              6.7101   XZ=            -10.2106   YZ=             -0.1420

 Normal termination of Gaussian 16 at Wed May  5 23:43:38 2021.
