 Gaussian 16, Revision A.03,
 Gaussian 16:  EM64L-G16RevA.03 25-Dec-2016

 -------------
 #p 6-31g* mp2
 -------------

 ------------------------------------------------------
 Input file generated by CHIRIPA (05-May-2021 14:51:12)
 ------------------------------------------------------
 Symbolic Z-matrix:
 Charge =  0 Multiplicity = 1

                         Standard orientation:
 ---------------------------------------------------------------------
 Center     Atomic      Atomic             Coordinates (Angstroms)
 Number     Number       Type             X           Y           Z
 ---------------------------------------------------------------------
      1          6           0       -3.584378    0.141170   -0.690070
      2          6           0       -4.688480   -0.728927   -0.088511
      3          6           0       -5.451465   -1.529531   -1.144296
      4          1           0       -4.026845    0.828194   -1.424349
      5          1           0       -2.883430   -0.498858   -1.243634
      6          1           0       -5.386374   -0.087614    0.464912
      7          1           0       -4.243359   -1.413828    0.644561
      8          1           0       -4.772487   -2.192732   -1.689964
      9          1           0       -5.921995   -0.858982   -1.870633
     10          1           0       -6.236002   -2.144483   -0.692415
     11          6           0       -2.812638    0.947586    0.352925
     12          6           0       -1.708536    1.817684   -0.248635
     13          6           0       -0.945551    2.618287    0.807150
     14          1           0       -3.513586    1.587614    0.906488
     15          1           0       -2.370171    0.260563    1.087204
     16          1           0       -2.153657    2.502584   -0.981706
     17          1           0       -1.010642    1.176370   -0.802058
     18          1           0       -0.475021    1.947739    1.533488
     19          1           0       -1.624529    3.281489    1.352819
     20          1           0       -0.161014    3.233239    0.355270
     21          6           0        3.884310   -0.722781   -0.116524
     22          6           0        4.643905    0.483808   -0.668919
     23          6           0        6.014094    0.110857   -1.235740
     24          1           0        4.488571   -1.201463    0.666215
     25          1           0        3.761401   -1.467046   -0.915496
     26          1           0        4.764134    1.226170    0.130494
     27          1           0        4.037683    0.959786   -1.450301
     28          1           0        5.909823   -0.612002   -2.051339
     29          1           0        6.640402   -0.344105   -0.461564
     30          1           0        6.539800    0.988256   -1.625181
     31          6           0        2.512706   -0.365975    0.453669
     32          6           0        1.753111   -1.572565    1.006065
     33          6           0        0.382923   -1.199614    1.572885
     34          1           0        2.635615    0.378289    1.252642
     35          1           0        1.908445    0.112706   -0.329069
     36          1           0        2.359333   -2.048542    1.787446
     37          1           0        1.632882   -2.314926    0.206652
     38          1           0       -0.243385   -0.744652    0.798709
     39          1           0        0.487193   -0.476755    2.388485
     40          1           0       -0.142784   -2.077012    1.962326
 ---------------------------------------------------------------------

 SCF Done:  E(RHF) =  -470.732561405     A.U. after   11 cycles
 E2 =    -0.1584210305D+01 EUMP2 =    -0.47231677170928D+03

 The electronic state is 1-A.
 Alpha  occ. eigenvalues --  -11.21663 -11.21618 -11.21574 -11.21571 -11.21441
 Alpha  occ. eigenvalues --  -11.21381 -11.21360 -11.21269 -11.21141 -11.21084
 Alpha  occ. eigenvalues --  -11.21051 -11.20968  -1.08483  -1.08384  -1.03605
 Alpha  occ. eigenvalues --   -1.03466  -0.96034  -0.95931  -0.87066  -0.86942
 Alpha  occ. eigenvalues --   -0.79670  -0.79541  -0.78293  -0.78191  -0.65237
 Alpha  occ. eigenvalues --   -0.64951  -0.61117  -0.60801  -0.59383  -0.59305
 Alpha  occ. eigenvalues --   -0.57640  -0.57519  -0.55412  -0.55133  -0.52732
 Alpha  occ. eigenvalues --   -0.52630  -0.52460  -0.52349  -0.50134  -0.49716
 Alpha  occ. eigenvalues --   -0.48103  -0.47756  -0.46717  -0.46548  -0.45942
 Alpha  occ. eigenvalues --   -0.45779  -0.45637  -0.45489  -0.43826  -0.43739
 Alpha virt. eigenvalues --    0.20324   0.23028   0.23690   0.24969   0.25320
 Alpha virt. eigenvalues --    0.26177   0.26839   0.27694   0.28307   0.29299
 Alpha virt. eigenvalues --    0.30632   0.31243   0.31761   0.31796   0.32282

 Mulliken charges:
               1
     1  C   -0.298244
     2  C   -0.299601
     3  C   -0.475677
     4  H    0.149629
     5  H    0.148537
     6  H    0.151933
     7  H    0.152301
     8  H    0.155021
     9  H    0.155081
    10  H    0.160173
    11  C   -0.304629
    12  C   -0.301924
    13  C   -0.478608
    14  H    0.149882
    15  H    0.156414
    16  H    0.152529
    17  H    0.150888
    18  H    0.159882
    19  H    0.154506
    20  H    0.159807
    21  C   -0.298325
    22  C   -0.299688
    23  C   -0.475739
    24  H    0.149815
    25  H    0.149498
    26  H    0.152148
    27  H    0.152027
    28  H    0.155179
    29  H    0.155204
    30  H    0.160365
    31  C   -0.300025
    32  C   -0.300024
    33  C   -0.483399
    34  H    0.150171
    35  H    0.150979
    36  H    0.152176
    37  H    0.151817
    38  H    0.163601
    39  H    0.156180
    40  H    0.160138
 Sum of Mulliken charges =  -0.00000

 Dipole moment (field-independent basis, Debye):
    X=              0.0264    Y=             -0.0153    Z=              0.0297  Tot=              0.0426
 Quadrupole moment (field-independent basis, Debye-Ang):
   XX=            -85.6300   YY=            -84.6774   ZZ=            -84.5293
   XY=             -0.7156   XZ=              0.4609   YZ=             -0.3927

 Normal termination of Gaussian 16 at Thu May  6 03:55:11 2021.
