 Gaussian 16, Revision A.03,
 Gaussian 16:  EM64L-G16RevA.03 25-Dec-2016

 -------------
 #p 6-31g* mp2
 -------------

 ------------------------------------------------------
 Input file generated by CHIRIPA (05-May-2021 14:53:15)
 ------------------------------------------------------
 Symbolic Z-matrix:
 Charge =  0 Multiplicity = 1

                         Standard orientation:
 ---------------------------------------------------------------------
 Center     Atomic      Atomic             Coordinates (Angstroms)
 Number     Number       Type             X           Y           Z
 ---------------------------------------------------------------------
      1          6           0        4.085333   -0.669398    0.449326
      2          6           0        2.610377   -0.318388    0.251136
      3          6           0        1.672853   -1.245974    1.024717
      4          1           0        4.253814   -1.708526    0.135044
      5          1           0        4.325065   -0.624107    1.520714
      6          1           0        2.373839   -0.362979   -0.819694
      7          1           0        2.445426    0.720086    0.565747
      8          1           0        1.880255   -1.195101    2.098494
      9          1           0        1.808262   -2.284320    0.705182
     10          1           0        0.623442   -0.977128    0.868772
     11          6           0        5.034998    0.249027   -0.317721
     12          6           0        6.509954   -0.101984   -0.119532
     13          6           0        7.447478    0.825602   -0.893113
     14          1           0        4.795266    0.203736   -1.389109
     15          1           0        4.866517    1.288155   -0.003439
     16          1           0        6.674905   -1.140458   -0.434142
     17          1           0        6.746492   -0.057393    0.951298
     18          1           0        7.312070    1.863948   -0.573577
     19          1           0        7.240076    0.774730   -1.966890
     20          1           0        8.496889    0.556757   -0.737168
     21          6           0       -4.048207   -2.281875   -0.434578
     22          6           0       -2.850260   -1.892956    0.173852
     23          6           0       -2.570674   -0.540489    0.391136
     24          6           0       -3.515686    0.400686   -0.014365
     25          6           0       -4.718202    0.044692   -0.623062
     26          6           0       -4.976717   -1.313516   -0.830395
     27          1           0       -4.257212   -3.334734   -0.599504
     28          1           0       -2.127325   -2.642810    0.482279
     29          1           0       -1.651180   -0.211611    0.859953
     30          1           0       -5.419452    0.815208   -0.919664
     31          1           0       -5.907888   -1.612643   -1.303143
     32          7           0       -3.230853    1.835521    0.210397
     33          8           0       -4.079795    2.645260   -0.156014
     34          8           0       -2.164052    2.123238    0.748721
 ---------------------------------------------------------------------

 SCF Done:  E(RHF) =  -669.535506604     A.U. after   15 cycles
 E2 =    -0.2090945286D+01 EUMP2 =    -0.67162645189024D+03

 The electronic state is 1-A.
 Alpha  occ. eigenvalues --  -20.60754 -20.60749 -15.85806 -11.31166 -11.27737
 Alpha  occ. eigenvalues --  -11.27722 -11.27479 -11.26757 -11.26736 -11.21758
 Alpha  occ. eigenvalues --  -11.21610 -11.21595 -11.21496 -11.21383 -11.21045
 Alpha  occ. eigenvalues --   -1.59828  -1.39382  -1.19340  -1.08736  -1.08519
 Alpha  occ. eigenvalues --   -1.04745  -1.03667  -0.96150  -0.95572  -0.87174
 Alpha  occ. eigenvalues --   -0.86141  -0.82404  -0.79723  -0.78306  -0.77453
 Alpha  occ. eigenvalues --   -0.72026  -0.71151  -0.70462  -0.65141  -0.64994
 Alpha  occ. eigenvalues --   -0.64751  -0.62146  -0.61053  -0.59516  -0.57741
 Alpha  occ. eigenvalues --   -0.55426  -0.55250  -0.53091  -0.52994  -0.52735
 Alpha  occ. eigenvalues --   -0.52518  -0.50071  -0.48783  -0.48780  -0.48041
 Alpha  occ. eigenvalues --   -0.46728  -0.45859  -0.45764  -0.44788  -0.43928
 Alpha  occ. eigenvalues --   -0.37322  -0.36343
 Alpha virt. eigenvalues --    0.05071   0.11299   0.16559   0.20165   0.22863
 Alpha virt. eigenvalues --    0.23869   0.25965   0.26598   0.27390   0.27961
 Alpha virt. eigenvalues --    0.28860   0.30609   0.31293   0.31544   0.32035

 Mulliken charges:
               1
     1  C   -0.299119
     2  C   -0.299370
     3  C   -0.479692
     4  H    0.148160
     5  H    0.150212
     6  H    0.152768
     7  H    0.160105
     8  H    0.158950
     9  H    0.153216
    10  H    0.152015
    11  C   -0.298777
    12  C   -0.299767
    13  C   -0.475857
    14  H    0.149853
    15  H    0.152351
    16  H    0.151083
    17  H    0.152163
    18  H    0.156352
    19  H    0.155256
    20  H    0.160148
    21  C   -0.170881
    22  C   -0.220714
    23  C   -0.180103
    24  C    0.160809
    25  C   -0.170607
    26  C   -0.218717
    27  H    0.225561
    28  H    0.224678
    29  H    0.284206
    30  H    0.275529
    31  H    0.223408
    32  N    0.487583
    33  O   -0.460472
    34  O   -0.460331
 Sum of Mulliken charges =  -0.00000

 Dipole moment (field-independent basis, Debye):
    X=             -0.9001    Y=             -5.0009    Z=             -0.7971  Tot=              5.1434
 Quadrupole moment (field-independent basis, Debye-Ang):
   XX=            -84.2720   YY=            -99.1343   ZZ=            -94.2166
   XY=             16.1569   XZ=              5.4826   YZ=              0.0515

 Normal termination of Gaussian 16 at Thu May  6 01:06:28 2021.
