 Gaussian 16, Revision A.03,
 Gaussian 16:  EM64L-G16RevA.03 25-Dec-2016

 -------------
 #p 6-31g* mp2
 -------------

 ------------------------------------------------------
 Input file generated by CHIRIPA (05-May-2021 14:53:17)
 ------------------------------------------------------
 Symbolic Z-matrix:
 Charge =  0 Multiplicity = 1

                         Standard orientation:
 ---------------------------------------------------------------------
 Center     Atomic      Atomic             Coordinates (Angstroms)
 Number     Number       Type             X           Y           Z
 ---------------------------------------------------------------------
      1          6           0       -3.275242    0.762936   -0.225098
      2          6           0       -3.477124    2.181979    0.307391
      3          6           0       -2.510743    3.190073   -0.315222
      4          1           0       -2.240451    0.449082   -0.031068
      5          1           0       -3.401174    0.767017   -1.316665
      6          1           0       -3.352214    2.174968    1.397788
      7          1           0       -4.511610    2.492420    0.112243
      8          1           0       -2.639369    3.226561   -1.401833
      9          1           0       -1.473386    2.907306   -0.108984
     10          1           0       -2.672556    4.197941    0.079595
     11          6           0       -4.233996   -0.256260    0.387894
     12          6           0       -4.032113   -1.675303   -0.144595
     13          6           0       -4.998495   -2.683397    0.478018
     14          1           0       -4.108064   -0.260341    1.479461
     15          1           0       -5.268787    0.057594    0.193864
     16          1           0       -2.997628   -1.985744    0.050553
     17          1           0       -4.157024   -1.668292   -1.234992
     18          1           0       -6.035852   -2.400630    0.271780
     19          1           0       -4.869869   -2.719885    1.564629
     20          1           0       -4.836682   -3.691265    0.083201
     21          6           0        5.404196   -0.053732    0.426090
     22          6           0        4.607228    1.093192    0.503080
     23          6           0        3.237035    1.025061    0.233863
     24          6           0        2.694419   -0.211860   -0.110933
     25          6           0        3.462132   -1.372317   -0.196048
     26          6           0        4.830116   -1.280664    0.077386
     27          1           0        6.467737    0.008330    0.636862
     28          1           0        5.050350    2.047383    0.773645
     29          1           0        2.596820    1.897311    0.286048
     30          1           0        2.991799   -2.309372   -0.468321
     31          1           0        5.446617   -2.173021    0.016817
     32          7           0        1.245026   -0.296439   -0.398173
     33          8           0        0.791132   -1.398097   -0.699778
     34          8           0        0.590330    0.740529   -0.316267
 ---------------------------------------------------------------------

 SCF Done:  E(RHF) =  -669.536684458     A.U. after   15 cycles
 E2 =    -0.2091866622D+01 EUMP2 =    -0.67162855108062D+03

 The electronic state is 1-A.
 Alpha  occ. eigenvalues --  -20.61148 -20.61139 -15.86154 -11.31408 -11.27959
 Alpha  occ. eigenvalues --  -11.27955 -11.27684 -11.26949 -11.26940 -11.20236
 Alpha  occ. eigenvalues --  -11.20190 -11.20030 -11.19986 -11.19625 -11.19516
 Alpha  occ. eigenvalues --   -1.60187  -1.39747  -1.19566  -1.08984  -1.06942
 Alpha  occ. eigenvalues --   -1.04951  -1.02165  -0.95836  -0.94617  -0.86355
 Alpha  occ. eigenvalues --   -0.85639  -0.82675  -0.78232  -0.77734  -0.76702
 Alpha  occ. eigenvalues --   -0.72370  -0.71492  -0.70674  -0.65224  -0.64954
 Alpha  occ. eigenvalues --   -0.63576  -0.62298  -0.59569  -0.57994  -0.56222
 Alpha  occ. eigenvalues --   -0.55459  -0.53905  -0.53287  -0.53041  -0.51380
 Alpha  occ. eigenvalues --   -0.51040  -0.49206  -0.49130  -0.48518  -0.46538
 Alpha  occ. eigenvalues --   -0.45274  -0.45153  -0.44290  -0.44008  -0.42380
 Alpha  occ. eigenvalues --   -0.37541  -0.36548
 Alpha virt. eigenvalues --    0.04786   0.11108   0.16298   0.21208   0.24308
 Alpha virt. eigenvalues --    0.25561   0.27155   0.27793   0.28272   0.29172
 Alpha virt. eigenvalues --    0.29327   0.30825   0.32054   0.32801   0.33007

 Mulliken charges:
               1
     1  C   -0.309044
     2  C   -0.296968
     3  C   -0.479969
     4  H    0.180084
     5  H    0.145061
     6  H    0.146500
     7  H    0.144777
     8  H    0.151673
     9  H    0.171332
    10  H    0.150146
    11  C   -0.297147
    12  C   -0.300519
    13  C   -0.474794
    14  H    0.144707
    15  H    0.143103
    16  H    0.162254
    17  H    0.150223
    18  H    0.151579
    19  H    0.152125
    20  H    0.157164
    21  C   -0.170337
    22  C   -0.218548
    23  C   -0.170416
    24  C    0.157263
    25  C   -0.170434
    26  C   -0.218615
    27  H    0.226441
    28  H    0.224320
    29  H    0.275863
    30  H    0.276105
    31  H    0.224225
    32  N    0.493656
    33  O   -0.458160
    34  O   -0.463652
 Sum of Mulliken charges =  -0.00000

 Dipole moment (field-independent basis, Debye):
    X=              5.6709    Y=              0.1788    Z=              0.9532  Tot=              5.7533
 Quadrupole moment (field-independent basis, Debye-Ang):
   XX=            -69.6391   YY=            -91.6656   ZZ=            -95.4425
   XY=             -1.1394   XZ=              3.1439   YZ=              0.9962

 Normal termination of Gaussian 16 at Thu May  6 20:30:33 2021.
