 Gaussian 16, Revision A.03,
 Gaussian 16:  EM64L-G16RevA.03 25-Dec-2016

 -------------
 #p 6-31g* mp2
 -------------

 ------------------------------------------------------
 Input file generated by CHIRIPA (05-May-2021 14:51:12)
 ------------------------------------------------------
 Symbolic Z-matrix:
 Charge =  0 Multiplicity = 1

                         Standard orientation:
 ---------------------------------------------------------------------
 Center     Atomic      Atomic             Coordinates (Angstroms)
 Number     Number       Type             X           Y           Z
 ---------------------------------------------------------------------
      1          6           0        4.000930   -0.127724   -0.314739
      2          6           0        5.273367   -0.146540    0.532925
      3          6           0        6.383427    0.730133   -0.047596
      4          1           0        4.241097   -0.463928   -1.332693
      5          1           0        3.643221    0.907423   -0.403681
      6          1           0        5.627797   -1.181513    0.621395
      7          1           0        5.030105    0.189565    1.549032
      8          1           0        6.053597    1.771544   -0.120244
      9          1           0        6.654686    0.392676   -1.053152
     10          1           0        7.283746    0.701991    0.574090
     11          6           0        2.882038   -0.999399    0.252705
     12          6           0        1.609601   -0.980583   -0.594959
     13          6           0        0.499541   -1.857256   -0.014438
     14          1           0        3.239747   -2.034546    0.341647
     15          1           0        2.641871   -0.663195    1.270659
     16          1           0        1.852862   -1.316688   -1.611066
     17          1           0        1.255170    0.054389   -0.683430
     18          1           0        0.228282   -1.519799    0.991117
     19          1           0        0.829370   -2.898667    0.058210
     20          1           0       -0.400778   -1.829114   -0.636125
     21          6           0       -4.040899    0.260972   -0.333089
     22          6           0       -5.059931   -0.382962    0.607607
     23          6           0       -6.253348   -0.983884   -0.135658
     24          1           0       -4.538751    1.042727   -0.922960
     25          1           0       -3.686092   -0.492880   -1.049478
     26          1           0       -5.411679    0.371534    1.322886
     27          1           0       -4.559551   -1.163143    1.195444
     28          1           0       -5.921239   -1.756177   -0.836990
     29          1           0       -6.778210   -0.212780   -0.708824
     30          1           0       -6.969314   -1.438852    0.555903
     31          6           0       -2.842069    0.866151    0.395123
     32          6           0       -1.823036    1.510084   -0.545572
     33          6           0       -0.629619    2.111007    0.197692
     34          1           0       -3.196875    1.620003    1.111513
     35          1           0       -2.344216    0.084396    0.984994
     36          1           0       -2.323416    2.290266   -1.133410
     37          1           0       -1.471288    0.755589   -1.260852
     38          1           0       -0.104757    1.339903    0.770858
     39          1           0       -0.961728    2.883300    0.899025
     40          1           0        0.086347    2.565975   -0.493869
 ---------------------------------------------------------------------

 SCF Done:  E(RHF) =  -470.732607052     A.U. after   11 cycles
 E2 =    -0.1584150321D+01 EUMP2 =    -0.47231675737283D+03

 The electronic state is 1-A.
 Alpha  occ. eigenvalues --  -11.21611 -11.21592 -11.21590 -11.21536 -11.21399
 Alpha  occ. eigenvalues --  -11.21394 -11.21340 -11.21332 -11.21140 -11.21103
 Alpha  occ. eigenvalues --  -11.21062 -11.21061  -1.08465  -1.08390  -1.03621
 Alpha  occ. eigenvalues --   -1.03457  -0.96034  -0.95956  -0.87060  -0.86964
 Alpha  occ. eigenvalues --   -0.79634  -0.79565  -0.78250  -0.78227  -0.65297
 Alpha  occ. eigenvalues --   -0.64889  -0.61359  -0.60563  -0.59405  -0.59284
 Alpha  occ. eigenvalues --   -0.57631  -0.57558  -0.55433  -0.55114  -0.52725
 Alpha  occ. eigenvalues --   -0.52659  -0.52431  -0.52404  -0.50098  -0.49804
 Alpha  occ. eigenvalues --   -0.47936  -0.47882  -0.46672  -0.46545  -0.45828
 Alpha  occ. eigenvalues --   -0.45754  -0.45660  -0.45650  -0.43788  -0.43782
 Alpha virt. eigenvalues --    0.19785   0.22775   0.23803   0.25060   0.25618
 Alpha virt. eigenvalues --    0.26197   0.26470   0.27724   0.28667   0.29366
 Alpha virt. eigenvalues --    0.30498   0.31281   0.31819   0.32001   0.32526

 Mulliken charges:
               1
     1  C   -0.298371
     2  C   -0.299662
     3  C   -0.475731
     4  H    0.149581
     5  H    0.149902
     6  H    0.151850
     7  H    0.152044
     8  H    0.155274
     9  H    0.155109
    10  H    0.160232
    11  C   -0.298209
    12  C   -0.309053
    13  C   -0.478197
    14  H    0.149484
    15  H    0.149198
    16  H    0.151716
    17  H    0.163472
    18  H    0.154933
    19  H    0.155759
    20  H    0.160842
    21  C   -0.298400
    22  C   -0.299735
    23  C   -0.475708
    24  H    0.149603
    25  H    0.149172
    26  H    0.151846
    27  H    0.152331
    28  H    0.155210
    29  H    0.155097
    30  H    0.160256
    31  C   -0.300378
    32  C   -0.301800
    33  C   -0.480661
    34  H    0.149259
    35  H    0.152570
    36  H    0.152182
    37  H    0.154687
    38  H    0.158578
    39  H    0.156207
    40  H    0.159509
 Sum of Mulliken charges =  -0.00000

 Dipole moment (field-independent basis, Debye):
    X=             -0.0002    Y=              0.0110    Z=             -0.0004  Tot=              0.0110
 Quadrupole moment (field-independent basis, Debye-Ang):
   XX=            -86.1401   YY=            -83.9782   ZZ=            -84.7516
   XY=             -1.6553   XZ=             -0.3364   YZ=              0.4775

 Normal termination of Gaussian 16 at Wed May  5 18:18:18 2021.
