 Gaussian 16, Revision A.03,
 Gaussian 16:  EM64L-G16RevA.03 25-Dec-2016

 -------------
 #p 6-31g* mp2
 -------------

 ------------------------------------------------------
 Input file generated by CHIRIPA (05-May-2021 14:55:25)
 ------------------------------------------------------
 Symbolic Z-matrix:
 Charge =  0 Multiplicity = 1

                         Standard orientation:
 ---------------------------------------------------------------------
 Center     Atomic      Atomic             Coordinates (Angstroms)
 Number     Number       Type             X           Y           Z
 ---------------------------------------------------------------------
      1          6           0        5.377999    0.446498    0.188792
      2          6           0        4.420967    0.907462    1.098804
      3          6           0        3.102577    0.446376    1.037194
      4          6           0        2.774420   -0.479746    0.048305
      5          6           0        3.705240   -0.957978   -0.872650
      6          6           0        5.017717   -0.483112   -0.792301
      7          1           0        6.399859    0.810032    0.243931
      8          1           0        4.697918    1.629403    1.861788
      9          1           0        2.341649    0.786509    1.729087
     10          1           0        3.399143   -1.677713   -1.622119
     11          1           0        5.758862   -0.842857   -1.500349
     12          7           0        1.381830   -0.975171   -0.026838
     13          8           0        1.118067   -1.791028   -0.907431
     14          8           0        0.580449   -0.538248    0.796281
     15          6           0       -3.675348    1.190364   -0.379584
     16          6           0       -2.243766    1.642487   -0.089509
     17          6           0       -1.919362    3.006239   -0.700031
     18          1           0       -3.827964    1.152592   -1.466886
     19          1           0       -4.375821    1.942818    0.008416
     20          1           0       -1.546240    0.888735   -0.476714
     21          1           0       -2.094482    1.679002    0.997228
     22          1           0       -2.591893    3.774764   -0.305477
     23          1           0       -2.040535    2.980006   -1.787794
     24          1           0       -0.891089    3.310047   -0.480447
     25          6           0       -4.014727   -0.171243    0.224219
     26          6           0       -5.446309   -0.623366   -0.065857
     27          6           0       -5.770714   -1.987118    0.544666
     28          1           0       -3.314254   -0.923697   -0.163782
     29          1           0       -3.862111   -0.133472    1.311521
     30          1           0       -5.595593   -0.659881   -1.152594
     31          1           0       -6.143836    0.130386    0.321349
     32          1           0       -5.649541   -1.960885    1.632430
     33          1           0       -5.098183   -2.755643    0.150112
     34          1           0       -6.798986   -2.290925    0.325082
 ---------------------------------------------------------------------

 SCF Done:  E(RHF) =  -669.535997973     A.U. after   15 cycles
 E2 =    -0.2091157282D+01 EUMP2 =    -0.67162715525528D+03

 The electronic state is 1-A.
 Alpha  occ. eigenvalues --  -20.60967 -20.60938 -15.85977 -11.31299 -11.27861
 Alpha  occ. eigenvalues --  -11.27857 -11.27598 -11.26867 -11.26858 -11.20644
 Alpha  occ. eigenvalues --  -11.20279 -11.20222 -11.20201 -11.20168 -11.20138
 Alpha  occ. eigenvalues --   -1.60017  -1.39571  -1.19467  -1.08872  -1.07295
 Alpha  occ. eigenvalues --   -1.04862  -1.02484  -0.95714  -0.94980  -0.86263
 Alpha  occ. eigenvalues --   -0.85997  -0.82548  -0.78517  -0.77602  -0.77059
 Alpha  occ. eigenvalues --   -0.72194  -0.71330  -0.70575  -0.65121  -0.64865
 Alpha  occ. eigenvalues --   -0.63930  -0.62209  -0.59888  -0.58343  -0.56573
 Alpha  occ. eigenvalues --   -0.55367  -0.54282  -0.53195  -0.52954  -0.51711
 Alpha  occ. eigenvalues --   -0.51396  -0.49032  -0.48961  -0.48884  -0.46852
 Alpha  occ. eigenvalues --   -0.45577  -0.45043  -0.44609  -0.44351  -0.42724
 Alpha  occ. eigenvalues --   -0.37444  -0.36463
 Alpha virt. eigenvalues --    0.04904   0.11192   0.16395   0.21321   0.23947
 Alpha virt. eigenvalues --    0.25232   0.27241   0.27809   0.28105   0.28762
 Alpha virt. eigenvalues --    0.28992   0.30898   0.32281   0.32387   0.32796

 Mulliken charges:
               1
     1  C   -0.170555
     2  C   -0.218547
     3  C   -0.170797
     4  C    0.158373
     5  C   -0.170799
     6  C   -0.218562
     7  H    0.226032
     8  H    0.223887
     9  H    0.275971
    10  H    0.275765
    11  H    0.223821
    12  N    0.487634
    13  O   -0.460270
    14  O   -0.458003
    15  C   -0.298354
    16  C   -0.301686
    17  C   -0.475313
    18  H    0.146204
    19  H    0.143548
    20  H    0.170750
    21  H    0.151158
    22  H    0.150641
    23  H    0.152182
    24  H    0.154067
    25  C   -0.298867
    26  C   -0.298980
    27  C   -0.475144
    28  H    0.161052
    29  H    0.149065
    30  H    0.149846
    31  H    0.148093
    32  H    0.154050
    33  H    0.157394
    34  H    0.156341
 Sum of Mulliken charges =  -0.00000

 Dipole moment (field-independent basis, Debye):
    X=              5.2053    Y=              1.5611    Z=              0.3035  Tot=              5.4428
 Quadrupole moment (field-independent basis, Debye-Ang):
   XX=            -69.0303   YY=            -96.8083   ZZ=            -91.4945
   XY=              1.6728   XZ=             -0.3194   YZ=              3.5623

 Normal termination of Gaussian 16 at Wed May  5 19:13:28 2021.
