 Gaussian 16, Revision A.03,
 Gaussian 16:  EM64L-G16RevA.03 25-Dec-2016

 -------------
 #p 6-31g* mp2
 -------------

 ------------------------------------------------------
 Input file generated by CHIRIPA (05-May-2021 14:55:21)
 ------------------------------------------------------
 Symbolic Z-matrix:
 Charge =  0 Multiplicity = 1

                         Standard orientation:
 ---------------------------------------------------------------------
 Center     Atomic      Atomic             Coordinates (Angstroms)
 Number     Number       Type             X           Y           Z
 ---------------------------------------------------------------------
      1          6           0       -2.951605    1.575898    0.850532
      2          6           0       -2.110211    0.867794    1.714920
      3          6           0       -1.576027   -0.366392    1.332847
      4          6           0       -1.905631   -0.865096    0.073504
      5          6           0       -2.741022   -0.183443   -0.810103
      6          6           0       -3.263775    1.048948   -0.407003
      7          1           0       -3.362132    2.533946    1.155502
      8          1           0       -1.866057    1.274597    2.692133
      9          1           0       -0.922080   -0.935625    1.982266
     10          1           0       -2.966298   -0.614603   -1.777971
     11          1           0       -3.916944    1.596665   -1.080370
     12          7           0       -1.346165   -2.170724   -0.342110
     13          8           0       -1.651835   -2.588437   -1.456883
     14          8           0       -0.612580   -2.751640    0.454775
     15          6           0        1.816921    1.019085   -0.199873
     16          6           0        1.563217    2.441542   -0.700111
     17          6           0        0.077463    2.801259   -0.730649
     18          1           0        1.279550    0.309467   -0.843782
     19          1           0        1.391724    0.910851    0.807544
     20          1           0        1.989981    2.547472   -1.705728
     21          1           0        2.101411    3.147843   -0.055051
     22          1           0       -0.358378    2.723541    0.270652
     23          1           0       -0.470440    2.119760   -1.389405
     24          1           0       -0.081050    3.822357   -1.091333
     25          6           0        3.297544    0.644692   -0.163651
     26          6           0        3.551247   -0.777764    0.336586
     27          6           0        5.037001   -1.137481    0.367124
     28          1           0        3.722741    0.752927   -1.171067
     29          1           0        3.834915    1.354311    0.480259
     30          1           0        3.013054   -1.484065   -0.308474
     31          1           0        3.124483   -0.883694    1.342204
     32          1           0        5.584905   -0.455981    1.025881
     33          1           0        5.472843   -1.059764   -0.634176
     34          1           0        5.195515   -2.158579    0.727810
 ---------------------------------------------------------------------

 SCF Done:  E(RHF) =  -669.533799087     A.U. after   15 cycles
 E2 =    -0.2095444435D+01 EUMP2 =    -0.67162924352267D+03

 The electronic state is 1-A.
 Alpha  occ. eigenvalues --  -20.60822 -20.60809 -15.85870 -11.31236 -11.27819
 Alpha  occ. eigenvalues --  -11.27812 -11.27513 -11.26792 -11.26782 -11.21575
 Alpha  occ. eigenvalues --  -11.21292 -11.21187 -11.21126 -11.21027 -11.20699
 Alpha  occ. eigenvalues --   -1.59892  -1.39445  -1.19416  -1.08809  -1.08254
 Alpha  occ. eigenvalues --   -1.04821  -1.03334  -0.95826  -0.95628  -0.86837
 Alpha  occ. eigenvalues --   -0.86215  -0.82473  -0.79418  -0.78063  -0.77517
 Alpha  occ. eigenvalues --   -0.72087  -0.71213  -0.70518  -0.65066  -0.64899
 Alpha  occ. eigenvalues --   -0.64816  -0.62166  -0.60746  -0.59206  -0.57464
 Alpha  occ. eigenvalues --   -0.55313  -0.55126  -0.53442  -0.52908  -0.52501
 Alpha  occ. eigenvalues --   -0.52012  -0.49783  -0.48848  -0.48842  -0.47606
 Alpha  occ. eigenvalues --   -0.46482  -0.45557  -0.45526  -0.44827  -0.43608
 Alpha  occ. eigenvalues --   -0.37273  -0.36347
 Alpha virt. eigenvalues --    0.04971   0.11127   0.16429   0.21137   0.23041
 Alpha virt. eigenvalues --    0.24476   0.26199   0.27013   0.27644   0.28071
 Alpha virt. eigenvalues --    0.28787   0.30941   0.31613   0.31773   0.32202

 Mulliken charges:
               1
     1  C   -0.166758
     2  C   -0.220899
     3  C   -0.166536
     4  C    0.160272
     5  C   -0.173117
     6  C   -0.215183
     7  H    0.226263
     8  H    0.223382
     9  H    0.275754
    10  H    0.275755
    11  H    0.223880
    12  N    0.487792
    13  O   -0.460978
    14  O   -0.459825
    15  C   -0.296725
    16  C   -0.299449
    17  C   -0.478244
    18  H    0.150672
    19  H    0.144140
    20  H    0.152213
    21  H    0.149422
    22  H    0.154144
    23  H    0.156498
    24  H    0.154515
    25  C   -0.298555
    26  C   -0.300161
    27  C   -0.475946
    28  H    0.149870
    29  H    0.146971
    30  H    0.161622
    31  H    0.149857
    32  H    0.152200
    33  H    0.154770
    34  H    0.162385
 Sum of Mulliken charges =  -0.00000

 Dipole moment (field-independent basis, Debye):
    X=             -2.0923    Y=              4.4481    Z=              1.4713  Tot=              5.1311
 Quadrupole moment (field-independent basis, Debye-Ang):
   XX=            -87.7144   YY=           -103.8672   ZZ=            -90.0087
   XY=             -7.4049   XZ=             -0.7043   YZ=             -0.8098

 Normal termination of Gaussian 16 at Wed May  5 22:15:54 2021.
