 Gaussian 16, Revision A.03,
 Gaussian 16:  EM64L-G16RevA.03 25-Dec-2016

 -------------
 #p 6-31g* mp2
 -------------

 ------------------------------------------------------
 Input file generated by CHIRIPA (05-May-2021 14:57:26)
 ------------------------------------------------------
 Symbolic Z-matrix:
 Charge =  0 Multiplicity = 1

                         Standard orientation:
 ---------------------------------------------------------------------
 Center     Atomic      Atomic             Coordinates (Angstroms)
 Number     Number       Type             X           Y           Z
 ---------------------------------------------------------------------
      1          6           0        3.015086    2.502319    0.697206
      2          6           0        4.249761    2.307399    0.069428
      3          6           0        4.655602    1.026467   -0.316648
      4          6           0        3.798020   -0.041773   -0.058374
      5          6           0        2.561844    0.120199    0.565266
      6          6           0        2.176547    1.410023    0.942688
      7          1           0        2.707798    3.500832    0.993757
      8          1           0        4.903028    3.153837   -0.122484
      9          1           0        5.606118    0.847125   -0.804269
     10          1           0        1.932198   -0.743104    0.743227
     11          1           0        1.217124    1.558420    1.430060
     12          7           0        4.216791   -1.402545   -0.462514
     13          8           0        3.443055   -2.327175   -0.223707
     14          8           0        5.310831   -1.518722   -1.010435
     15          6           0       -1.686558   -1.502573    0.663890
     16          6           0       -2.957738   -2.075917    0.772956
     17          6           0       -4.096407   -1.353794    0.403471
     18          6           0       -3.926457   -0.054879   -0.073212
     19          6           0       -2.673389    0.543994   -0.193465
     20          6           0       -1.548682   -0.196750    0.181878
     21          1           0       -0.807435   -2.070769    0.953190
     22          1           0       -3.067828   -3.089842    1.146964
     23          1           0       -5.092374   -1.773272    0.477682
     24          1           0       -2.595400    1.556781   -0.569762
     25          1           0       -0.562709    0.251073    0.096104
     26          7           0       -5.124524    0.719457   -0.467470
     27          8           0       -4.947988    1.862067   -0.884500
     28          8           0       -6.217419    0.169109   -0.351994
 ---------------------------------------------------------------------

 SCF Done:  E(RHF) =  -868.337136911     A.U. after   16 cycles
 E2 =    -0.2600548540D+01 EUMP2 =    -0.87093768545098D+03

 The electronic state is 1-A.
 Alpha  occ. eigenvalues --  -20.61587 -20.61561 -20.61036 -20.61025 -15.86636
 Alpha  occ. eigenvalues --  -15.86090 -11.32096 -11.31502 -11.28799 -11.28614
 Alpha  occ. eigenvalues --  -11.28370 -11.28136 -11.28058 -11.27847 -11.27758
 Alpha  occ. eigenvalues --  -11.27608 -11.27172 -11.27050  -1.60647  -1.60108
 Alpha  occ. eigenvalues --   -1.40201  -1.39660  -1.20273  -1.19690  -1.09627
 Alpha  occ. eigenvalues --   -1.09076  -1.05716  -1.05107  -0.96457  -0.95899
 Alpha  occ. eigenvalues --   -0.87082  -0.86518  -0.83310  -0.82732  -0.78372
 Alpha  occ. eigenvalues --   -0.77764  -0.72852  -0.72309  -0.71969  -0.71432
 Alpha  occ. eigenvalues --   -0.71368  -0.70788  -0.65947  -0.65720  -0.65348
 Alpha  occ. eigenvalues --   -0.65154  -0.63106  -0.62373  -0.56140  -0.55607
 Alpha  occ. eigenvalues --   -0.54020  -0.53809  -0.53416  -0.53159  -0.49619
 Alpha  occ. eigenvalues --   -0.49598  -0.49070  -0.49059  -0.45587  -0.45056
 Alpha  occ. eigenvalues --   -0.38208  -0.37665  -0.37305  -0.36712
 Alpha virt. eigenvalues --    0.04166   0.04776   0.10328   0.10897   0.15458
 Alpha virt. eigenvalues --    0.16221   0.18409   0.22086   0.24873   0.25910
 Alpha virt. eigenvalues --    0.27630   0.29137   0.30267   0.31240   0.32714

 Mulliken charges:
               1
     1  C   -0.170079
     2  C   -0.217909
     3  C   -0.168966
     4  C    0.159305
     5  C   -0.173042
     6  C   -0.223990
     7  H    0.229970
     8  H    0.227650
     9  H    0.278873
    10  H    0.269180
    11  H    0.223096
    12  N    0.488355
    13  O   -0.463174
    14  O   -0.456146
    15  C   -0.173308
    16  C   -0.218230
    17  C   -0.170025
    18  C    0.158937
    19  C   -0.171911
    20  C   -0.226344
    21  H    0.229609
    22  H    0.226749
    23  H    0.277168
    24  H    0.274799
    25  H    0.221222
    26  N    0.488099
    27  O   -0.460928
    28  O   -0.458962
 Sum of Mulliken charges =  -0.00000

 Dipole moment (field-independent basis, Debye):
    X=              2.9430    Y=              2.1009    Z=              2.7693  Tot=              4.5546
 Quadrupole moment (field-independent basis, Debye-Ang):
   XX=           -142.4332   YY=           -101.3686   ZZ=           -105.7942
   XY=             34.1901   XZ=             -3.0481   YZ=             -2.0761

 Normal termination of Gaussian 16 at Fri May  7 00:30:04 2021.
