 Gaussian 16, Revision A.03,
 Gaussian 16:  EM64L-G16RevA.03 25-Dec-2016

 -------------
 #p 6-31g* mp2
 -------------

 ------------------------------------------------------
 Input file generated by CHIRIPA (05-May-2021 14:53:17)
 ------------------------------------------------------
 Symbolic Z-matrix:
 Charge =  0 Multiplicity = 1

                         Standard orientation:
 ---------------------------------------------------------------------
 Center     Atomic      Atomic             Coordinates (Angstroms)
 Number     Number       Type             X           Y           Z
 ---------------------------------------------------------------------
      1          6           0       -3.128531   -0.823326   -0.128759
      2          6           0       -3.525801    0.559495    0.388898
      3          6           0       -5.037890    0.718141    0.550803
      4          1           0       -3.622833   -1.002671   -1.093355
      5          1           0       -3.506440   -1.588689    0.563195
      6          1           0       -3.146064    1.322091   -0.303101
      7          1           0       -3.030345    0.735646    1.352282
      8          1           0       -5.429336   -0.020980    1.257252
      9          1           0       -5.545713    0.568797   -0.407536
     10          1           0       -5.299628    1.713959    0.921883
     11          6           0       -1.620038   -0.997281   -0.295835
     12          6           0       -1.222768   -2.380102   -0.813492
     13          6           0        0.289321   -2.538748   -0.975397
     14          1           0       -1.242129   -0.231918   -0.987789
     15          1           0       -1.125736   -0.817936    0.668761
     16          1           0       -1.718225   -2.556253   -1.776876
     17          1           0       -1.602506   -3.142698   -0.121494
     18          1           0        0.797144   -2.389404   -0.017058
     19          1           0        0.680767   -1.799627   -1.681847
     20          1           0        0.551059   -3.534566   -1.346478
     21          6           0        3.129551   -1.282709    1.040866
     22          6           0        3.402359   -0.783260   -0.236886
     23          6           0        2.702307    0.320990   -0.731970
     24          6           0        1.731682    0.903936    0.081264
     25          6           0        1.437006    0.429516    1.358521
     26          6           0        2.149473   -0.675797    1.833093
     27          1           0        3.678191   -2.140930    1.417492
     28          1           0        4.162960   -1.252585   -0.854353
     29          1           0        2.893325    0.728113   -1.717455
     30          1           0        0.673099    0.918547    1.950731
     31          1           0        1.935491   -1.061532    2.825800
     32          7           0        0.983997    2.073518   -0.432003
     33          8           0        0.133690    2.569211    0.304138
     34          8           0        1.262425    2.472398   -1.560723
 ---------------------------------------------------------------------

 SCF Done:  E(RHF) =  -669.532484165     A.U. after   15 cycles
 E2 =    -0.2097630274D+01 EUMP2 =    -0.67163011443907D+03

 The electronic state is 1-A.
 Alpha  occ. eigenvalues --  -20.60864 -20.60839 -15.85891 -11.31241 -11.27835
 Alpha  occ. eigenvalues --  -11.27819 -11.27535 -11.26820 -11.26794 -11.21431
 Alpha  occ. eigenvalues --  -11.21149 -11.21031 -11.20965 -11.20821 -11.20585
 Alpha  occ. eigenvalues --   -1.59921  -1.39474  -1.19449  -1.08836  -1.08114
 Alpha  occ. eigenvalues --   -1.04849  -1.03186  -0.95692  -0.95651  -0.86704
 Alpha  occ. eigenvalues --   -0.86236  -0.82499  -0.79278  -0.77957  -0.77529
 Alpha  occ. eigenvalues --   -0.72114  -0.71229  -0.70551  -0.65088  -0.64879
 Alpha  occ. eigenvalues --   -0.64730  -0.62191  -0.60614  -0.59083  -0.57358
 Alpha  occ. eigenvalues --   -0.55339  -0.55023  -0.53524  -0.52931  -0.52355
 Alpha  occ. eigenvalues --   -0.51840  -0.49650  -0.48877  -0.48874  -0.47391
 Alpha  occ. eigenvalues --   -0.46333  -0.45465  -0.45386  -0.44760  -0.43462
 Alpha  occ. eigenvalues --   -0.37315  -0.36345
 Alpha virt. eigenvalues --    0.04936   0.11084   0.16406   0.21113   0.23185
 Alpha virt. eigenvalues --    0.24585   0.26092   0.27047   0.27660   0.28320
 Alpha virt. eigenvalues --    0.29016   0.31030   0.31674   0.31887   0.32312

 Mulliken charges:
               1
     1  C   -0.298301
     2  C   -0.299668
     3  C   -0.476030
     4  H    0.149695
     5  H    0.145711
     6  H    0.164544
     7  H    0.149298
     8  H    0.151330
     9  H    0.154365
    10  H    0.161823
    11  C   -0.299383
    12  C   -0.298262
    13  C   -0.481693
    14  H    0.151345
    15  H    0.145114
    16  H    0.151954
    17  H    0.148236
    18  H    0.160132
    19  H    0.153921
    20  H    0.153944
    21  C   -0.172604
    22  C   -0.210955
    23  C   -0.172438
    24  C    0.164048
    25  C   -0.168627
    26  C   -0.221366
    27  H    0.226259
    28  H    0.224035
    29  H    0.275692
    30  H    0.275976
    31  H    0.223751
    32  N    0.488579
    33  O   -0.459389
    34  O   -0.461038
 Sum of Mulliken charges =  -0.00000

 Dipole moment (field-independent basis, Debye):
    X=              2.7789    Y=             -3.9101    Z=              1.8185  Tot=              5.1301
 Quadrupole moment (field-independent basis, Debye-Ang):
   XX=            -85.9509   YY=           -103.3875   ZZ=            -90.2008
   XY=             -5.2020   XZ=              1.2563   YZ=              0.9526

 Normal termination of Gaussian 16 at Wed May  5 23:38:31 2021.
