 Gaussian 16, Revision A.03,
 Gaussian 16:  EM64L-G16RevA.03 25-Dec-2016

 -------------
 #p 6-31g* mp2
 -------------

 ------------------------------------------------------
 Input file generated by CHIRIPA (05-May-2021 14:55:23)
 ------------------------------------------------------
 Symbolic Z-matrix:
 Charge =  0 Multiplicity = 1

                         Standard orientation:
 ---------------------------------------------------------------------
 Center     Atomic      Atomic             Coordinates (Angstroms)
 Number     Number       Type             X           Y           Z
 ---------------------------------------------------------------------
      1          6           0        0.555913   -1.550698    1.662112
      2          6           0        0.615182   -0.154663    1.598133
      3          6           0        1.565448    0.479455    0.792257
      4          6           0        2.444944   -0.316875    0.060385
      5          6           0        2.410987   -1.709827    0.103038
      6          6           0        1.452424   -2.322464    0.915677
      7          1           0       -0.185499   -2.034953    2.290763
      8          1           0       -0.079791    0.447235    2.176731
      9          1           0        1.633475    1.558412    0.724116
     10          1           0        3.117143   -2.283126   -0.485257
     11          1           0        1.408716   -3.406833    0.963413
     12          7           0        3.455340    0.343067   -0.796339
     13          8           0        4.218888   -0.381045   -1.431394
     14          8           0        3.464609    1.571946   -0.816563
     15          6           0       -3.095753   -0.003875   -0.758216
     16          6           0       -3.968382   -1.107886   -0.160167
     17          6           0       -4.318841   -2.198309   -1.173059
     18          1           0       -3.617792    0.443667   -1.615028
     19          1           0       -2.172165   -0.449500   -1.152928
     20          1           0       -4.889433   -0.660126    0.234540
     21          1           0       -3.444287   -1.552722    0.695439
     22          1           0       -3.410372   -2.671840   -1.559134
     23          1           0       -4.863729   -1.774173   -2.022652
     24          1           0       -4.943094   -2.977343   -0.724426
     25          6           0       -2.736999    1.093516    0.242162
     26          6           0       -1.864369    2.197527   -0.355887
     27          6           0       -1.513911    3.287949    0.657006
     28          1           0       -3.660587    1.539140    0.636874
     29          1           0       -2.214959    0.645974    1.098974
     30          1           0       -2.388464    2.642363   -1.211493
     31          1           0       -0.943319    1.749768   -0.750594
     32          1           0       -0.969023    2.863813    1.506599
     33          1           0       -2.422379    3.761481    1.043080
     34          1           0       -0.889656    4.066984    0.208372
 ---------------------------------------------------------------------

 SCF Done:  E(RHF) =  -669.534825210     A.U. after   15 cycles
 E2 =    -0.2093986254D+01 EUMP2 =    -0.67162881146462D+03

 The electronic state is 1-A.
 Alpha  occ. eigenvalues --  -20.60820 -20.60815 -15.85875 -11.31270 -11.27832
 Alpha  occ. eigenvalues --  -11.27821 -11.27586 -11.26859 -11.26840 -11.22165
 Alpha  occ. eigenvalues --  -11.22089 -11.21978 -11.21836 -11.21766 -11.21541
 Alpha  occ. eigenvalues --   -1.59895  -1.39448  -1.19448  -1.08994  -1.08822
 Alpha  occ. eigenvalues --   -1.04862  -1.04082  -0.96544  -0.95662  -0.87558
 Alpha  occ. eigenvalues --   -0.86251  -0.82498  -0.80139  -0.78801  -0.77541
 Alpha  occ. eigenvalues --   -0.72091  -0.71220  -0.70547  -0.65747  -0.65097
 Alpha  occ. eigenvalues --   -0.64792  -0.62318  -0.61348  -0.59894  -0.58144
 Alpha  occ. eigenvalues --   -0.55862  -0.55342  -0.53226  -0.53168  -0.52995
 Alpha  occ. eigenvalues --   -0.52920  -0.50500  -0.48861  -0.48844  -0.48450
 Alpha  occ. eigenvalues --   -0.47171  -0.46336  -0.46223  -0.44846  -0.44322
 Alpha  occ. eigenvalues --   -0.37413  -0.36410
 Alpha virt. eigenvalues --    0.04964   0.11072   0.16366   0.19253   0.22791
 Alpha virt. eigenvalues --    0.23420   0.25301   0.26366   0.26666   0.28618
 Alpha virt. eigenvalues --    0.29233   0.29953   0.31195   0.31406   0.31810

 Mulliken charges:
               1
     1  C   -0.172422
     2  C   -0.217760
     3  C   -0.173652
     4  C    0.157968
     5  C   -0.170857
     6  C   -0.218521
     7  H    0.226338
     8  H    0.227060
     9  H    0.278150
    10  H    0.275949
    11  H    0.223933
    12  N    0.488186
    13  O   -0.460193
    14  O   -0.460053
    15  C   -0.299518
    16  C   -0.298307
    17  C   -0.476120
    18  H    0.152427
    19  H    0.153553
    20  H    0.153037
    21  H    0.144570
    22  H    0.155499
    23  H    0.157727
    24  H    0.160180
    25  C   -0.297163
    26  C   -0.304979
    27  C   -0.478201
    28  H    0.150584
    29  H    0.139369
    30  H    0.156812
    31  H    0.157156
    32  H    0.142804
    33  H    0.158765
    34  H    0.167677
 Sum of Mulliken charges =  -0.00000

 Dipole moment (field-independent basis, Debye):
    X=             -3.5812    Y=             -2.2896    Z=              2.8762  Tot=              5.1322
 Quadrupole moment (field-independent basis, Debye-Ang):
   XX=           -111.5099   YY=            -89.5384   ZZ=            -95.0450
   XY=             -7.2603   XZ=              6.9969   YZ=             -0.5332

 Normal termination of Gaussian 16 at Thu May  6 14:16:58 2021.
