 Gaussian 16, Revision A.03,
 Gaussian 16:  EM64L-G16RevA.03 25-Dec-2016

 -------------
 #p 6-31g* mp2
 -------------

 ------------------------------------------------------
 Input file generated by CHIRIPA (05-May-2021 14:55:20)
 ------------------------------------------------------
 Symbolic Z-matrix:
 Charge =  0 Multiplicity = 1

                         Standard orientation:
 ---------------------------------------------------------------------
 Center     Atomic      Atomic             Coordinates (Angstroms)
 Number     Number       Type             X           Y           Z
 ---------------------------------------------------------------------
      1          6           0        3.392408   -2.443920   -0.273888
      2          6           0        2.099595   -1.965198   -0.037283
      3          6           0        1.843333   -0.590934   -0.020620
      4          6           0        2.908152    0.280227   -0.245407
      5          6           0        4.207136   -0.165891   -0.483966
      6          6           0        4.440205   -1.544325   -0.496083
      7          1           0        3.582470   -3.513101   -0.285067
      8          1           0        1.283932   -2.661511    0.135591
      9          1           0        0.852119   -0.193106    0.160060
     10          1           0        4.999888    0.552719   -0.652973
     11          1           0        5.445230   -1.913254   -0.680094
     12          7           0        2.649136    1.737305   -0.230172
     13          8           0        3.604417    2.484124   -0.431015
     14          8           0        1.495742    2.104955   -0.017678
     15          6           0       -3.289990   -0.395118    0.794798
     16          6           0       -2.186181    0.531352    1.305915
     17          6           0       -1.219649   -0.170936    2.260064
     18          1           0       -3.846800   -0.798994    1.651413
     19          1           0       -2.831481   -1.254751    0.286666
     20          1           0       -2.646665    1.389682    1.811722
     21          1           0       -1.632055    0.933220    0.447973
     22          1           0       -0.733457   -1.016372    1.762615
     23          1           0       -1.753831   -0.557318    3.134113
     24          1           0       -0.438703    0.509673    2.613268
     25          6           0       -4.264163    0.292508   -0.160129
     26          6           0       -5.367973   -0.633964   -0.671247
     27          6           0       -6.334505    0.068326   -1.625396
     28          1           0       -4.722672    1.152140    0.348002
     29          1           0       -3.707354    0.696384   -1.016745
     30          1           0       -5.922098   -1.035832    0.186695
     31          1           0       -4.907488   -1.492294   -1.177054
     32          1           0       -5.800323    0.454706   -2.499444
     33          1           0       -6.820696    0.913762   -1.127946
     34          1           0       -7.115450   -0.612285   -1.978601
 ---------------------------------------------------------------------

 SCF Done:  E(RHF) =  -669.535309139     A.U. after   15 cycles
 E2 =    -0.2092181481D+01 EUMP2 =    -0.67162749062005D+03

 The electronic state is 1-A.
 Alpha  occ. eigenvalues --  -20.60797 -20.60791 -15.85841 -11.31154 -11.27744
 Alpha  occ. eigenvalues --  -11.27677 -11.27488 -11.26750 -11.26736 -11.21634
 Alpha  occ. eigenvalues --  -11.21595 -11.21494 -11.21365 -11.21335 -11.21058
 Alpha  occ. eigenvalues --   -1.59865  -1.39420  -1.19338  -1.08744  -1.08490
 Alpha  occ. eigenvalues --   -1.04743  -1.03606  -0.96090  -0.95577  -0.87102
 Alpha  occ. eigenvalues --   -0.86136  -0.82421  -0.79645  -0.78281  -0.77474
 Alpha  occ. eigenvalues --   -0.72064  -0.71185  -0.70469  -0.65192  -0.64994
 Alpha  occ. eigenvalues --   -0.64722  -0.62219  -0.60900  -0.59407  -0.57653
 Alpha  occ. eigenvalues --   -0.55518  -0.55131  -0.53077  -0.52845  -0.52694
 Alpha  occ. eigenvalues --   -0.52489  -0.50035  -0.48817  -0.48813  -0.47959
 Alpha  occ. eigenvalues --   -0.46684  -0.45829  -0.45751  -0.44834  -0.43839
 Alpha  occ. eigenvalues --   -0.37326  -0.36328
 Alpha virt. eigenvalues --    0.05048   0.11300   0.16518   0.19841   0.22977
 Alpha virt. eigenvalues --    0.23972   0.25865   0.26707   0.27498   0.28119
 Alpha virt. eigenvalues --    0.29220   0.30108   0.31549   0.31690   0.32389

 Mulliken charges:
               1
     1  C   -0.170206
     2  C   -0.223236
     3  C   -0.175934
     4  C    0.155636
     5  C   -0.169996
     6  C   -0.219264
     7  H    0.225570
     8  H    0.223584
     9  H    0.290886
    10  H    0.275419
    11  H    0.223337
    12  N    0.488246
    13  O   -0.459956
    14  O   -0.462960
    15  C   -0.297095
    16  C   -0.307864
    17  C   -0.482441
    18  H    0.149520
    19  H    0.142204
    20  H    0.157785
    21  H    0.164099
    22  H    0.138766
    23  H    0.158366
    24  H    0.172122
    25  C   -0.298720
    26  C   -0.299454
    27  C   -0.475815
    28  H    0.151741
    29  H    0.152192
    30  H    0.151528
    31  H    0.149925
    32  H    0.156093
    33  H    0.156173
    34  H    0.159748
 Sum of Mulliken charges =  -0.00000

 Dipole moment (field-independent basis, Debye):
    X=              0.8612    Y=             -4.9651    Z=             -0.0205  Tot=              5.0393
 Quadrupole moment (field-independent basis, Debye-Ang):
   XX=            -84.8743   YY=            -98.2074   ZZ=            -95.1482
   XY=            -14.1679   XZ=             -2.5491   YZ=              1.7402

 Normal termination of Gaussian 16 at Wed May  5 18:54:46 2021.
