 Gaussian 16, Revision A.03,
 Gaussian 16:  EM64L-G16RevA.03 25-Dec-2016

 -------------
 #p 6-31g* mp2
 -------------

 ------------------------------------------------------
 Input file generated by CHIRIPA (05-May-2021 14:57:26)
 ------------------------------------------------------
 Symbolic Z-matrix:
 Charge =  0 Multiplicity = 1

                         Standard orientation:
 ---------------------------------------------------------------------
 Center     Atomic      Atomic             Coordinates (Angstroms)
 Number     Number       Type             X           Y           Z
 ---------------------------------------------------------------------
      1          6           0        3.056759   -2.376699    0.396875
      2          6           0        2.510527   -1.412125    1.249956
      3          6           0        2.782022   -0.054859    1.053313
      4          6           0        3.607564    0.304060   -0.011087
      5          6           0        4.166760   -0.633319   -0.878215
      6          6           0        3.881678   -1.984909   -0.662620
      7          1           0        2.840578   -3.428851    0.556994
      8          1           0        1.869546   -1.713487    2.073588
      9          1           0        2.372359    0.712751    1.698579
     10          1           0        4.802160   -0.302273   -1.690676
     11          1           0        4.307274   -2.731822   -1.326723
     12          7           0        3.902176    1.737932   -0.229297
     13          8           0        4.632485    2.028278   -1.174275
     14          8           0        3.397204    2.544304    0.548781
     15          6           0       -1.188449   -0.848780    0.344380
     16          6           0       -1.869931   -0.174375    1.362850
     17          6           0       -3.183659    0.262923    1.169358
     18          6           0       -3.788185    0.007768   -0.060574
     19          6           0       -3.135593   -0.661577   -1.094688
     20          6           0       -1.822337   -1.089803   -0.878982
     21          1           0       -0.168097   -1.184959    0.503318
     22          1           0       -1.380146    0.014196    2.313953
     23          1           0       -3.734521    0.787302    1.940717
     24          1           0       -3.650180   -0.834918   -2.032010
     25          1           0       -1.295529   -1.613316   -1.671732
     26          7           0       -5.178720    0.465913   -0.277175
     27          8           0       -5.689067    0.228765   -1.369852
     28          8           0       -5.731944    1.053481    0.649833
 ---------------------------------------------------------------------

 SCF Done:  E(RHF) =  -868.336578847     A.U. after   16 cycles
 E2 =    -0.2601167657D+01 EUMP2 =    -0.87093774650363D+03

 The electronic state is 1-A.
 Alpha  occ. eigenvalues --  -20.61578 -20.61571 -20.60862 -20.60857 -15.86643
 Alpha  occ. eigenvalues --  -15.85920 -11.32256 -11.31335 -11.28939 -11.28832
 Alpha  occ. eigenvalues --  -11.28675 -11.27997 -11.27937 -11.27917 -11.27852
 Alpha  occ. eigenvalues --  -11.27606 -11.26993 -11.26932  -1.60648  -1.59937
 Alpha  occ. eigenvalues --   -1.40195  -1.39489  -1.20487  -1.19522  -1.09823
 Alpha  occ. eigenvalues --   -1.08911  -1.05936  -1.04943  -0.96603  -0.95736
 Alpha  occ. eigenvalues --   -0.87303  -0.86346  -0.83446  -0.82569  -0.78444
 Alpha  occ. eigenvalues --   -0.77607  -0.72853  -0.72137  -0.71978  -0.71548
 Alpha  occ. eigenvalues --   -0.71260  -0.70672  -0.66124  -0.65919  -0.65180
 Alpha  occ. eigenvalues --   -0.64976  -0.63248  -0.62298  -0.56387  -0.55672
 Alpha  occ. eigenvalues --   -0.54075  -0.53945  -0.53257  -0.53047  -0.49632
 Alpha  occ. eigenvalues --   -0.49594  -0.48901  -0.48887  -0.45544  -0.44883
 Alpha  occ. eigenvalues --   -0.38469  -0.37643  -0.37386  -0.36549
 Alpha virt. eigenvalues --    0.04086   0.04953   0.09975   0.11094   0.15429
 Alpha virt. eigenvalues --    0.16415   0.19505   0.21840   0.25381   0.27009
 Alpha virt. eigenvalues --    0.27721   0.29063   0.30159   0.30935   0.31958

 Mulliken charges:
               1
     1  C   -0.172475
     2  C   -0.233628
     3  C   -0.168941
     4  C    0.159861
     5  C   -0.168697
     6  C   -0.218969
     7  H    0.229292
     8  H    0.223238
     9  H    0.277350
    10  H    0.279777
    11  H    0.227601
    12  N    0.488158
    13  O   -0.456986
    14  O   -0.457932
    15  C   -0.176052
    16  C   -0.222043
    17  C   -0.169233
    18  C    0.158315
    19  C   -0.169748
    20  C   -0.221934
    21  H    0.231231
    22  H    0.218062
    23  H    0.276444
    24  H    0.276081
    25  H    0.222970
    26  N    0.488045
    27  O   -0.459975
    28  O   -0.459812
 Sum of Mulliken charges =  -0.00000

 Dipole moment (field-independent basis, Debye):
    X=              4.1605    Y=             -6.5861    Z=              1.3882  Tot=              7.9129
 Quadrupole moment (field-independent basis, Debye-Ang):
   XX=           -147.6235   YY=           -108.0269   ZZ=            -97.9115
   XY=            -13.4162   XZ=             -3.3403   YZ=              3.6491

 Normal termination of Gaussian 16 at Thu May  6 11:27:00 2021.
