 Gaussian 16, Revision A.03,
 Gaussian 16:  EM64L-G16RevA.03 25-Dec-2016

 -------------
 #p 6-31g* mp2
 -------------

 ------------------------------------------------------
 Input file generated by CHIRIPA (05-May-2021 14:51:13)
 ------------------------------------------------------
 Symbolic Z-matrix:
 Charge =  0 Multiplicity = 1

                         Standard orientation:
 ---------------------------------------------------------------------
 Center     Atomic      Atomic             Coordinates (Angstroms)
 Number     Number       Type             X           Y           Z
 ---------------------------------------------------------------------
      1          6           0       -4.572974   -0.529987    0.322666
      2          6           0       -5.887947   -0.616343   -0.452816
      3          6           0       -6.878512   -1.600040    0.170815
      4          1           0       -4.117898   -1.528661    0.372685
      5          1           0       -4.785189   -0.230963    1.358497
      6          1           0       -5.673188   -0.913772   -1.487239
      7          1           0       -6.339851    0.382688   -0.501159
      8          1           0       -7.121830   -1.303695    1.196280
      9          1           0       -6.451379   -2.607520    0.204597
     10          1           0       -7.811528   -1.646058   -0.399469
     11          6           0       -3.572429    0.449358   -0.288497
     12          6           0       -2.257456    0.535714    0.486986
     13          6           0       -1.266891    1.519411   -0.136646
     14          1           0       -3.360214    0.150334   -1.324327
     15          1           0       -4.027505    1.448032   -0.338515
     16          1           0       -1.805552   -0.463317    0.535329
     17          1           0       -2.472215    0.833143    1.521408
     18          1           0       -1.694024    2.526892   -0.170428
     19          1           0       -1.023573    1.223066   -1.162110
     20          1           0       -0.333875    1.565430    0.433638
     21          6           0        4.227585   -0.669247   -0.253654
     22          6           0        5.527237   -1.230836    0.323849
     23          6           0        5.823420   -2.651133   -0.158673
     24          1           0        3.395456   -1.332130    0.020376
     25          1           0        4.287336   -0.679774   -1.350792
     26          1           0        5.465600   -1.217967    1.419590
     27          1           0        6.356342   -0.566436    0.048574
     28          1           0        5.911700   -2.676812   -1.249613
     29          1           0        5.015896   -3.332044    0.129194
     30          1           0        6.756903   -3.033039    0.266318
     31          6           0        3.917817    0.749876    0.219483
     32          6           0        2.618166    1.311464   -0.358018
     33          6           0        2.321983    2.731761    0.124503
     34          1           0        3.858067    0.760403    1.316623
     35          1           0        4.749947    1.412759   -0.054545
     36          1           0        1.789060    0.647066   -0.082743
     37          1           0        2.679803    1.298596   -1.453760
     38          1           0        3.129506    3.412673   -0.163364
     39          1           0        2.233703    2.757441    1.215442
     40          1           0        1.388500    3.113668   -0.300488
 ---------------------------------------------------------------------

 SCF Done:  E(RHF) =  -470.732154258     A.U. after   11 cycles
 E2 =    -0.1583235083D+01 EUMP2 =    -0.47231538934101D+03

 The electronic state is 1-A.
 Alpha  occ. eigenvalues --  -11.21598 -11.21590 -11.21589 -11.21530 -11.21397
 Alpha  occ. eigenvalues --  -11.21380 -11.21337 -11.21318 -11.21069 -11.21065
 Alpha  occ. eigenvalues --  -11.20984 -11.20984  -1.08434  -1.08393  -1.03579
 Alpha  occ. eigenvalues --   -1.03450  -0.96071  -0.95860  -0.87063  -0.86900
 Alpha  occ. eigenvalues --   -0.79606  -0.79553  -0.78245  -0.78208  -0.65076
 Alpha  occ. eigenvalues --   -0.65033  -0.61035  -0.60895  -0.59676  -0.59037
 Alpha  occ. eigenvalues --   -0.57726  -0.57377  -0.55274  -0.55236  -0.52907
 Alpha  occ. eigenvalues --   -0.52501  -0.52389  -0.52154  -0.49959  -0.49857
 Alpha  occ. eigenvalues --   -0.47929  -0.47854  -0.46664  -0.46550  -0.45778
 Alpha  occ. eigenvalues --   -0.45757  -0.45702  -0.45675  -0.43813  -0.43655
 Alpha virt. eigenvalues --    0.21968   0.23064   0.23574   0.24986   0.26571
 Alpha virt. eigenvalues --    0.26669   0.26974   0.27444   0.27644   0.29057
 Alpha virt. eigenvalues --    0.29908   0.31300   0.31494   0.31914   0.32258

 Mulliken charges:
               1
     1  C   -0.298224
     2  C   -0.299607
     3  C   -0.475689
     4  H    0.149528
     5  H    0.149452
     6  H    0.151922
     7  H    0.151934
     8  H    0.155157
     9  H    0.155145
    10  H    0.160243
    11  C   -0.298553
    12  C   -0.300502
    13  C   -0.482143
    14  H    0.149514
    15  H    0.149666
    16  H    0.151379
    17  H    0.151733
    18  H    0.154183
    19  H    0.155263
    20  H    0.170643
    21  C   -0.298227
    22  C   -0.299603
    23  C   -0.475685
    24  H    0.149401
    25  H    0.149449
    26  H    0.151876
    27  H    0.151964
    28  H    0.155139
    29  H    0.155075
    30  H    0.160219
    31  C   -0.297669
    32  C   -0.303208
    33  C   -0.481666
    34  H    0.149099
    35  H    0.149539
    36  H    0.155400
    37  H    0.151753
    38  H    0.155795
    39  H    0.153825
    40  H    0.166477
 Sum of Mulliken charges =  -0.00000

 Dipole moment (field-independent basis, Debye):
    X=             -0.0043    Y=              0.0170    Z=             -0.0079  Tot=              0.0192
 Quadrupole moment (field-independent basis, Debye-Ang):
   XX=            -85.3958   YY=            -85.5682   ZZ=            -84.0060
   XY=             -0.3052   XZ=             -0.3129   YZ=              0.0752

 Normal termination of Gaussian 16 at Wed May  5 23:14:02 2021.
