 Gaussian 16, Revision A.03,
 Gaussian 16:  EM64L-G16RevA.03 25-Dec-2016

 -------------
 #p 6-31g* mp2
 -------------

 ------------------------------------------------------
 Input file generated by CHIRIPA (05-May-2021 14:53:13)
 ------------------------------------------------------
 Symbolic Z-matrix:
 Charge =  0 Multiplicity = 1

                         Standard orientation:
 ---------------------------------------------------------------------
 Center     Atomic      Atomic             Coordinates (Angstroms)
 Number     Number       Type             X           Y           Z
 ---------------------------------------------------------------------
      1          6           0        3.714949    1.137062   -0.336533
      2          6           0        2.396029    1.854607   -0.047461
      3          6           0        2.348225    3.264248   -0.637734
      4          1           0        4.545252    1.733135    0.066255
      5          1           0        3.865714    1.085629   -1.423740
      6          1           0        2.247123    1.903446    1.038843
      7          1           0        1.568754    1.256662   -0.450816
      8          1           0        2.471564    3.230975   -1.725061
      9          1           0        3.153787    3.881433   -0.226938
     10          1           0        1.396706    3.758938   -0.419211
     11          6           0        3.777917   -0.273288    0.247142
     12          6           0        5.096837   -0.990834   -0.041930
     13          6           0        5.144640   -2.400475    0.548342
     14          1           0        3.627152   -0.221856    1.334349
     15          1           0        2.947614   -0.869361   -0.155647
     16          1           0        5.924112   -0.392889    0.361425
     17          1           0        5.245742   -1.039673   -1.128235
     18          1           0        4.339079   -3.017660    0.137546
     19          1           0        5.021302   -2.367201    1.635670
     20          1           0        6.096160   -2.895165    0.329820
     21          6           0       -0.481400   -0.943986   -0.097423
     22          6           0       -1.389170   -1.493258   -1.008891
     23          6           0       -2.746458   -1.164275   -0.944958
     24          6           0       -3.163323   -0.278770    0.047713
     25          6           0       -2.283327    0.285065    0.970202
     26          6           0       -0.930583   -0.058139    0.887478
     27          1           0        0.571209   -1.205072   -0.154387
     28          1           0       -1.043165   -2.181488   -1.774831
     29          1           0       -3.470788   -1.574871   -1.637904
     30          1           0       -2.658130    0.968287    1.722630
     31          1           0       -0.227857    0.369967    1.596664
     32          7           0       -4.597817    0.077038    0.125342
     33          8           0       -4.939842    0.859566    1.009258
     34          8           0       -5.352987   -0.433346   -0.699196
 ---------------------------------------------------------------------

 SCF Done:  E(RHF) =  -669.534967796     A.U. after   15 cycles
 E2 =    -0.2092928799D+01 EUMP2 =    -0.67162789659557D+03

 The electronic state is 1-A.
 Alpha  occ. eigenvalues --  -20.60737 -20.60732 -15.85790 -11.31154 -11.27718
 Alpha  occ. eigenvalues --  -11.27700 -11.27409 -11.26733 -11.26692 -11.22603
 Alpha  occ. eigenvalues --  -11.22537 -11.22508 -11.22320 -11.21913 -11.21767
 Alpha  occ. eigenvalues --   -1.59813  -1.39366  -1.19321  -1.09441  -1.08713
 Alpha  occ. eigenvalues --   -1.04722  -1.04420  -0.96864  -0.95555  -0.87874
 Alpha  occ. eigenvalues --   -0.86117  -0.82386  -0.80511  -0.79310  -0.77426
 Alpha  occ. eigenvalues --   -0.72008  -0.71136  -0.70450  -0.66064  -0.64968
 Alpha  occ. eigenvalues --   -0.64715  -0.62071  -0.61816  -0.60228  -0.58498
 Alpha  occ. eigenvalues --   -0.56177  -0.55222  -0.53517  -0.53291  -0.53051
 Alpha  occ. eigenvalues --   -0.52805  -0.50801  -0.48847  -0.48765  -0.48727
 Alpha  occ. eigenvalues --   -0.47550  -0.46779  -0.46721  -0.44773  -0.44708
 Alpha  occ. eigenvalues --   -0.37258  -0.36315
 Alpha virt. eigenvalues --    0.05066   0.11256   0.16486   0.19570   0.22620
 Alpha virt. eigenvalues --    0.23163   0.24546   0.25419   0.27056   0.27836
 Alpha virt. eigenvalues --    0.29759   0.30471   0.30947   0.31330   0.31602

 Mulliken charges:
               1
     1  C   -0.298075
     2  C   -0.308065
     3  C   -0.475560
     4  H    0.153829
     5  H    0.152130
     6  H    0.147448
     7  H    0.154523
     8  H    0.157645
     9  H    0.157262
    10  H    0.163324
    11  C   -0.303925
    12  C   -0.299524
    13  C   -0.476135
    14  H    0.150015
    15  H    0.141385
    16  H    0.155994
    17  H    0.153981
    18  H    0.152390
    19  H    0.156516
    20  H    0.164123
    21  C   -0.177630
    22  C   -0.221920
    23  C   -0.170859
    24  C    0.158486
    25  C   -0.171919
    26  C   -0.220630
    27  H    0.236817
    28  H    0.223490
    29  H    0.275382
    30  H    0.275459
    31  H    0.227096
    32  N    0.487973
    33  O   -0.460487
    34  O   -0.460540
 Sum of Mulliken charges =  -0.00000

 Dipole moment (field-independent basis, Debye):
    X=              5.2650    Y=             -1.1737    Z=             -0.2973  Tot=              5.4025
 Quadrupole moment (field-independent basis, Debye-Ang):
   XX=           -126.1466   YY=            -93.4473   ZZ=            -91.3913
   XY=              3.6397   XZ=              2.1721   YZ=              3.3312

 Normal termination of Gaussian 16 at Thu May  6 17:04:28 2021.
