 Gaussian 16, Revision A.03,
 Gaussian 16:  EM64L-G16RevA.03 25-Dec-2016

 -------------
 #p 6-31g* mp2
 -------------

 ------------------------------------------------------
 Input file generated by CHIRIPA (05-May-2021 14:51:10)
 ------------------------------------------------------
 Symbolic Z-matrix:
 Charge =  0 Multiplicity = 1

                         Standard orientation:
 ---------------------------------------------------------------------
 Center     Atomic      Atomic             Coordinates (Angstroms)
 Number     Number       Type             X           Y           Z
 ---------------------------------------------------------------------
      1          6           0        3.676907   -0.381899   -0.265935
      2          6           0        4.353498   -1.428241    0.620281
      3          6           0        4.320779   -2.829899    0.010297
      4          1           0        2.635145   -0.680995   -0.445429
      5          1           0        4.171431   -0.367446   -1.247073
      6          1           0        3.858735   -1.439746    1.599921
      7          1           0        5.393715   -1.126522    0.797843
      8          1           0        4.831841   -2.840735   -0.957846
      9          1           0        3.288140   -3.155739   -0.151211
     10          1           0        4.809848   -3.562126    0.660308
     11          6           0        3.701534    1.024356    0.330360
     12          6           0        3.024943    2.070699   -0.555855
     13          6           0        3.057662    3.472356    0.054129
     14          1           0        3.207010    1.009903    1.311499
     15          1           0        4.743296    1.323452    0.509854
     16          1           0        1.984726    1.768979   -0.733418
     17          1           0        3.519705    2.082203   -1.535495
     18          1           0        4.090301    3.798196    0.215637
     19          1           0        2.546600    3.483193    1.022271
     20          1           0        2.568593    4.204583   -0.595882
     21          6           0       -4.232608    0.123102    0.269006
     22          6           0       -5.636662   -0.207873   -0.238017
     23          6           0       -6.712881    0.689550    0.373683
     24          1           0       -4.212934    0.027930    1.363309
     25          1           0       -4.006913    1.174382    0.042580
     26          1           0       -5.859106   -1.258598   -0.011934
     27          1           0       -5.652945   -0.112088   -1.331258
     28          1           0       -6.518384    1.740585    0.136833
     29          1           0       -6.725715    0.587561    1.463653
     30          1           0       -7.708795    0.435672   -0.002564
     31          6           0       -3.145834   -0.765560   -0.333431
     32          6           0       -1.741779   -0.434583    0.173591
     33          6           0       -0.665560   -1.332007   -0.438108
     34          1           0       -3.371529   -1.816839   -0.107004
     35          1           0       -3.165507   -0.670387   -1.427734
     36          1           0       -1.725496   -0.530368    1.266833
     37          1           0       -1.519336    0.616141   -0.052490
     38          1           0       -0.652725   -1.230018   -1.528078
     39          1           0       -0.860057   -2.383042   -0.201259
     40          1           0        0.330354   -1.078128   -0.061861
 ---------------------------------------------------------------------

 SCF Done:  E(RHF) =  -470.733355943     A.U. after   11 cycles
 E2 =    -0.1582669918D+01 EUMP2 =    -0.47231602586135D+03

 The electronic state is 1-A.
 Alpha  occ. eigenvalues --  -11.21672 -11.21626 -11.21592 -11.21576 -11.21446
 Alpha  occ. eigenvalues --  -11.21385 -11.21380 -11.21312 -11.21149 -11.21090
 Alpha  occ. eigenvalues --  -11.21065 -11.21034  -1.08475  -1.08411  -1.03579
 Alpha  occ. eigenvalues --   -1.03509  -0.96035  -0.95954  -0.87055  -0.86968
 Alpha  occ. eigenvalues --   -0.79650  -0.79564  -0.78286  -0.78223  -0.65109
 Alpha  occ. eigenvalues --   -0.65061  -0.60976  -0.60907  -0.59418  -0.59319
 Alpha  occ. eigenvalues --   -0.57673  -0.57543  -0.55317  -0.55246  -0.52777
 Alpha  occ. eigenvalues --   -0.52647  -0.52470  -0.52345  -0.49970  -0.49892
 Alpha  occ. eigenvalues --   -0.47980  -0.47878  -0.46675  -0.46602  -0.45827
 Alpha  occ. eigenvalues --   -0.45762  -0.45749  -0.45692  -0.43790  -0.43744
 Alpha virt. eigenvalues --    0.20632   0.23019   0.24121   0.24419   0.26086
 Alpha virt. eigenvalues --    0.26617   0.27228   0.27449   0.27928   0.29051
 Alpha virt. eigenvalues --    0.30626   0.31442   0.31719   0.31930   0.32154

 Mulliken charges:
               1
     1  C   -0.307277
     2  C   -0.299152
     3  C   -0.476073
     4  H    0.157846
     5  H    0.149734
     6  H    0.151505
     7  H    0.151882
     8  H    0.155141
     9  H    0.155949
    10  H    0.160032
    11  C   -0.297855
    12  C   -0.300332
    13  C   -0.475704
    14  H    0.149150
    15  H    0.149715
    16  H    0.152324
    17  H    0.151989
    18  H    0.155208
    19  H    0.155247
    20  H    0.160080
    21  C   -0.298298
    22  C   -0.299684
    23  C   -0.475734
    24  H    0.149682
    25  H    0.149644
    26  H    0.151984
    27  H    0.152034
    28  H    0.155248
    29  H    0.155205
    30  H    0.160354
    31  C   -0.298682
    32  C   -0.299235
    33  C   -0.483274
    34  H    0.149715
    35  H    0.149889
    36  H    0.151960
    37  H    0.151996
    38  H    0.155978
    39  H    0.155642
    40  H    0.166166
 Sum of Mulliken charges =  -0.00000

 Dipole moment (field-independent basis, Debye):
    X=             -0.0276    Y=             -0.0087    Z=             -0.0090  Tot=              0.0303
 Quadrupole moment (field-independent basis, Debye-Ang):
   XX=            -84.7789   YY=            -85.7857   ZZ=            -84.1924
   XY=              0.8176   XZ=             -0.2055   YZ=             -1.1370

 Normal termination of Gaussian 16 at Thu May  6 02:11:26 2021.
