 Gaussian 16, Revision A.03,
 Gaussian 16:  EM64L-G16RevA.03 25-Dec-2016

 -------------
 #p 6-31g* mp2
 -------------

 ------------------------------------------------------
 Input file generated by CHIRIPA (05-May-2021 14:53:14)
 ------------------------------------------------------
 Symbolic Z-matrix:
 Charge =  0 Multiplicity = 1

                         Standard orientation:
 ---------------------------------------------------------------------
 Center     Atomic      Atomic             Coordinates (Angstroms)
 Number     Number       Type             X           Y           Z
 ---------------------------------------------------------------------
      1          6           0       -3.473218    0.682585   -0.658526
      2          6           0       -2.571341    1.809003   -0.152774
      3          6           0       -2.632054    3.056232   -1.035117
      4          1           0       -3.182381    0.421606   -1.685292
      5          1           0       -4.508760    1.046464   -0.709898
      6          1           0       -1.538020    1.442685   -0.101056
      7          1           0       -2.864234    2.067199    0.872976
      8          1           0       -3.653285    3.448473   -1.077961
      9          1           0       -2.319535    2.820411   -2.057527
     10          1           0       -1.979855    3.848841   -0.655294
     11          6           0       -3.423383   -0.571020    0.213094
     12          6           0       -4.325260   -1.697438   -0.292658
     13          6           0       -4.264547   -2.944667    0.589685
     14          1           0       -2.387841   -0.934899    0.264466
     15          1           0       -3.714220   -0.310042    1.239860
     16          1           0       -4.032367   -1.955634   -1.318408
     17          1           0       -5.358581   -1.331120   -0.344376
     18          1           0       -4.577065   -2.708846    1.612095
     19          1           0       -3.243316   -3.336908    0.632529
     20          1           0       -4.916746   -3.737277    0.209862
     21          6           0        1.157413    1.693705    1.167329
     22          6           0        0.744423    0.359962    1.083117
     23          6           0        1.587498   -0.611081    0.534622
     24          6           0        2.842535   -0.211534    0.077965
     25          6           0        3.282720    1.109303    0.148077
     26          6           0        2.423012    2.063467    0.700365
     27          1           0        0.496031    2.441479    1.594887
     28          1           0       -0.237911    0.069921    1.444974
     29          1           0        1.293112   -1.650682    0.457258
     30          1           0        4.267720    1.368079   -0.221013
     31          1           0        2.746400    3.098528    0.764490
     32          7           0        3.743865   -1.230600   -0.504710
     33          8           0        4.844690   -0.852974   -0.899955
     34          8           0        3.332436   -2.387675   -0.555130
 ---------------------------------------------------------------------

 SCF Done:  E(RHF) =  -669.534597108     A.U. after   15 cycles
 E2 =    -0.2093297098D+01 EUMP2 =    -0.67162789420515D+03

 The electronic state is 1-A.
 Alpha  occ. eigenvalues --  -20.60785 -20.60780 -15.85838 -11.31214 -11.27782
 Alpha  occ. eigenvalues --  -11.27772 -11.27500 -11.26791 -11.26734 -11.22383
 Alpha  occ. eigenvalues --  -11.22244 -11.22167 -11.22085 -11.21804 -11.21567
 Alpha  occ. eigenvalues --   -1.59860  -1.39414  -1.19389  -1.09182  -1.08774
 Alpha  occ. eigenvalues --   -1.04795  -1.04213  -0.96656  -0.95611  -0.87671
 Alpha  occ. eigenvalues --   -0.86197  -0.82441  -0.80310  -0.79046  -0.77478
 Alpha  occ. eigenvalues --   -0.72057  -0.71184  -0.70482  -0.65860  -0.65037
 Alpha  occ. eigenvalues --   -0.64753  -0.62148  -0.61589  -0.60039  -0.58292
 Alpha  occ. eigenvalues --   -0.55932  -0.55265  -0.53370  -0.53158  -0.53060
 Alpha  occ. eigenvalues --   -0.52867  -0.50586  -0.48827  -0.48812  -0.48604
 Alpha  occ. eigenvalues --   -0.47324  -0.46520  -0.46449  -0.44817  -0.44486
 Alpha  occ. eigenvalues --   -0.37308  -0.36359
 Alpha virt. eigenvalues --    0.05021   0.11106   0.16442   0.20250   0.22626
 Alpha virt. eigenvalues --    0.23285   0.25039   0.26001   0.26656   0.28492
 Alpha virt. eigenvalues --    0.29346   0.30802   0.30914   0.31315   0.32182

 Mulliken charges:
               1
     1  C   -0.297136
     2  C   -0.313009
     3  C   -0.474202
     4  H    0.153758
     5  H    0.152184
     6  H    0.158134
     7  H    0.146685
     8  H    0.157734
     9  H    0.159439
    10  H    0.155902
    11  C   -0.301548
    12  C   -0.300157
    13  C   -0.476333
    14  H    0.143522
    15  H    0.148600
    16  H    0.155269
    17  H    0.154201
    18  H    0.154988
    19  H    0.154790
    20  H    0.163677
    21  C   -0.170362
    22  C   -0.222820
    23  C   -0.174086
    24  C    0.158480
    25  C   -0.170871
    26  C   -0.218775
    27  H    0.228180
    28  H    0.231792
    29  H    0.275233
    30  H    0.275745
    31  H    0.223623
    32  N    0.488111
    33  O   -0.460338
    34  O   -0.460411
 Sum of Mulliken charges =  -0.00000

 Dipole moment (field-independent basis, Debye):
    X=             -3.2721    Y=              3.5577    Z=              1.9663  Tot=              5.2183
 Quadrupole moment (field-independent basis, Debye-Ang):
   XX=           -109.6414   YY=            -94.8378   ZZ=            -94.9979
   XY=             13.7326   XZ=              4.9284   YZ=             -0.0838

 Normal termination of Gaussian 16 at Wed May  5 21:52:28 2021.
