 Gaussian 16, Revision A.03,
 Gaussian 16:  EM64L-G16RevA.03 25-Dec-2016

 -------------
 #p 6-31g* mp2
 -------------

 ------------------------------------------------------
 Input file generated by CHIRIPA (05-May-2021 14:51:08)
 ------------------------------------------------------
 Symbolic Z-matrix:
 Charge =  0 Multiplicity = 1

                         Standard orientation:
 ---------------------------------------------------------------------
 Center     Atomic      Atomic             Coordinates (Angstroms)
 Number     Number       Type             X           Y           Z
 ---------------------------------------------------------------------
      1          6           0        2.180412   -0.818533    0.537193
      2          6           0        1.508947   -2.190723    0.472294
      3          6           0        0.322998   -2.314387    1.429386
      4          1           0        2.516503   -0.630136    1.566025
      5          1           0        1.437544   -0.043152    0.304114
      6          1           0        2.253189   -2.963380    0.704071
      7          1           0        1.174587   -2.375957   -0.556544
      8          1           0       -0.440157   -1.564898    1.196014
      9          1           0        0.644574   -2.155659    2.463792
     10          1           0       -0.142136   -3.303110    1.366634
     11          6           0        3.367751   -0.679495   -0.413924
     12          6           0        4.039217    0.692696   -0.349024
     13          6           0        5.225166    0.816359   -1.306116
     14          1           0        4.110620   -1.454876   -0.180844
     15          1           0        3.031661   -0.867892   -1.442755
     16          1           0        4.373577    0.877929    0.679814
     17          1           0        3.294975    1.465353   -0.580801
     18          1           0        4.903590    0.657632   -2.340522
     19          1           0        5.988321    0.066870   -1.072744
     20          1           0        5.690299    1.805082   -1.243364
     21          6           0       -2.563507    1.449357    0.158844
     22          6           0       -1.089625    1.542820    0.554976
     23          6           0       -0.683499    2.950081    0.993692
     24          1           0       -2.763917    2.160571   -0.654147
     25          1           0       -3.185063    1.763107    1.008917
     26          1           0       -0.471074    1.227665   -0.295134
     27          1           0       -0.892657    0.831163    1.366989
     28          1           0       -1.275673    3.270393    1.857018
     29          1           0       -0.851695    3.669149    0.185450
     30          1           0        0.373959    2.994200    1.272431
     31          6           0       -2.984657    0.048672   -0.282113
     32          6           0       -4.458539   -0.044793   -0.678247
     33          6           0       -4.864664   -1.452054   -1.116961
     34          1           0       -2.363101   -0.265080   -1.132187
     35          1           0       -2.784247   -0.662544    0.530877
     36          1           0       -4.655507    0.666864   -1.490258
     37          1           0       -5.077089    0.270362    0.171865
     38          1           0       -4.696469   -2.171122   -0.308720
     39          1           0       -4.272491   -1.772366   -1.980288
     40          1           0       -5.922123   -1.496173   -1.395701
 ---------------------------------------------------------------------

 SCF Done:  E(RHF) =  -470.732100669     A.U. after   11 cycles
 E2 =    -0.1584749711D+01 EUMP2 =    -0.47231685037995D+03

 The electronic state is 1-A.
 Alpha  occ. eigenvalues --  -11.21658 -11.21643 -11.21578 -11.21522 -11.21464
 Alpha  occ. eigenvalues --  -11.21405 -11.21328 -11.21213 -11.21121 -11.21093
 Alpha  occ. eigenvalues --  -11.21053 -11.20957  -1.08513  -1.08351  -1.03597
 Alpha  occ. eigenvalues --   -1.03465  -0.96037  -0.95914  -0.87048  -0.86941
 Alpha  occ. eigenvalues --   -0.79751  -0.79507  -0.78457  -0.78022  -0.65139
 Alpha  occ. eigenvalues --   -0.65007  -0.60994  -0.60884  -0.59447  -0.59239
 Alpha  occ. eigenvalues --   -0.57711  -0.57491  -0.55316  -0.55212  -0.52732
 Alpha  occ. eigenvalues --   -0.52619  -0.52456  -0.52353  -0.49986  -0.49885
 Alpha  occ. eigenvalues --   -0.48219  -0.47782  -0.46724  -0.46684  -0.46129
 Alpha  occ. eigenvalues --   -0.45753  -0.45637  -0.45019  -0.43823  -0.43717
 Alpha virt. eigenvalues --    0.21254   0.22895   0.23695   0.24073   0.25514
 Alpha virt. eigenvalues --    0.25970   0.26873   0.27503   0.28755   0.29556
 Alpha virt. eigenvalues --    0.31047   0.31487   0.31765   0.31829   0.32428

 Mulliken charges:
               1
     1  C   -0.308868
     2  C   -0.298215
     3  C   -0.485002
     4  H    0.148345
     5  H    0.162317
     6  H    0.151383
     7  H    0.151081
     8  H    0.165261
     9  H    0.153883
    10  H    0.159496
    11  C   -0.297600
    12  C   -0.299721
    13  C   -0.475588
    14  H    0.149261
    15  H    0.148823
    16  H    0.151838
    17  H    0.151327
    18  H    0.155005
    19  H    0.155248
    20  H    0.160114
    21  C   -0.297121
    22  C   -0.307116
    23  C   -0.476621
    24  H    0.149672
    25  H    0.149717
    26  H    0.152532
    27  H    0.157812
    28  H    0.155686
    29  H    0.155149
    30  H    0.161603
    31  C   -0.302317
    32  C   -0.299445
    33  C   -0.475785
    34  H    0.149052
    35  H    0.153430
    36  H    0.152068
    37  H    0.152146
    38  H    0.155624
    39  H    0.155150
    40  H    0.160377
 Sum of Mulliken charges =  -0.00000

 Dipole moment (field-independent basis, Debye):
    X=             -0.0679    Y=              0.0441    Z=              0.0087  Tot=              0.0815
 Quadrupole moment (field-independent basis, Debye-Ang):
   XX=            -85.3796   YY=            -85.7167   ZZ=            -83.8434
   XY=             -0.7353   XZ=              0.5986   YZ=             -0.5722

 Normal termination of Gaussian 16 at Thu May  6 08:27:07 2021.
