 Gaussian 16, Revision A.03,
 Gaussian 16:  EM64L-G16RevA.03 25-Dec-2016

 -------------
 #p 6-31g* mp2
 -------------

 ------------------------------------------------------
 Input file generated by CHIRIPA (05-May-2021 14:55:20)
 ------------------------------------------------------
 Symbolic Z-matrix:
 Charge =  0 Multiplicity = 1

                         Standard orientation:
 ---------------------------------------------------------------------
 Center     Atomic      Atomic             Coordinates (Angstroms)
 Number     Number       Type             X           Y           Z
 ---------------------------------------------------------------------
      1          6           0       -0.405855   -2.033111    0.800751
      2          6           0       -0.484591   -0.727003    1.295122
      3          6           0       -1.552069    0.103238    0.940526
      4          6           0       -2.527650   -0.407401    0.085670
      5          6           0       -2.477224   -1.704163   -0.423404
      6          6           0       -1.400669   -2.516670   -0.055425
      7          1           0        0.426913   -2.671175    1.081408
      8          1           0        0.286554   -0.348796    1.960208
      9          1           0       -1.637748    1.118395    1.308675
     10          1           0       -3.261120   -2.053054   -1.084615
     11          1           0       -1.342113   -3.530590   -0.440888
     12          7           0       -3.662546    0.462151   -0.296809
     13          8           0       -4.509218   -0.011467   -1.051442
     14          8           0       -3.683916    1.600859    0.165278
     15          6           0        3.270912    0.118383   -0.595097
     16          6           0        4.122408   -0.844004    0.233608
     17          6           0        4.665283   -2.012176   -0.590076
     18          1           0        2.434969   -0.435326   -1.044039
     19          1           0        3.873312    0.505031   -1.428770
     20          1           0        3.519004   -1.227657    1.066272
     21          1           0        4.956313   -0.287900    0.680786
     22          1           0        5.289713   -1.646823   -1.411785
     23          1           0        3.844237   -2.591919   -1.024109
     24          1           0        5.271083   -2.687661    0.021958
     25          6           0        2.721037    1.291444    0.214406
     26          6           0        1.869541    2.253831   -0.614297
     27          6           0        1.326667    3.422003    0.209387
     28          1           0        2.118638    0.904795    1.048080
     29          1           0        3.556981    1.845154    0.663350
     30          1           0        1.035636    1.697728   -1.061475
     31          1           0        2.472946    2.637484   -1.446961
     32          1           0        2.147712    4.001746    0.643419
     33          1           0        0.702236    3.056650    1.031095
     34          1           0        0.720867    4.097488   -0.402647
 ---------------------------------------------------------------------

 SCF Done:  E(RHF) =  -669.535392916     A.U. after   15 cycles
 E2 =    -0.2093137166D+01 EUMP2 =    -0.67162853008248D+03

 The electronic state is 1-A.
 Alpha  occ. eigenvalues --  -20.60817 -20.60812 -15.85872 -11.31274 -11.27846
 Alpha  occ. eigenvalues --  -11.27837 -11.27592 -11.26866 -11.26856 -11.22376
 Alpha  occ. eigenvalues --  -11.22037 -11.21976 -11.21946 -11.21780 -11.21439
 Alpha  occ. eigenvalues --   -1.59892  -1.39445  -1.19450  -1.09044  -1.08830
 Alpha  occ. eigenvalues --   -1.04858  -1.04098  -0.96544  -0.95664  -0.87560
 Alpha  occ. eigenvalues --   -0.86251  -0.82498  -0.80162  -0.78856  -0.77536
 Alpha  occ. eigenvalues --   -0.72089  -0.71216  -0.70549  -0.65777  -0.65101
 Alpha  occ. eigenvalues --   -0.64801  -0.62227  -0.61475  -0.59908  -0.58146
 Alpha  occ. eigenvalues --   -0.55864  -0.55346  -0.53217  -0.53169  -0.53072
 Alpha  occ. eigenvalues --   -0.52844  -0.50491  -0.48854  -0.48842  -0.48476
 Alpha  occ. eigenvalues --   -0.47212  -0.46384  -0.46287  -0.44842  -0.44349
 Alpha  occ. eigenvalues --   -0.37419  -0.36433
 Alpha virt. eigenvalues --    0.04966   0.11099   0.16350   0.18918   0.22591
 Alpha virt. eigenvalues --    0.23337   0.25006   0.26363   0.26495   0.28030
 Alpha virt. eigenvalues --    0.29795   0.30406   0.31216   0.31346   0.31660

 Mulliken charges:
               1
     1  C   -0.172857
     2  C   -0.217865
     3  C   -0.173164
     4  C    0.158402
     5  C   -0.170601
     6  C   -0.218730
     7  H    0.226863
     8  H    0.226217
     9  H    0.277455
    10  H    0.276003
    11  H    0.223966
    12  N    0.488052
    13  O   -0.460223
    14  O   -0.459863
    15  C   -0.300515
    16  C   -0.298484
    17  C   -0.475793
    18  H    0.151746
    19  H    0.152926
    20  H    0.141612
    21  H    0.155088
    22  H    0.158940
    23  H    0.152443
    24  H    0.161011
    25  C   -0.297523
    26  C   -0.302686
    27  C   -0.474836
    28  H    0.139261
    29  H    0.151455
    30  H    0.156351
    31  H    0.154467
    32  H    0.156054
    33  H    0.147358
    34  H    0.167469
 Sum of Mulliken charges =  -0.00000

 Dipole moment (field-independent basis, Debye):
    X=              4.0188    Y=             -2.9980    Z=              1.2161  Tot=              5.1592
 Quadrupole moment (field-independent basis, Debye-Ang):
   XX=           -114.1009   YY=            -89.9971   ZZ=            -93.7433
   XY=              8.7846   XZ=             -2.1457   YZ=              0.8815

 Normal termination of Gaussian 16 at Thu May  6 02:56:59 2021.
