 Gaussian 16, Revision A.03,
 Gaussian 16:  EM64L-G16RevA.03 25-Dec-2016

 -------------
 #p 6-31g* mp2
 -------------

 ------------------------------------------------------
 Input file generated by CHIRIPA (05-May-2021 14:51:12)
 ------------------------------------------------------
 Symbolic Z-matrix:
 Charge =  0 Multiplicity = 1

                         Standard orientation:
 ---------------------------------------------------------------------
 Center     Atomic      Atomic             Coordinates (Angstroms)
 Number     Number       Type             X           Y           Z
 ---------------------------------------------------------------------
      1          6           0        3.727408    0.708481    0.236665
      2          6           0        4.683026    1.721774   -0.394221
      3          6           0        4.772117    3.024776    0.400790
      4          1           0        2.728507    1.158267    0.319337
      5          1           0        4.058420    0.491734    1.261773
      6          1           0        4.351102    1.935499   -1.418313
      7          1           0        5.679723    1.269457   -0.475576
      8          1           0        5.125122    2.831478    1.418937
      9          1           0        3.788951    3.501305    0.470844
     10          1           0        5.460632    3.734779   -0.067935
     11          6           0        3.627626   -0.599270   -0.546634
     12          6           0        2.672008   -1.612563    0.084251
     13          6           0        2.582917   -2.915565   -0.710759
     14          1           0        3.296614   -0.382523   -1.571742
     15          1           0        4.626527   -1.049056   -0.629306
     16          1           0        1.675310   -1.160246    0.165607
     17          1           0        3.003932   -1.826288    1.108343
     18          1           0        3.566082   -3.392094   -0.780813
     19          1           0        2.229912   -2.722267   -1.728907
     20          1           0        1.894402   -3.625568   -0.242034
     21          6           0       -4.218079    0.138688   -0.348864
     22          6           0       -5.240792    1.129024    0.209058
     23          6           0       -6.315814    1.506083   -0.810722
     24          1           0       -3.744188    0.573510   -1.239539
     25          1           0       -4.740895   -0.767800   -0.684033
     26          1           0       -4.716047    2.032815    0.544347
     27          1           0       -5.712166    0.691872    1.098620
     28          1           0       -6.865128    0.617352   -1.137851
     29          1           0       -5.863349    1.965914   -1.695272
     30          1           0       -7.036404    2.214885   -0.390948
     31          6           0       -3.136955   -0.247898    0.658833
     32          6           0       -2.114242   -1.238235    0.100912
     33          6           0       -1.039220   -1.615294    1.120691
     34          1           0       -2.614138    0.658588    0.994002
     35          1           0       -3.610845   -0.682720    1.549509
     36          1           0       -1.642868   -0.801083   -0.788650
     37          1           0       -2.638987   -2.142026   -0.234378
     38          1           0       -1.491685   -2.075125    2.005242
     39          1           0       -0.489906   -0.726563    1.447820
     40          1           0       -0.318629   -2.324096    0.700917
 ---------------------------------------------------------------------

 SCF Done:  E(RHF) =  -470.732371434     A.U. after   11 cycles
 E2 =    -0.1583214079D+01 EUMP2 =    -0.47231558551314D+03

 The electronic state is 1-A.
 Alpha  occ. eigenvalues --  -11.21629 -11.21617 -11.21592 -11.21456 -11.21425
 Alpha  occ. eigenvalues --  -11.21376 -11.21366 -11.21306 -11.21084 -11.21069
 Alpha  occ. eigenvalues --  -11.21061 -11.21043  -1.08456  -1.08391  -1.03585
 Alpha  occ. eigenvalues --   -1.03469  -0.96042  -0.95923  -0.87029  -0.86971
 Alpha  occ. eigenvalues --   -0.79695  -0.79491  -0.78274  -0.78193  -0.65130
 Alpha  occ. eigenvalues --   -0.64998  -0.61097  -0.60813  -0.59604  -0.59132
 Alpha  occ. eigenvalues --   -0.57753  -0.57400  -0.55344  -0.55201  -0.52778
 Alpha  occ. eigenvalues --   -0.52573  -0.52466  -0.52309  -0.50040  -0.49833
 Alpha  occ. eigenvalues --   -0.47932  -0.47861  -0.46749  -0.46482  -0.45822
 Alpha  occ. eigenvalues --   -0.45766  -0.45705  -0.45598  -0.43776  -0.43733
 Alpha virt. eigenvalues --    0.21543   0.23153   0.23441   0.24862   0.26117
 Alpha virt. eigenvalues --    0.26820   0.26893   0.27098   0.27656   0.29209
 Alpha virt. eigenvalues --    0.30335   0.31269   0.31646   0.31890   0.32274

 Mulliken charges:
               1
     1  C   -0.298089
     2  C   -0.299574
     3  C   -0.475665
     4  H    0.148723
     5  H    0.149619
     6  H    0.151777
     7  H    0.152052
     8  H    0.155223
     9  H    0.154917
    10  H    0.160221
    11  C   -0.297671
    12  C   -0.306936
    13  C   -0.477701
    14  H    0.148851
    15  H    0.149123
    16  H    0.162370
    17  H    0.151434
    18  H    0.155544
    19  H    0.155013
    20  H    0.160033
    21  C   -0.298237
    22  C   -0.299660
    23  C   -0.475711
    24  H    0.149488
    25  H    0.149630
    26  H    0.151898
    27  H    0.152019
    28  H    0.155227
    29  H    0.155143
    30  H    0.160312
    31  C   -0.298466
    32  C   -0.300649
    33  C   -0.482078
    34  H    0.149477
    35  H    0.149920
    36  H    0.151627
    37  H    0.152283
    38  H    0.155567
    39  H    0.155559
    40  H    0.167384
 Sum of Mulliken charges =  -0.00000

 Dipole moment (field-independent basis, Debye):
    X=             -0.0259    Y=             -0.0115    Z=              0.0157  Tot=              0.0323
 Quadrupole moment (field-independent basis, Debye-Ang):
   XX=            -84.7230   YY=            -85.1904   ZZ=            -85.0128
   XY=              0.3169   XZ=             -0.3351   YZ=             -0.7338

 Normal termination of Gaussian 16 at Wed May  5 21:31:45 2021.
