 Gaussian 16, Revision A.03,
 Gaussian 16:  EM64L-G16RevA.03 25-Dec-2016

 -------------
 #p 6-31g* mp2
 -------------

 ------------------------------------------------------
 Input file generated by CHIRIPA (05-May-2021 14:53:15)
 ------------------------------------------------------
 Symbolic Z-matrix:
 Charge =  0 Multiplicity = 1

                         Standard orientation:
 ---------------------------------------------------------------------
 Center     Atomic      Atomic             Coordinates (Angstroms)
 Number     Number       Type             X           Y           Z
 ---------------------------------------------------------------------
      1          6           0        4.493873    0.190590   -0.014841
      2          6           0        5.917238   -0.051162   -0.518402
      3          6           0        6.774421    1.214786   -0.498267
      4          1           0        4.019991    0.965851   -0.632378
      5          1           0        4.537076    0.589031    1.008278
      6          1           0        5.871320   -0.450331   -1.539760
      7          1           0        6.387720   -0.826075    0.100285
      8          1           0        6.849962    1.612739    0.518850
      9          1           0        6.330628    1.990617   -1.130513
     10          1           0        7.787914    1.019211   -0.862193
     11          6           0        3.624715   -1.065631   -0.028977
     12          6           0        2.201350   -0.823879    0.474584
     13          6           0        1.344167   -2.089827    0.454448
     14          1           0        3.581511   -1.464072   -1.052097
     15          1           0        4.098596   -1.840892    0.588559
     16          1           0        1.730868   -0.048967   -0.144103
     17          1           0        2.247268   -0.424710    1.495942
     18          1           0        1.787960   -2.865658    1.086694
     19          1           0        1.268625   -2.487780   -0.562669
     20          1           0        0.330673   -1.894252    0.818374
     21          6           0       -1.993204    2.515523    0.520050
     22          6           0       -1.505596    1.316217    1.049601
     23          6           0       -2.150304    0.105888    0.777564
     24          6           0       -3.285220    0.131666   -0.031505
     25          6           0       -3.795373    1.310174   -0.573866
     26          6           0       -3.134524    2.508686   -0.288569
     27          1           0       -1.486109    3.451146    0.736525
     28          1           0       -0.619436    1.318513    1.677901
     29          1           0       -1.794289   -0.837038    1.174505
     30          1           0       -4.680895    1.276124   -1.196851
     31          1           0       -3.515457    3.438567   -0.701190
     32          7           0       -3.976287   -1.143399   -0.326518
     33          8           0       -4.974331   -1.093873   -1.042124
     34          8           0       -3.506816   -2.168178    0.163443
 ---------------------------------------------------------------------

 SCF Done:  E(RHF) =  -669.535437580     A.U. after   15 cycles
 E2 =    -0.2091527488D+01 EUMP2 =    -0.67162696506741D+03

 The electronic state is 1-A.
 Alpha  occ. eigenvalues --  -20.60753 -20.60747 -15.85805 -11.31178 -11.27753
 Alpha  occ. eigenvalues --  -11.27742 -11.27492 -11.26772 -11.26753 -11.22126
 Alpha  occ. eigenvalues --  -11.21913 -11.21797 -11.21739 -11.21457 -11.21369
 Alpha  occ. eigenvalues --   -1.59827  -1.39381  -1.19355  -1.08827  -1.08746
 Alpha  occ. eigenvalues --   -1.04762  -1.03917  -0.96350  -0.95581  -0.87362
 Alpha  occ. eigenvalues --   -0.86154  -0.82411  -0.79986  -0.78645  -0.77461
 Alpha  occ. eigenvalues --   -0.72025  -0.71150  -0.70475  -0.65450  -0.65007
 Alpha  occ. eigenvalues --   -0.64764  -0.62173  -0.61302  -0.59710  -0.57972
 Alpha  occ. eigenvalues --   -0.55612  -0.55261  -0.53199  -0.53044  -0.52872
 Alpha  occ. eigenvalues --   -0.52625  -0.50268  -0.48784  -0.48779  -0.48297
 Alpha  occ. eigenvalues --   -0.47016  -0.46180  -0.46102  -0.44785  -0.44171
 Alpha  occ. eigenvalues --   -0.37334  -0.36349
 Alpha virt. eigenvalues --    0.05047   0.11258   0.16499   0.20102   0.22642
 Alpha virt. eigenvalues --    0.23827   0.25948   0.26215   0.26633   0.28042
 Alpha virt. eigenvalues --    0.28784   0.29834   0.31080   0.31528   0.32153

 Mulliken charges:
               1
     1  C   -0.298355
     2  C   -0.299981
     3  C   -0.475863
     4  H    0.148581
     5  H    0.147984
     6  H    0.153290
     7  H    0.153018
     8  H    0.154740
     9  H    0.154749
    10  H    0.161584
    11  C   -0.298513
    12  C   -0.302984
    13  C   -0.476547
    14  H    0.152398
    15  H    0.151536
    16  H    0.151720
    17  H    0.145959
    18  H    0.158447
    19  H    0.162023
    20  H    0.155125
    21  C   -0.171302
    22  C   -0.220297
    23  C   -0.175345
    24  C    0.159088
    25  C   -0.170813
    26  C   -0.218534
    27  H    0.225734
    28  H    0.225963
    29  H    0.280740
    30  H    0.275597
    31  H    0.223411
    32  N    0.487582
    33  O   -0.460514
    34  O   -0.460218
 Sum of Mulliken charges =  -0.00000

 Dipole moment (field-independent basis, Debye):
    X=              2.5228    Y=              4.4354    Z=              0.9724  Tot=              5.1945
 Quadrupole moment (field-independent basis, Debye-Ang):
   XX=           -109.0950   YY=            -93.2182   ZZ=            -93.0400
   XY=            -17.3780   XZ=             -1.1548   YZ=             -1.6760

 Normal termination of Gaussian 16 at Thu May  6 12:10:36 2021.
