 Gaussian 16, Revision A.03,
 Gaussian 16:  EM64L-G16RevA.03 25-Dec-2016

 -------------
 #p 6-31g* mp2
 -------------

 ------------------------------------------------------
 Input file generated by CHIRIPA (05-May-2021 14:57:22)
 ------------------------------------------------------
 Symbolic Z-matrix:
 Charge =  0 Multiplicity = 1

                         Standard orientation:
 ---------------------------------------------------------------------
 Center     Atomic      Atomic             Coordinates (Angstroms)
 Number     Number       Type             X           Y           Z
 ---------------------------------------------------------------------
      1          6           0       -2.148671    2.171858    0.032696
      2          6           0       -2.690451    1.768894   -1.192300
      3          6           0       -3.443671    0.594642   -1.283624
      4          6           0       -3.636242   -0.155933   -0.124813
      5          6           0       -3.109488    0.219109    1.110163
      6          6           0       -2.359547    1.397045    1.177999
      7          1           0       -1.564825    3.085476    0.094516
      8          1           0       -2.528303    2.368646   -2.083395
      9          1           0       -3.874601    0.259351   -2.219197
     10          1           0       -3.288210   -0.399599    1.981184
     11          1           0       -1.939999    1.707547    2.130686
     12          7           0       -4.431907   -1.401012   -0.209061
     13          8           0       -4.587138   -2.044671    0.826431
     14          8           0       -4.885252   -1.709669   -1.308990
     15          6           0        1.457583    0.896567    1.241838
     16          6           0        1.812647    1.330229   -0.039718
     17          6           0        2.945038    0.813052   -0.675929
     18          6           0        3.703054   -0.140711    0.001595
     19          6           0        3.375257   -0.592891    1.278847
     20          6           0        2.238645   -0.061919    1.895878
     21          1           0        0.576274    1.303682    1.728612
     22          1           0        1.207930    2.074490   -0.550049
     23          1           0        3.242826    1.131032   -1.667710
     24          1           0        3.997732   -1.335978    1.762340
     25          1           0        1.965298   -0.400566    2.891189
     26          7           0        4.904100   -0.695525   -0.661780
     27          8           0        5.555313   -1.534803   -0.043578
     28          8           0        5.171528   -0.280605   -1.787373
 ---------------------------------------------------------------------

 SCF Done:  E(RHF) =  -868.335963694     A.U. after   16 cycles
 E2 =    -0.2601401192D+01 EUMP2 =    -0.87093736488655D+03

 The electronic state is 1-A.
 Alpha  occ. eigenvalues --  -20.61452 -20.61444 -20.61051 -20.61044 -15.86513
 Alpha  occ. eigenvalues --  -15.86109 -11.32108 -11.31562 -11.28742 -11.28670
 Alpha  occ. eigenvalues --  -11.28598 -11.28171 -11.28133 -11.27961 -11.27896
 Alpha  occ. eigenvalues --  -11.27757 -11.27253 -11.27183  -1.60520  -1.60124
 Alpha  occ. eigenvalues --   -1.40067  -1.39675  -1.20325  -1.19758  -1.09708
 Alpha  occ. eigenvalues --   -1.09147  -1.05763  -1.05181  -0.96490  -0.95965
 Alpha  occ. eigenvalues --   -0.87175  -0.86586  -0.83314  -0.82798  -0.78301
 Alpha  occ. eigenvalues --   -0.77818  -0.72731  -0.72327  -0.71844  -0.71493
 Alpha  occ. eigenvalues --   -0.71447  -0.70926  -0.65990  -0.65810  -0.65421
 Alpha  occ. eigenvalues --   -0.65201  -0.63101  -0.62535  -0.56346  -0.55772
 Alpha  occ. eigenvalues --   -0.54058  -0.53848  -0.53468  -0.53284  -0.49507
 Alpha  occ. eigenvalues --   -0.49467  -0.49093  -0.49074  -0.45422  -0.45061
 Alpha  occ. eigenvalues --   -0.38420  -0.37732  -0.37280  -0.36769
 Alpha virt. eigenvalues --    0.04210   0.04723   0.10124   0.10866   0.15527
 Alpha virt. eigenvalues --    0.16227   0.18409   0.22227   0.24521   0.25710
 Alpha virt. eigenvalues --    0.27860   0.29040   0.30116   0.31005   0.32563

 Mulliken charges:
               1
     1  C   -0.174660
     2  C   -0.218022
     3  C   -0.168149
     4  C    0.160208
     5  C   -0.169147
     6  C   -0.222547
     7  H    0.222843
     8  H    0.226186
     9  H    0.279621
    10  H    0.277705
    11  H    0.218601
    12  N    0.488000
    13  O   -0.458494
    14  O   -0.456988
    15  C   -0.165960
    16  C   -0.217741
    17  C   -0.170344
    18  C    0.158921
    19  C   -0.169574
    20  C   -0.219651
    21  H    0.217496
    22  H    0.215696
    23  H    0.275778
    24  H    0.277372
    25  H    0.223663
    26  N    0.488049
    27  O   -0.458865
    28  O   -0.459996
 Sum of Mulliken charges =  -0.00000

 Dipole moment (field-independent basis, Debye):
    X=             -1.6181    Y=              6.1213    Z=              2.4972  Tot=              6.8062
 Quadrupole moment (field-independent basis, Debye-Ang):
   XX=           -156.4718   YY=           -106.4239   ZZ=            -97.0712
   XY=             -9.2540   XZ=              9.1643   YZ=             -4.7195

 Normal termination of Gaussian 16 at Thu May  6 03:22:36 2021.
