 Gaussian 16, Revision A.03,
 Gaussian 16:  EM64L-G16RevA.03 25-Dec-2016

 -------------
 #p 6-31g* mp2
 -------------

 ------------------------------------------------------
 Input file generated by CHIRIPA (05-May-2021 14:53:17)
 ------------------------------------------------------
 Symbolic Z-matrix:
 Charge =  0 Multiplicity = 1

                         Standard orientation:
 ---------------------------------------------------------------------
 Center     Atomic      Atomic             Coordinates (Angstroms)
 Number     Number       Type             X           Y           Z
 ---------------------------------------------------------------------
      1          6           0        4.583451    0.721980    0.368013
      2          6           0        3.274991    0.940920   -0.392239
      3          6           0        2.400970    2.026926    0.235831
      4          1           0        4.355045    0.454477    1.408790
      5          1           0        5.141393    1.667932    0.403651
      6          1           0        2.720322   -0.005498   -0.427629
      7          1           0        3.506535    1.207745   -1.431377
      8          1           0        2.931706    2.984254    0.256895
      9          1           0        2.141026    1.764117    1.266347
     10          1           0        1.470722    2.166977   -0.323529
     11          6           0        5.468010   -0.360668   -0.247743
     12          6           0        6.776470   -0.579607    0.512508
     13          6           0        7.650491   -1.665614   -0.115562
     14          1           0        4.910068   -1.306620   -0.283381
     15          1           0        5.696416   -0.093165   -1.288521
     16          1           0        6.544926   -0.846433    1.551646
     17          1           0        7.331139    0.366811    0.547898
     18          1           0        7.910435   -1.402805   -1.146077
     19          1           0        7.119755   -2.622942   -0.136626
     20          1           0        8.580739   -1.805665    0.443799
     21          6           0       -1.514120    0.505183   -0.406605
     22          6           0       -2.490259    1.496461   -0.261555
     23          6           0       -3.829883    1.149944   -0.061843
     24          6           0       -4.159558   -0.203621   -0.012213
     25          6           0       -3.210016   -1.214441   -0.153293
     26          6           0       -1.876475   -0.844724   -0.352108
     27          1           0       -0.475831    0.783377   -0.561397
     28          1           0       -2.211749    2.545615   -0.303447
     29          1           0       -4.605880    1.896903    0.053482
     30          1           0       -3.518198   -2.251888   -0.106985
     31          1           0       -1.120520   -1.616709   -0.464438
     32          7           0       -5.574537   -0.582743    0.198738
     33          8           0       -5.839189   -1.782329    0.238622
     34          8           0       -6.392153    0.326865    0.320202
 ---------------------------------------------------------------------

 SCF Done:  E(RHF) =  -669.535475961     A.U. after   15 cycles
 E2 =    -0.2090785758D+01 EUMP2 =    -0.67162626171865D+03

 The electronic state is 1-A.
 Alpha  occ. eigenvalues --  -20.60723 -20.60718 -15.85777 -11.31132 -11.27706
 Alpha  occ. eigenvalues --  -11.27702 -11.27406 -11.26712 -11.26701 -11.22698
 Alpha  occ. eigenvalues --  -11.22343 -11.22220 -11.22160 -11.22053 -11.21540
 Alpha  occ. eigenvalues --   -1.59799  -1.39353  -1.19304  -1.09234  -1.08697
 Alpha  occ. eigenvalues --   -1.04709  -1.04366  -0.96819  -0.95534  -0.87835
 Alpha  occ. eigenvalues --   -0.86105  -0.82371  -0.80437  -0.79000  -0.77421
 Alpha  occ. eigenvalues --   -0.71995  -0.71122  -0.70432  -0.65858  -0.64955
 Alpha  occ. eigenvalues --   -0.64718  -0.62059  -0.61750  -0.60271  -0.58434
 Alpha  occ. eigenvalues --   -0.56094  -0.55212  -0.53499  -0.53208  -0.53035
 Alpha  occ. eigenvalues --   -0.52800  -0.50736  -0.48770  -0.48751  -0.48731
 Alpha  occ. eigenvalues --   -0.47460  -0.46550  -0.46447  -0.44761  -0.44610
 Alpha  occ. eigenvalues --   -0.37277  -0.36317
 Alpha virt. eigenvalues --    0.05117   0.11338   0.16604   0.19308   0.22429
 Alpha virt. eigenvalues --    0.23777   0.25777   0.26032   0.26560   0.27359
 Alpha virt. eigenvalues --    0.28918   0.30470   0.30798   0.31065   0.31888

 Mulliken charges:
               1
     1  C   -0.298926
     2  C   -0.300890
     3  C   -0.479615
     4  H    0.151366
     5  H    0.152185
     6  H    0.147018
     7  H    0.155021
     8  H    0.162175
     9  H    0.159340
    10  H    0.149497
    11  C   -0.298769
    12  C   -0.300312
    13  C   -0.476113
    14  H    0.149108
    15  H    0.150774
    16  H    0.152840
    17  H    0.153054
    18  H    0.155850
    19  H    0.155492
    20  H    0.162076
    21  C   -0.176921
    22  C   -0.221012
    23  C   -0.170832
    24  C    0.158138
    25  C   -0.170702
    26  C   -0.220536
    27  H    0.236686
    28  H    0.223140
    29  H    0.275444
    30  H    0.275292
    31  H    0.223313
    32  N    0.488037
    33  O   -0.460631
    34  O   -0.460587
 Sum of Mulliken charges =  -0.00000

 Dipole moment (field-independent basis, Debye):
    X=              5.2693    Y=              1.3621    Z=             -0.7035  Tot=              5.4878
 Quadrupole moment (field-independent basis, Debye-Ang):
   XX=           -135.8277   YY=            -90.6180   ZZ=            -95.3925
   XY=             -7.0228   XZ=              3.0557   YZ=             -0.2763

 Normal termination of Gaussian 16 at Wed May  5 17:15:41 2021.
