 Gaussian 16, Revision A.03,
 Gaussian 16:  EM64L-G16RevA.03 25-Dec-2016

 -------------
 #p 6-31g* mp2
 -------------

 ------------------------------------------------------
 Input file generated by CHIRIPA (05-May-2021 14:57:26)
 ------------------------------------------------------
 Symbolic Z-matrix:
 Charge =  0 Multiplicity = 1

                         Standard orientation:
 ---------------------------------------------------------------------
 Center     Atomic      Atomic             Coordinates (Angstroms)
 Number     Number       Type             X           Y           Z
 ---------------------------------------------------------------------
      1          6           0       -2.954874    2.550845   -0.128231
      2          6           0       -3.812326    1.689573    0.564234
      3          6           0       -3.670874    0.303433    0.449537
      4          6           0       -2.656608   -0.189385   -0.370028
      5          6           0       -1.786571    0.642853   -1.072670
      6          6           0       -1.946511    2.025663   -0.943036
      7          1           0       -3.071939    3.626339   -0.033329
      8          1           0       -4.596322    2.094622    1.197740
      9          1           0       -4.320797   -0.386162    0.974394
     10          1           0       -1.014408    0.209419   -1.696623
     11          1           0       -1.279148    2.692146   -1.481990
     12          7           0       -2.497072   -1.655066   -0.499359
     13          8           0       -1.595597   -2.064197   -1.227776
     14          8           0       -3.276524   -2.366983    0.130137
     15          6           0        0.513319   -0.683382    1.471397
     16          6           0        0.898614    0.659241    1.397683
     17          6           0        2.098600    1.020551    0.777976
     18          6           0        2.892648    0.008845    0.240176
     19          6           0        2.536157   -1.337591    0.297740
     20          6           0        1.331877   -1.675763    0.922158
     21          1           0       -0.420527   -0.955068    1.954630
     22          1           0        0.264900    1.432062    1.823357
     23          1           0        2.421049    2.052246    0.706898
     24          1           0        3.188830   -2.085590   -0.135774
     25          1           0        1.035185   -2.719270    0.977937
     26          7           0        4.165292    0.379100   -0.418374
     27          8           0        4.847159   -0.531114   -0.884427
     28          8           0        4.456827    1.572510   -0.456023
 ---------------------------------------------------------------------

 SCF Done:  E(RHF) =  -868.338074960     A.U. after   16 cycles
 E2 =    -0.2603399621D+01 EUMP2 =    -0.87094147458100D+03

 The electronic state is 1-A.
 Alpha  occ. eigenvalues --  -20.61683 -20.61643 -20.60723 -20.60702 -15.86682
 Alpha  occ. eigenvalues --  -15.85762 -11.31935 -11.31064 -11.28564 -11.28464
 Alpha  occ. eigenvalues --  -11.28259 -11.27621 -11.27516 -11.27482 -11.27441
 Alpha  occ. eigenvalues --  -11.27249 -11.26656 -11.26455  -1.60744  -1.59792
 Alpha  occ. eigenvalues --   -1.40290  -1.39347  -1.20147  -1.19198  -1.09555
 Alpha  occ. eigenvalues --   -1.08607  -1.05508  -1.04564  -0.96394  -0.95463
 Alpha  occ. eigenvalues --   -0.86904  -0.85959  -0.83211  -0.82283  -0.78271
 Alpha  occ. eigenvalues --   -0.77342  -0.72905  -0.72153  -0.71976  -0.71220
 Alpha  occ. eigenvalues --   -0.71117  -0.70262  -0.65773  -0.65481  -0.64834
 Alpha  occ. eigenvalues --   -0.64532  -0.62832  -0.61905  -0.56009  -0.55088
 Alpha  occ. eigenvalues --   -0.54030  -0.53575  -0.52800  -0.52614  -0.49673
 Alpha  occ. eigenvalues --   -0.49666  -0.48743  -0.48727  -0.45713  -0.44767
 Alpha  occ. eigenvalues --   -0.38292  -0.37583  -0.36716  -0.35918
 Alpha virt. eigenvalues --    0.04148   0.05169   0.10467   0.11515   0.15686
 Alpha virt. eigenvalues --    0.16744   0.20755   0.21622   0.26687   0.27522
 Alpha virt. eigenvalues --    0.27713   0.28186   0.30436   0.31067   0.31910

 Mulliken charges:
               1
     1  C   -0.173091
     2  C   -0.220480
     3  C   -0.175284
     4  C    0.150901
     5  C   -0.162811
     6  C   -0.222785
     7  H    0.228384
     8  H    0.225455
     9  H    0.276201
    10  H    0.280623
    11  H    0.227900
    12  N    0.485898
    13  O   -0.456793
    14  O   -0.461856
    15  C   -0.179512
    16  C   -0.216398
    17  C   -0.178816
    18  C    0.157809
    19  C   -0.173005
    20  C   -0.207304
    21  H    0.226137
    22  H    0.220918
    23  H    0.271209
    24  H    0.277012
    25  H    0.233983
    26  N    0.487929
    27  O   -0.458724
    28  O   -0.463501
 Sum of Mulliken charges =  -0.00000

 Dipole moment (field-independent basis, Debye):
    X=             -5.1229    Y=              3.6905    Z=              2.6462  Tot=              6.8459
 Quadrupole moment (field-independent basis, Debye-Ang):
   XX=           -126.0934   YY=           -102.2974   ZZ=           -103.1148
   XY=            -18.6234   XZ=              1.7955   YZ=             -1.9062

 Normal termination of Gaussian 16 at Thu May  6 03:37:58 2021.
