 Gaussian 16, Revision A.03,
 Gaussian 16:  EM64L-G16RevA.03 25-Dec-2016

 -------------
 #p 6-31g* mp2
 -------------

 ------------------------------------------------------
 Input file generated by CHIRIPA (05-May-2021 14:57:23)
 ------------------------------------------------------
 Symbolic Z-matrix:
 Charge =  0 Multiplicity = 1

                         Standard orientation:
 ---------------------------------------------------------------------
 Center     Atomic      Atomic             Coordinates (Angstroms)
 Number     Number       Type             X           Y           Z
 ---------------------------------------------------------------------
      1          6           0       -5.836083    1.639087    0.536981
      2          6           0       -4.506613    2.064820    0.448769
      3          6           0       -3.491008    1.159444    0.127228
      4          6           0       -3.842122   -0.170211   -0.100865
      5          6           0       -5.157429   -0.624969   -0.020524
      6          6           0       -6.156683    0.297916    0.302466
      7          1           0       -6.618679    2.349206    0.787324
      8          1           0       -4.254700    3.105782    0.630382
      9          1           0       -2.453590    1.462040    0.052279
     10          1           0       -5.377661   -1.669071   -0.206983
     11          1           0       -7.188309   -0.035543    0.370274
     12          7           0       -2.775602   -1.137960   -0.442033
     13          8           0       -3.111010   -2.303968   -0.638410
     14          8           0       -1.624449   -0.712150   -0.506604
     15          6           0        6.390878    0.866308   -0.008715
     16          6           0        5.453853    1.343373   -0.931165
     17          6           0        4.136258    0.876382   -0.910890
     18          6           0        3.788487   -0.072001    0.049794
     19          6           0        4.699118   -0.566658    0.982187
     20          6           0        6.011189   -0.085507    0.943338
     21          1           0        7.412273    1.234578   -0.031679
     22          1           0        5.745902    2.082572   -1.671664
     23          1           0        3.390594    1.228640   -1.613255
     24          1           0        4.378244   -1.303463    1.708530
     25          1           0        6.736773   -0.457791    1.660958
     26          7           0        2.396532   -0.573880    0.081090
     27          8           0        2.115258   -1.409459    0.937436
     28          8           0        1.613148   -0.122169   -0.751320
 ---------------------------------------------------------------------

 SCF Done:  E(RHF) =  -868.334471765     A.U. after   16 cycles
 E2 =    -0.2600530449D+01 EUMP2 =    -0.87093500221452D+03

 The electronic state is 1-A.
 Alpha  occ. eigenvalues --  -20.59770 -20.59734 -20.59440 -20.59312 -15.84833
 Alpha  occ. eigenvalues --  -15.84429 -11.30579 -11.30248 -11.27197 -11.27189
 Alpha  occ. eigenvalues --  -11.27007 -11.26893 -11.26848 -11.26723 -11.26298
 Alpha  occ. eigenvalues --  -11.26285 -11.26006 -11.25990  -1.58819  -1.58463
 Alpha  occ. eigenvalues --   -1.38370  -1.37998  -1.18788  -1.18472  -1.08108
 Alpha  occ. eigenvalues --   -1.07789  -1.04248  -1.03940  -0.94878  -0.94537
 Alpha  occ. eigenvalues --   -0.85628  -0.85318  -0.81715  -0.81358  -0.76696
 Alpha  occ. eigenvalues --   -0.76335  -0.71078  -0.70550  -0.70185  -0.69894
 Alpha  occ. eigenvalues --   -0.69818  -0.69577  -0.64430  -0.64255  -0.64102
 Alpha  occ. eigenvalues --   -0.63953  -0.61592  -0.61279  -0.54734  -0.54441
 Alpha  occ. eigenvalues --   -0.52558  -0.52345  -0.52250  -0.52040  -0.47853
 Alpha  occ. eigenvalues --   -0.47766  -0.47391  -0.47299  -0.43702  -0.43306
 Alpha  occ. eigenvalues --   -0.36792  -0.36486  -0.35871  -0.35566
 Alpha virt. eigenvalues --    0.05844   0.06200   0.11777   0.12082   0.17270
 Alpha virt. eigenvalues --    0.17609   0.21869   0.22151   0.27751   0.28029
 Alpha virt. eigenvalues --    0.28791   0.29100   0.31392   0.31668   0.33042

 Mulliken charges:
               1
     1  C   -0.172316
     2  C   -0.218820
     3  C   -0.171820
     4  C    0.158907
     5  C   -0.171796
     6  C   -0.218696
     7  H    0.221987
     8  H    0.220164
     9  H    0.279297
    10  H    0.274312
    11  H    0.220308
    12  N    0.486765
    13  O   -0.467379
    14  O   -0.441688
    15  C   -0.172125
    16  C   -0.218526
    17  C   -0.172023
    18  C    0.159053
    19  C   -0.171660
    20  C   -0.218496
    21  H    0.223237
    22  H    0.221146
    23  H    0.274939
    24  H    0.275439
    25  H    0.221560
    26  N    0.486336
    27  O   -0.458314
    28  O   -0.449791
 Sum of Mulliken charges =  -0.00000

 Dipole moment (field-independent basis, Debye):
    X=              1.2894    Y=              5.0912    Z=              1.0268  Tot=              5.3514
 Quadrupole moment (field-independent basis, Debye-Ang):
   XX=            -40.5265   YY=           -103.1006   ZZ=           -103.3737
   XY=             -4.1471   XZ=             -3.1667   YZ=             -2.9121

 Normal termination of Gaussian 16 at Wed May  5 21:03:21 2021.
