 Gaussian 16, Revision A.03,
 Gaussian 16:  EM64L-G16RevA.03 25-Dec-2016

 -------------
 #p 6-31g* mp2
 -------------

 ------------------------------------------------------
 Input file generated by CHIRIPA (05-May-2021 14:53:13)
 ------------------------------------------------------
 Symbolic Z-matrix:
 Charge =  0 Multiplicity = 1

                         Standard orientation:
 ---------------------------------------------------------------------
 Center     Atomic      Atomic             Coordinates (Angstroms)
 Number     Number       Type             X           Y           Z
 ---------------------------------------------------------------------
      1          6           0       -2.210052   -0.391099   -0.476665
      2          6           0       -3.057618   -1.647599   -0.274616
      3          6           0       -2.463976   -2.877870   -0.961505
      4          1           0       -2.104551   -0.196822   -1.552802
      5          1           0       -1.197456   -0.574438   -0.091396
      6          1           0       -4.068708   -1.461475   -0.658895
      7          1           0       -3.161273   -1.838798    0.801169
      8          1           0       -1.463449   -3.091476   -0.571735
      9          1           0       -2.376040   -2.712008   -2.040096
     10          1           0       -3.085809   -3.764685   -0.804212
     11          6           0       -2.790546    0.847162    0.204117
     12          6           0       -1.942979    2.103662    0.002068
     13          6           0       -2.536622    3.333933    0.688957
     14          1           0       -3.803141    1.030502   -0.181152
     15          1           0       -2.896047    0.652885    1.280254
     16          1           0       -1.839324    2.294862   -1.073717
     17          1           0       -0.931889    1.917538    0.386347
     18          1           0       -2.624557    3.168072    1.767548
     19          1           0       -3.537148    3.547539    0.299187
     20          1           0       -1.914788    4.220749    0.531664
     21          6           0        1.398972   -1.312524    2.290903
     22          6           0        1.176271   -1.977411    1.080593
     23          6           0        1.479717   -1.358579   -0.135760
     24          6           0        2.006954   -0.068482   -0.104720
     25          6           0        2.240198    0.620049    1.084739
     26          6           0        1.929290   -0.018197    2.289116
     27          1           0        1.160349   -1.800788    3.231144
     28          1           0        0.764523   -2.982650    1.078946
     29          1           0        1.317334   -1.850292   -1.087214
     30          1           0        2.651751    1.621609    1.054396
     31          1           0        2.103294    0.500575    3.227542
     32          7           0        2.332150    0.596924   -1.386079
     33          8           0        2.795715    1.733933   -1.331728
     34          8           0        2.117313   -0.031139   -2.420496
 ---------------------------------------------------------------------

 SCF Done:  E(RHF) =  -669.534631778     A.U. after   15 cycles
 E2 =    -0.2094891988D+01 EUMP2 =    -0.67162952376618D+03

 The electronic state is 1-A.
 Alpha  occ. eigenvalues --  -20.60820 -20.60815 -15.85878 -11.31294 -11.27902
 Alpha  occ. eigenvalues --  -11.27851 -11.27635 -11.26910 -11.26884 -11.21823
 Alpha  occ. eigenvalues --  -11.21515 -11.21490 -11.21366 -11.21254 -11.21013
 Alpha  occ. eigenvalues --   -1.59893  -1.39445  -1.19502  -1.08868  -1.08465
 Alpha  occ. eigenvalues --   -1.04916  -1.03627  -0.96086  -0.95694  -0.87112
 Alpha  occ. eigenvalues --   -0.86289  -0.82528  -0.79690  -0.78275  -0.77555
 Alpha  occ. eigenvalues --   -0.72095  -0.71217  -0.70585  -0.65184  -0.65087
 Alpha  occ. eigenvalues --   -0.64889  -0.62264  -0.61028  -0.59454  -0.57691
 Alpha  occ. eigenvalues --   -0.55458  -0.55350  -0.53341  -0.52984  -0.52774
 Alpha  occ. eigenvalues --   -0.52499  -0.50052  -0.48859  -0.48845  -0.48019
 Alpha  occ. eigenvalues --   -0.46739  -0.45787  -0.45656  -0.44834  -0.43840
 Alpha  occ. eigenvalues --   -0.37463  -0.36388
 Alpha virt. eigenvalues --    0.04949   0.11066   0.16313   0.20300   0.22995
 Alpha virt. eigenvalues --    0.23902   0.25862   0.26794   0.27326   0.27989
 Alpha virt. eigenvalues --    0.29032   0.30044   0.31501   0.31770   0.32423

 Mulliken charges:
               1
     1  C   -0.309886
     2  C   -0.298284
     3  C   -0.476270
     4  H    0.153632
     5  H    0.159307
     6  H    0.153896
     7  H    0.148108
     8  H    0.142866
     9  H    0.160642
    10  H    0.160833
    11  C   -0.296595
    12  C   -0.302037
    13  C   -0.475874
    14  H    0.149400
    15  H    0.145821
    16  H    0.157301
    17  H    0.150243
    18  H    0.151766
    19  H    0.155574
    20  H    0.162148
    21  C   -0.170974
    22  C   -0.218132
    23  C   -0.176026
    24  C    0.164119
    25  C   -0.171880
    26  C   -0.218494
    27  H    0.226447
    28  H    0.225688
    29  H    0.277725
    30  H    0.276547
    31  H    0.224282
    32  N    0.488420
    33  O   -0.460283
    34  O   -0.460028
 Sum of Mulliken charges =  -0.00000

 Dipole moment (field-independent basis, Debye):
    X=             -1.0437    Y=             -2.2953    Z=              4.4506  Tot=              5.1152
 Quadrupole moment (field-independent basis, Debye-Ang):
   XX=            -99.5037   YY=            -92.4966   ZZ=            -94.2630
   XY=             -3.0913   XZ=             11.0219   YZ=              1.5198

 Normal termination of Gaussian 16 at Wed May  5 18:33:41 2021.
