 Gaussian 16, Revision A.03,
 Gaussian 16:  EM64L-G16RevA.03 25-Dec-2016

 -------------
 #p 6-31g* mp2
 -------------

 ------------------------------------------------------
 Input file generated by CHIRIPA (05-May-2021 14:57:27)
 ------------------------------------------------------
 Symbolic Z-matrix:
 Charge =  0 Multiplicity = 1

                         Standard orientation:
 ---------------------------------------------------------------------
 Center     Atomic      Atomic             Coordinates (Angstroms)
 Number     Number       Type             X           Y           Z
 ---------------------------------------------------------------------
      1          6           0       -1.273286   -0.597899    0.180282
      2          6           0       -1.681491    0.669779   -0.247365
      3          6           0       -3.040304    0.971453   -0.378392
      4          6           0       -3.968090   -0.022819   -0.071918
      5          6           0       -3.592787   -1.295175    0.356509
      6          6           0       -2.228553   -1.574608    0.480325
      7          1           0       -0.215622   -0.823607    0.279266
      8          1           0       -0.941836    1.430261   -0.481079
      9          1           0       -3.384031    1.944609   -0.707387
     10          1           0       -4.353473   -2.032646    0.582145
     11          1           0       -1.914440   -2.559967    0.812658
     12          7           0       -5.409474    0.284776   -0.206813
     13          8           0       -6.207133   -0.608583    0.069390
     14          8           0       -5.714280    1.413404   -0.586192
     15          6           0        3.524342    2.559457    0.428498
     16          6           0        2.649863    1.678266    1.072945
     17          6           0        2.754879    0.298945    0.870479
     18          6           0        3.750466   -0.166817    0.013063
     19          6           0        4.636710    0.685728   -0.643466
     20          6           0        4.513230    2.061254   -0.426144
     21          1           0        3.435591    3.629473    0.591549
     22          1           0        1.880924    2.062347    1.737218
     23          1           0        2.091105   -0.405661    1.356638
     24          1           0        5.393157    0.273026   -1.299883
     25          1           0        5.193747    2.743248   -0.927967
     26          7           0        3.871415   -1.625033   -0.209143
     27          8           0        4.757032   -2.010184   -0.969392
     28          8           0        3.078308   -2.355221    0.381150
 ---------------------------------------------------------------------

 SCF Done:  E(RHF) =  -868.338105690     A.U. after   16 cycles
 E2 =    -0.2599895775D+01 EUMP2 =    -0.87093800146569D+03

 The electronic state is 1-A.
 Alpha  occ. eigenvalues --  -20.61779 -20.61736 -20.60830 -20.60820 -15.86809
 Alpha  occ. eigenvalues --  -15.85881 -11.32223 -11.31255 -11.28860 -11.28711
 Alpha  occ. eigenvalues --  -11.28459 -11.27852 -11.27826 -11.27784 -11.27723
 Alpha  occ. eigenvalues --  -11.27543 -11.26885 -11.26767  -1.60826  -1.59903
 Alpha  occ. eigenvalues --   -1.40383  -1.39456  -1.20380  -1.19424  -1.09749
 Alpha  occ. eigenvalues --   -1.08817  -1.05790  -1.04827  -0.96586  -0.95651
 Alpha  occ. eigenvalues --   -0.87176  -0.86220  -0.83416  -0.82484  -0.78479
 Alpha  occ. eigenvalues --   -0.77529  -0.73022  -0.72150  -0.72098  -0.71493
 Alpha  occ. eigenvalues --   -0.71226  -0.70514  -0.66022  -0.65766  -0.65073
 Alpha  occ. eigenvalues --   -0.64826  -0.63136  -0.62170  -0.56255  -0.55336
 Alpha  occ. eigenvalues --   -0.54096  -0.53833  -0.53160  -0.52910  -0.49791
 Alpha  occ. eigenvalues --   -0.49769  -0.48857  -0.48853  -0.45775  -0.44859
 Alpha  occ. eigenvalues --   -0.38330  -0.37443  -0.37366  -0.36434
 Alpha virt. eigenvalues --    0.04011   0.04993   0.10143   0.11212   0.15523
 Alpha virt. eigenvalues --    0.16451   0.19531   0.21844   0.25447   0.26511
 Alpha virt. eigenvalues --    0.27466   0.29041   0.29848   0.30810   0.32506

 Mulliken charges:
               1
     1  C   -0.177408
     2  C   -0.221781
     3  C   -0.171042
     4  C    0.158629
     5  C   -0.170814
     6  C   -0.219417
     7  H    0.231005
     8  H    0.220125
     9  H    0.274388
    10  H    0.276588
    11  H    0.229340
    12  N    0.488043
    13  O   -0.459494
    14  O   -0.461233
    15  C   -0.170971
    16  C   -0.221879
    17  C   -0.179630
    18  C    0.160601
    19  C   -0.169989
    20  C   -0.217277
    21  H    0.229328
    22  H    0.226148
    23  H    0.271823
    24  H    0.278787
    25  H    0.227589
    26  N    0.488794
    27  O   -0.454840
    28  O   -0.465409
 Sum of Mulliken charges =  -0.00000

 Dipole moment (field-independent basis, Debye):
    X=              4.9343    Y=              4.0613    Z=              1.1948  Tot=              6.5014
 Quadrupole moment (field-independent basis, Debye-Ang):
   XX=           -144.6068   YY=           -102.2655   ZZ=           -103.7878
   XY=             26.2617   XZ=             -2.8001   YZ=             -2.1330

 Normal termination of Gaussian 16 at Fri May  7 02:03:26 2021.
