 Gaussian 16, Revision A.03,
 Gaussian 16:  EM64L-G16RevA.03 25-Dec-2016

 -------------
 #p 6-31g* mp2
 -------------

 ------------------------------------------------------
 Input file generated by CHIRIPA (05-May-2021 14:53:15)
 ------------------------------------------------------
 Symbolic Z-matrix:
 Charge =  0 Multiplicity = 1

                         Standard orientation:
 ---------------------------------------------------------------------
 Center     Atomic      Atomic             Coordinates (Angstroms)
 Number     Number       Type             X           Y           Z
 ---------------------------------------------------------------------
      1          6           0        4.549480   -0.423236   -0.115383
      2          6           0        5.963864   -0.760842    0.357401
      3          6           0        6.245045   -2.263748    0.354885
      4          1           0        3.822168   -0.934867    0.529749
      5          1           0        4.403921   -0.822742   -1.128597
      6          1           0        6.107178   -0.359617    1.368883
      7          1           0        6.687890   -0.248195   -0.288814
      8          1           0        6.129486   -2.675602   -0.652897
      9          1           0        5.545474   -2.787657    1.014219
     10          1           0        7.261618   -2.482558    0.696296
     11          6           0        4.253289    1.075426   -0.118410
     12          6           0        2.838905    1.413033   -0.591194
     13          6           0        2.557724    2.915938   -0.588678
     14          1           0        4.398848    1.474932    0.894804
     15          1           0        4.980601    1.587058   -0.763542
     16          1           0        2.114879    0.900385    0.055021
     17          1           0        2.695591    1.011807   -1.602676
     18          1           0        3.257295    3.439847   -1.248012
     19          1           0        2.673283    3.327792    0.419104
     20          1           0        1.541151    3.134749   -0.930089
     21          6           0       -0.930638   -0.368886    0.342562
     22          6           0       -1.561270   -1.052124   -0.702431
     23          6           0       -2.950238   -0.995974   -0.851302
     24          6           0       -3.681040   -0.243728    0.067036
     25          6           0       -3.081869    0.447996    1.118607
     26          6           0       -1.691608    0.377678    1.248149
     27          1           0        0.148847   -0.418007    0.450700
     28          1           0       -0.972822   -1.632694   -1.407209
     29          1           0       -3.464166   -1.515210   -1.651107
     30          1           0       -3.695139    1.018525    1.805495
     31          1           0       -1.204547    0.909307    2.060668
     32          7           0       -5.152163   -0.176786   -0.080335
     33          8           0       -5.773479    0.492876    0.741953
     34          8           0       -5.656055   -0.795245   -1.015342
 ---------------------------------------------------------------------

 SCF Done:  E(RHF) =  -669.535490986     A.U. after   15 cycles
 E2 =    -0.2091041861D+01 EUMP2 =    -0.67162653284679D+03

 The electronic state is 1-A.
 Alpha  occ. eigenvalues --  -20.60738 -20.60733 -15.85792 -11.31153 -11.27723
 Alpha  occ. eigenvalues --  -11.27719 -11.27433 -11.26735 -11.26722 -11.22688
 Alpha  occ. eigenvalues --  -11.22311 -11.22269 -11.22217 -11.21902 -11.21682
 Alpha  occ. eigenvalues --   -1.59814  -1.39367  -1.19324  -1.09299  -1.08717
 Alpha  occ. eigenvalues --   -1.04728  -1.04351  -0.96767  -0.95555  -0.87784
 Alpha  occ. eigenvalues --   -0.86123  -0.82392  -0.80439  -0.79121  -0.77436
 Alpha  occ. eigenvalues --   -0.72009  -0.71137  -0.70446  -0.65931  -0.64975
 Alpha  occ. eigenvalues --   -0.64731  -0.62076  -0.61753  -0.60148  -0.58389
 Alpha  occ. eigenvalues --   -0.56053  -0.55242  -0.53452  -0.53183  -0.53055
 Alpha  occ. eigenvalues --   -0.52818  -0.50710  -0.48789  -0.48765  -0.48710
 Alpha  occ. eigenvalues --   -0.47476  -0.46649  -0.46567  -0.44774  -0.44605
 Alpha  occ. eigenvalues --   -0.37293  -0.36335
 Alpha virt. eigenvalues --    0.05084   0.11318   0.16520   0.19702   0.22462
 Alpha virt. eigenvalues --    0.23712   0.24809   0.26202   0.27167   0.27421
 Alpha virt. eigenvalues --    0.29121   0.30460   0.30969   0.31239   0.32251

 Mulliken charges:
               1
     1  C   -0.298243
     2  C   -0.300113
     3  C   -0.476189
     4  H    0.144021
     5  H    0.150026
     6  H    0.153086
     7  H    0.154185
     8  H    0.155755
     9  H    0.154754
    10  H    0.162774
    11  C   -0.298173
    12  C   -0.303001
    13  C   -0.476526
    14  H    0.150826
    15  H    0.153649
    16  H    0.141904
    17  H    0.153681
    18  H    0.159297
    19  H    0.155676
    20  H    0.163168
    21  C   -0.173908
    22  C   -0.220233
    23  C   -0.170934
    24  C    0.158417
    25  C   -0.170943
    26  C   -0.220446
    27  H    0.232717
    28  H    0.223888
    29  H    0.275435
    30  H    0.275466
    31  H    0.223015
    32  N    0.488039
    33  O   -0.460550
    34  O   -0.460521
 Sum of Mulliken charges =  -0.00000

 Dipole moment (field-independent basis, Debye):
    X=              5.3971    Y=             -0.1677    Z=              0.4681  Tot=              5.4199
 Quadrupole moment (field-independent basis, Debye-Ang):
   XX=           -132.7261   YY=            -94.2817   ZZ=            -90.7615
   XY=             -0.0206   XZ=             -2.2946   YZ=              2.5614

 Normal termination of Gaussian 16 at Thu May  6 12:10:27 2021.
