 Gaussian 16, Revision A.03,
 Gaussian 16:  EM64L-G16RevA.03 25-Dec-2016

 -------------
 #p 6-31g* mp2
 -------------

 ------------------------------------------------------
 Input file generated by CHIRIPA (05-May-2021 14:53:15)
 ------------------------------------------------------
 Symbolic Z-matrix:
 Charge =  0 Multiplicity = 1

                         Standard orientation:
 ---------------------------------------------------------------------
 Center     Atomic      Atomic             Coordinates (Angstroms)
 Number     Number       Type             X           Y           Z
 ---------------------------------------------------------------------
      1          6           0       -4.464033   -0.113753   -0.269668
      2          6           0       -4.363122   -1.620893   -0.032329
      3          6           0       -5.700680   -2.338892   -0.214563
      4          1           0       -5.206578    0.310678    0.419847
      5          1           0       -4.842254    0.065893   -1.285577
      6          1           0       -3.983893   -1.797631    0.982346
      7          1           0       -3.620592   -2.041756   -0.722358
      8          1           0       -6.081471   -2.192039   -1.230453
      9          1           0       -6.446837   -1.946527    0.483936
     10          1           0       -5.605609   -3.415186   -0.040169
     11          6           0       -3.134945    0.617959   -0.091202
     12          6           0       -3.235857    2.125100   -0.328541
     13          6           0       -1.898298    2.843098   -0.146307
     14          1           0       -2.756724    0.438313    0.924707
     15          1           0       -2.392400    0.193528   -0.780717
     16          1           0       -3.978387    2.545962    0.361488
     17          1           0       -3.615085    2.301837   -1.343216
     18          1           0       -1.152142    2.450733   -0.844806
     19          1           0       -1.517507    2.696246    0.869583
     20          1           0       -1.993369    3.919392   -0.320701
     21          6           0        0.625038    0.299438    0.933681
     22          6           0        1.060410   -1.025148    0.822135
     23          6           0        2.356677   -1.311954    0.383977
     24          6           0        3.194894   -0.244945    0.064328
     25          6           0        2.790441    1.085303    0.165060
     26          6           0        1.489918    1.348587    0.605367
     27          1           0       -0.383587    0.513099    1.274886
     28          1           0        0.390905   -1.841940    1.076418
     29          1           0        2.719598   -2.328112    0.288441
     30          1           0        3.480725    1.878358   -0.095692
     31          1           0        1.154514    2.378252    0.691033
     32          7           0        4.569447   -0.536122   -0.400668
     33          8           0        5.288593    0.421781   -0.676141
     34          8           0        4.901646   -1.716736   -0.480853
 ---------------------------------------------------------------------

 SCF Done:  E(RHF) =  -669.534429495     A.U. after   15 cycles
 E2 =    -0.2093203134D+01 EUMP2 =    -0.67162763262945D+03

 The electronic state is 1-A.
 Alpha  occ. eigenvalues --  -20.60672 -20.60667 -15.85725 -11.31055 -11.27632
 Alpha  occ. eigenvalues --  -11.27618 -11.27255 -11.26613 -11.26564 -11.22718
 Alpha  occ. eigenvalues --  -11.22593 -11.22466 -11.22362 -11.22301 -11.21750
 Alpha  occ. eigenvalues --   -1.59749  -1.39303  -1.19223  -1.09487  -1.08611
 Alpha  occ. eigenvalues --   -1.04636  -1.04527  -0.97012  -0.95459  -0.88039
 Alpha  occ. eigenvalues --   -0.86008  -0.82306  -0.80634  -0.79322  -0.77349
 Alpha  occ. eigenvalues --   -0.71943  -0.71073  -0.70328  -0.66097  -0.64871
 Alpha  occ. eigenvalues --   -0.64635  -0.61990  -0.61923  -0.60382  -0.58605
 Alpha  occ. eigenvalues --   -0.56305  -0.55138  -0.53659  -0.53481  -0.52949
 Alpha  occ. eigenvalues --   -0.52670  -0.50945  -0.48891  -0.48700  -0.48694
 Alpha  occ. eigenvalues --   -0.47637  -0.46790  -0.46728  -0.44795  -0.44717
 Alpha  occ. eigenvalues --   -0.37154  -0.36231
 Alpha virt. eigenvalues --    0.05165   0.11333   0.16618   0.20052   0.22277
 Alpha virt. eigenvalues --    0.23564   0.24978   0.25512   0.26417   0.28168
 Alpha virt. eigenvalues --    0.29280   0.29856   0.30799   0.30947   0.31545

 Mulliken charges:
               1
     1  C   -0.297851
     2  C   -0.300756
     3  C   -0.476204
     4  H    0.152067
     5  H    0.153615
     6  H    0.148893
     7  H    0.152586
     8  H    0.157478
     9  H    0.156649
    10  H    0.162195
    11  C   -0.305111
    12  C   -0.299390
    13  C   -0.484671
    14  H    0.140526
    15  H    0.154644
    16  H    0.155343
    17  H    0.157766
    18  H    0.162073
    19  H    0.145130
    20  H    0.166665
    21  C   -0.172901
    22  C   -0.222410
    23  C   -0.170993
    24  C    0.157915
    25  C   -0.171659
    26  C   -0.223597
    27  H    0.235203
    28  H    0.223225
    29  H    0.274961
    30  H    0.275042
    31  H    0.227317
    32  N    0.488037
    33  O   -0.460853
    34  O   -0.460934
 Sum of Mulliken charges =  -0.00000

 Dipole moment (field-independent basis, Debye):
    X=             -5.1549    Y=              1.0685    Z=              1.5041  Tot=              5.4752
 Quadrupole moment (field-independent basis, Debye-Ang):
   XX=           -126.1169   YY=            -90.6016   ZZ=            -94.3737
   XY=              4.8557   XZ=              4.9489   YZ=             -0.9253

 Normal termination of Gaussian 16 at Wed May  5 20:18:41 2021.
