 Gaussian 16, Revision A.03,
 Gaussian 16:  EM64L-G16RevA.03 25-Dec-2016

 -------------
 #p 6-31g* mp2
 -------------

 ------------------------------------------------------
 Input file generated by CHIRIPA (05-May-2021 14:53:13)
 ------------------------------------------------------
 Symbolic Z-matrix:
 Charge =  0 Multiplicity = 1

                         Standard orientation:
 ---------------------------------------------------------------------
 Center     Atomic      Atomic             Coordinates (Angstroms)
 Number     Number       Type             X           Y           Z
 ---------------------------------------------------------------------
      1          6           0        4.103167    0.844229    0.073854
      2          6           0        2.751430    1.497399   -0.216251
      3          6           0        2.790937    3.020404   -0.087060
      4          1           0        4.426264    1.119426    1.087175
      5          1           0        4.855200    1.252239   -0.615616
      6          1           0        2.001878    1.087264    0.472644
      7          1           0        2.431423    1.220459   -1.228928
      8          1           0        3.517772    3.447546   -0.785530
      9          1           0        3.085786    3.313594    0.925710
     10          1           0        1.814273    3.466730   -0.298672
     11          6           0        4.079684   -0.678114   -0.051240
     12          6           0        5.431421   -1.331285    0.238864
     13          6           0        5.391913   -2.854289    0.109674
     14          1           0        3.327650   -1.086125    0.638229
     15          1           0        3.756587   -0.953312   -1.064561
     16          1           0        5.751427   -1.054344    1.251542
     17          1           0        6.180973   -0.921149   -0.450031
     18          1           0        5.097064   -3.147480   -0.903097
     19          1           0        4.665078   -3.281432    0.808144
     20          1           0        6.368577   -3.300616    0.321286
     21          6           0       -1.506591    1.808678   -0.020204
     22          6           0       -1.096969    0.495031   -0.271327
     23          6           0       -2.024576   -0.550950   -0.267546
     24          6           0       -3.359793   -0.246018   -0.007734
     25          6           0       -3.798882    1.052475    0.246048
     26          6           0       -2.853865    2.082724    0.237228
     27          1           0       -0.779240    2.615110   -0.025098
     28          1           0       -0.051315    0.279252   -0.471559
     29          1           0       -1.734790   -1.577043   -0.458796
     30          1           0       -4.848167    1.236492    0.442408
     31          1           0       -3.174847    3.101965    0.432585
     32          7           0       -4.351026   -1.345024   -0.001064
     33          8           0       -5.521506   -1.050136    0.230567
     34          8           0       -3.938703   -2.480503   -0.227594
 ---------------------------------------------------------------------

 SCF Done:  E(RHF) =  -669.535382220     A.U. after   15 cycles
 E2 =    -0.2091840202D+01 EUMP2 =    -0.67162722242183D+03

 The electronic state is 1-A.
 Alpha  occ. eigenvalues --  -20.60701 -20.60696 -15.85753 -11.31100 -11.27670
 Alpha  occ. eigenvalues --  -11.27646 -11.27390 -11.26685 -11.26587 -11.22903
 Alpha  occ. eigenvalues --  -11.22337 -11.22332 -11.22219 -11.22158 -11.21537
 Alpha  occ. eigenvalues --   -1.59777  -1.39331  -1.19265  -1.09351  -1.08662
 Alpha  occ. eigenvalues --   -1.04668  -1.04436  -0.96861  -0.95503  -0.87882
 Alpha  occ. eigenvalues --   -0.86066  -0.82337  -0.80569  -0.79133  -0.77379
 Alpha  occ. eigenvalues --   -0.71972  -0.71100  -0.70385  -0.65974  -0.64914
 Alpha  occ. eigenvalues --   -0.64683  -0.62059  -0.61794  -0.60268  -0.58472
 Alpha  occ. eigenvalues --   -0.56112  -0.55189  -0.53586  -0.53283  -0.52998
 Alpha  occ. eigenvalues --   -0.52752  -0.50788  -0.48892  -0.48728  -0.48651
 Alpha  occ. eigenvalues --   -0.47573  -0.46645  -0.46548  -0.44741  -0.44683
 Alpha  occ. eigenvalues --   -0.37246  -0.36265
 Alpha virt. eigenvalues --    0.05142   0.11313   0.16640   0.19133   0.22396
 Alpha virt. eigenvalues --    0.23665   0.25030   0.25735   0.25822   0.28410
 Alpha virt. eigenvalues --    0.28738   0.30275   0.30538   0.31694   0.32691

 Mulliken charges:
               1
     1  C   -0.297348
     2  C   -0.309969
     3  C   -0.476819
     4  H    0.152999
     5  H    0.153062
     6  H    0.150445
     7  H    0.151892
     8  H    0.161615
     9  H    0.160354
    10  H    0.152754
    11  C   -0.300315
    12  C   -0.300237
    13  C   -0.476495
    14  H    0.149028
    15  H    0.149548
    16  H    0.153521
    17  H    0.153378
    18  H    0.156014
    19  H    0.156393
    20  H    0.162633
    21  C   -0.176195
    22  C   -0.225938
    23  C   -0.172114
    24  C    0.158729
    25  C   -0.171208
    26  C   -0.219209
    27  H    0.229691
    28  H    0.233230
    29  H    0.275533
    30  H    0.275191
    31  H    0.223224
    32  N    0.487968
    33  O   -0.460726
    34  O   -0.460631
 Sum of Mulliken charges =  -0.00000

 Dipole moment (field-independent basis, Debye):
    X=              3.8160    Y=              3.8628    Z=             -0.0037  Tot=              5.4298
 Quadrupole moment (field-independent basis, Debye-Ang):
   XX=           -114.7022   YY=            -95.8883   ZZ=            -94.4041
   XY=            -16.4676   XZ=             -1.0132   YZ=              0.6617

 Normal termination of Gaussian 16 at Thu May  6 07:21:35 2021.
