 Gaussian 16, Revision A.03,
 Gaussian 16:  EM64L-G16RevA.03 25-Dec-2016

 -------------
 #p 6-31g* mp2
 -------------

 ------------------------------------------------------
 Input file generated by CHIRIPA (05-May-2021 14:51:11)
 ------------------------------------------------------
 Symbolic Z-matrix:
 Charge =  0 Multiplicity = 1

                         Standard orientation:
 ---------------------------------------------------------------------
 Center     Atomic      Atomic             Coordinates (Angstroms)
 Number     Number       Type             X           Y           Z
 ---------------------------------------------------------------------
      1          6           0        1.884705    1.256796    0.328477
      2          6           0        1.525316    2.650843   -0.186750
      3          6           0        0.267123    3.218075    0.471271
      4          1           0        1.039006    0.578208    0.151685
      5          1           0        2.027418    1.301365    1.417073
      6          1           0        1.384680    2.603936   -1.274241
      7          1           0        2.372043    3.326145   -0.008884
      8          1           0        0.400035    3.293716    1.555344
      9          1           0       -0.592938    2.567403    0.282797
     10          1           0        0.028521    4.215214    0.088331
     11          6           0        3.140244    0.676351   -0.319932
     12          6           0        3.499633   -0.717695    0.195295
     13          6           0        4.757826   -1.284928   -0.462726
     14          1           0        2.997531    0.631783   -1.408528
     15          1           0        3.985943    1.354939   -0.143140
     16          1           0        2.652906   -1.392998    0.017430
     17          1           0        3.640269   -0.670788    1.282787
     18          1           0        5.617887   -0.634255   -0.274252
     19          1           0        4.624914   -1.360569   -1.546799
     20          1           0        4.996428   -2.282066   -0.079785
     21          6           0       -1.784966   -1.151206    0.137412
     22          6           0       -1.516296   -2.654834    0.067395
     23          6           0       -0.056466   -3.008442    0.353140
     24          1           0       -1.133741   -0.634964   -0.581159
     25          1           0       -1.505546   -0.781876    1.133863
     26          1           0       -1.797438   -3.021472   -0.928173
     27          1           0       -2.168373   -3.167575    0.786080
     28          1           0        0.233197   -2.670153    1.353268
     29          1           0        0.606241   -2.523219   -0.370723
     30          1           0        0.113286   -4.088251    0.297840
     31          6           0       -3.239983   -0.781941   -0.145958
     32          6           0       -3.508652    0.721687   -0.075940
     33          6           0       -4.968484    1.075295   -0.361686
     34          1           0       -3.519403   -1.151271   -1.142409
     35          1           0       -3.891208   -1.298184    0.572613
     36          1           0       -2.856576    1.234428   -0.794625
     37          1           0       -3.227512    1.088324    0.919627
     38          1           0       -5.631189    0.590070    0.362178
     39          1           0       -5.258147    0.737005   -1.361814
     40          1           0       -5.138235    2.155103   -0.306386
 ---------------------------------------------------------------------

 SCF Done:  E(RHF) =  -470.732770697     A.U. after   11 cycles
 E2 =    -0.1584668335D+01 EUMP2 =    -0.47231743903253D+03

 The electronic state is 1-A.
 Alpha  occ. eigenvalues --  -11.21679 -11.21666 -11.21523 -11.21487 -11.21463
 Alpha  occ. eigenvalues --  -11.21424 -11.21304 -11.21232 -11.21135 -11.21111
 Alpha  occ. eigenvalues --  -11.20995 -11.20967  -1.08518  -1.08332  -1.03605
 Alpha  occ. eigenvalues --   -1.03436  -0.96053  -0.95888  -0.87087  -0.86891
 Alpha  occ. eigenvalues --   -0.79717  -0.79468  -0.78448  -0.78033  -0.65199
 Alpha  occ. eigenvalues --   -0.64926  -0.61042  -0.60820  -0.59425  -0.59263
 Alpha  occ. eigenvalues --   -0.57683  -0.57477  -0.55364  -0.55163  -0.52741
 Alpha  occ. eigenvalues --   -0.52616  -0.52545  -0.52236  -0.50063  -0.49760
 Alpha  occ. eigenvalues --   -0.48174  -0.47707  -0.46771  -0.46579  -0.46213
 Alpha  occ. eigenvalues --   -0.45804  -0.45643  -0.45003  -0.43855  -0.43687
 Alpha virt. eigenvalues --    0.20666   0.22450   0.23632   0.24327   0.25331
 Alpha virt. eigenvalues --    0.26415   0.27040   0.27389   0.28376   0.29874
 Alpha virt. eigenvalues --    0.30971   0.31224   0.31520   0.31757   0.31974

 Mulliken charges:
               1
     1  C   -0.305993
     2  C   -0.298920
     3  C   -0.480674
     4  H    0.157821
     5  H    0.148793
     6  H    0.150745
     7  H    0.151622
     8  H    0.154512
     9  H    0.160615
    10  H    0.159518
    11  C   -0.297409
    12  C   -0.307908
    13  C   -0.475118
    14  H    0.148139
    15  H    0.149272
    16  H    0.161027
    17  H    0.151316
    18  H    0.154818
    19  H    0.154377
    20  H    0.160118
    21  C   -0.302515
    22  C   -0.299627
    23  C   -0.480185
    24  H    0.151680
    25  H    0.151479
    26  H    0.151885
    27  H    0.152403
    28  H    0.157024
    29  H    0.158377
    30  H    0.160863
    31  C   -0.297933
    32  C   -0.302735
    33  C   -0.475710
    34  H    0.149543
    35  H    0.150101
    36  H    0.153548
    37  H    0.153672
    38  H    0.155372
    39  H    0.155192
    40  H    0.160898
 Sum of Mulliken charges =  -0.00000

 Dipole moment (field-independent basis, Debye):
    X=             -0.0938    Y=             -0.0661    Z=              0.0209  Tot=              0.1167
 Quadrupole moment (field-independent basis, Debye-Ang):
   XX=            -86.3460   YY=            -85.1215   ZZ=            -83.4100
   XY=              1.0976   XZ=              0.3744   YZ=              0.0641

 Normal termination of Gaussian 16 at Wed May  5 18:15:21 2021.
