 Gaussian 16, Revision A.03,
 Gaussian 16:  EM64L-G16RevA.03 25-Dec-2016

 -------------
 #p 6-31g* mp2
 -------------

 ------------------------------------------------------
 Input file generated by CHIRIPA (05-May-2021 14:57:21)
 ------------------------------------------------------
 Symbolic Z-matrix:
 Charge =  0 Multiplicity = 1

                         Standard orientation:
 ---------------------------------------------------------------------
 Center     Atomic      Atomic             Coordinates (Angstroms)
 Number     Number       Type             X           Y           Z
 ---------------------------------------------------------------------
      1          6           0        1.350978   -0.519838    0.442005
      2          6           0        2.121739   -1.374962   -0.352483
      3          6           0        3.484915   -1.130303   -0.543377
      4          6           0        4.047314   -0.016325    0.077952
      5          6           0        3.305884    0.854176    0.875321
      6          6           0        1.944464    0.590045    1.052296
      7          1           0        0.292713   -0.717458    0.584890
      8          1           0        1.663504   -2.237668   -0.827670
      9          1           0        4.104993   -1.775970   -1.153325
     10          1           0        3.790846    1.706199    1.336068
     11          1           0        1.348332    1.255859    1.669842
     12          7           0        5.489518    0.252992   -0.116772
     13          8           0        5.961209    1.241133    0.441548
     14          8           0        6.120918   -0.529158   -0.824029
     15          6           0       -3.805703    2.557570   -0.472822
     16          6           0       -2.672008    1.802303   -0.790360
     17          6           0       -2.662936    0.418212   -0.593494
     18          6           0       -3.810001   -0.180676   -0.074973
     19          6           0       -4.954988    0.544533    0.251168
     20          6           0       -4.941572    1.927385    0.046014
     21          1           0       -3.804017    3.632284   -0.628970
     22          1           0       -1.788456    2.289033   -1.193442
     23          1           0       -1.798908   -0.190563   -0.830703
     24          1           0       -5.820777    0.031093    0.651426
     25          1           0       -5.823444    2.511412    0.293522
     26          7           0       -3.812299   -1.645296    0.137827
     27          8           0       -4.835513   -2.149070    0.595957
     28          8           0       -2.790844   -2.261757   -0.157539
 ---------------------------------------------------------------------

 SCF Done:  E(RHF) =  -868.338481232     A.U. after   16 cycles
 E2 =    -0.2599530690D+01 EUMP2 =    -0.87093801192209D+03

 The electronic state is 1-A.
 Alpha  occ. eigenvalues --  -20.61749 -20.61698 -20.60833 -20.60824 -15.86768
 Alpha  occ. eigenvalues --  -15.85883 -11.32087 -11.31264 -11.28694 -11.28576
 Alpha  occ. eigenvalues --  -11.28300 -11.27843 -11.27782 -11.27635 -11.27577
 Alpha  occ. eigenvalues --  -11.27525 -11.26879 -11.26765  -1.60789  -1.59906
 Alpha  occ. eigenvalues --   -1.40350  -1.39459  -1.20234  -1.19426  -1.09624
 Alpha  occ. eigenvalues --   -1.08818  -1.05628  -1.04823  -0.96477  -0.95651
 Alpha  occ. eigenvalues --   -0.87025  -0.86213  -0.83310  -0.82480  -0.78386
 Alpha  occ. eigenvalues --   -0.77526  -0.72987  -0.72108  -0.72099  -0.71358
 Alpha  occ. eigenvalues --   -0.71230  -0.70499  -0.65879  -0.65612  -0.65070
 Alpha  occ. eigenvalues --   -0.64806  -0.62984  -0.62159  -0.56111  -0.55305
 Alpha  occ. eigenvalues --   -0.53950  -0.53684  -0.53162  -0.52898  -0.49757
 Alpha  occ. eigenvalues --   -0.49723  -0.48859  -0.48855  -0.45762  -0.44861
 Alpha  occ. eigenvalues --   -0.38186  -0.37435  -0.37217  -0.36433
 Alpha virt. eigenvalues --    0.04112   0.04969   0.10348   0.11211   0.15674
 Alpha virt. eigenvalues --    0.16363   0.19862   0.21779   0.25734   0.26945
 Alpha virt. eigenvalues --    0.27441   0.28957   0.30249   0.30902   0.32341

 Mulliken charges:
               1
     1  C   -0.181462
     2  C   -0.220182
     3  C   -0.171230
     4  C    0.158777
     5  C   -0.171602
     6  C   -0.220547
     7  H    0.233616
     8  H    0.230935
     9  H    0.276633
    10  H    0.274843
    11  H    0.221918
    12  N    0.488006
    13  O   -0.460973
    14  O   -0.459530
    15  C   -0.170589
    16  C   -0.219869
    17  C   -0.178347
    18  C    0.159859
    19  C   -0.170363
    20  C   -0.217681
    21  H    0.228888
    22  H    0.226614
    23  H    0.271236
    24  H    0.277896
    25  H    0.226757
    26  N    0.489006
    27  O   -0.454863
    28  O   -0.467745
 Sum of Mulliken charges =  -0.00000

 Dipole moment (field-independent basis, Debye):
    X=             -5.3197    Y=              4.2348    Z=             -0.0762  Tot=              6.7999
 Quadrupole moment (field-independent basis, Debye-Ang):
   XX=           -140.9977   YY=           -103.7761   ZZ=           -103.6391
   XY=            -24.8087   XZ=              2.9966   YZ=              2.4160

 Normal termination of Gaussian 16 at Thu May  6 11:10:44 2021.
