 Gaussian 16, Revision A.03,
 Gaussian 16:  EM64L-G16RevA.03 25-Dec-2016

 -------------
 #p 6-31g* mp2
 -------------

 ------------------------------------------------------
 Input file generated by CHIRIPA (05-May-2021 14:53:15)
 ------------------------------------------------------
 Symbolic Z-matrix:
 Charge =  0 Multiplicity = 1

                         Standard orientation:
 ---------------------------------------------------------------------
 Center     Atomic      Atomic             Coordinates (Angstroms)
 Number     Number       Type             X           Y           Z
 ---------------------------------------------------------------------
      1          6           0        3.460216   -0.728102    0.086895
      2          6           0        4.070070    0.670576   -0.011913
      3          6           0        5.445006    0.764112    0.650352
      4          1           0        3.379142   -1.011910    1.145113
      5          1           0        4.142850   -1.451941   -0.379434
      6          1           0        3.385849    1.391752    0.453236
      7          1           0        4.149524    0.951165   -1.070011
      8          1           0        6.146768    0.066894    0.181291
      9          1           0        5.378754    0.509984    1.713193
     10          1           0        5.862515    1.772460    0.568012
     11          6           0        2.085641   -0.837486   -0.570604
     12          6           0        1.475787   -2.236164   -0.471796
     13          6           0        0.100851   -2.329699   -1.134061
     14          1           0        1.403007   -0.113647   -0.104275
     15          1           0        2.166715   -0.553677   -1.628822
     16          1           0        1.396333   -2.516753    0.586302
     17          1           0        2.160007   -2.957340   -0.936945
     18          1           0        0.167103   -2.075572   -2.196902
     19          1           0       -0.600911   -1.632481   -0.665000
     20          1           0       -0.316659   -3.338047   -1.051721
     21          6           0       -3.612312   -1.380946    0.741259
     22          6           0       -3.896437   -0.600292   -0.384074
     23          6           0       -3.102042    0.505982   -0.699733
     24          6           0       -2.026560    0.804186    0.135553
     25          6           0       -1.717879    0.045754    1.263733
     26          6           0       -2.525854   -1.056004    1.560126
     27          1           0       -4.234692   -2.238573    0.978988
     28          1           0       -4.739548   -0.850285   -1.021814
     29          1           0       -3.299412    1.127416   -1.564766
     30          1           0       -0.870619    0.319855    1.880530
     31          1           0       -2.302831   -1.660480    2.434721
     32          7           0       -1.178381    1.972958   -0.188423
     33          8           0       -0.236625    2.214658    0.563451
     34          8           0       -1.471394    2.625213   -1.188096
 ---------------------------------------------------------------------

 SCF Done:  E(RHF) =  -669.534909633     A.U. after   15 cycles
 E2 =    -0.2095105528D+01 EUMP2 =    -0.67163001516094D+03

 The electronic state is 1-A.
 Alpha  occ. eigenvalues --  -20.60991 -20.60986 -15.86000 -11.31316 -11.27898
 Alpha  occ. eigenvalues --  -11.27873 -11.27631 -11.26912 -11.26888 -11.21388
 Alpha  occ. eigenvalues --  -11.20927 -11.20863 -11.20834 -11.20813 -11.20513
 Alpha  occ. eigenvalues --   -1.60035  -1.39594  -1.19525  -1.08905  -1.07970
 Alpha  occ. eigenvalues --   -1.04912  -1.03101  -0.95751  -0.95561  -0.86591
 Alpha  occ. eigenvalues --   -0.86301  -0.82580  -0.79168  -0.77779  -0.77613
 Alpha  occ. eigenvalues --   -0.72230  -0.71347  -0.70608  -0.65161  -0.64906
 Alpha  occ. eigenvalues --   -0.64606  -0.62249  -0.60552  -0.58953  -0.57198
 Alpha  occ. eigenvalues --   -0.55400  -0.55095  -0.53267  -0.52987  -0.52260
 Alpha  occ. eigenvalues --   -0.51850  -0.49430  -0.48992  -0.48984  -0.47450
 Alpha  occ. eigenvalues --   -0.46181  -0.45517  -0.45293  -0.44610  -0.43343
 Alpha  occ. eigenvalues --   -0.37476  -0.36471
 Alpha virt. eigenvalues --    0.04858   0.11064   0.16325   0.21127   0.23246
 Alpha virt. eigenvalues --    0.24703   0.26607   0.27477   0.27733   0.28124
 Alpha virt. eigenvalues --    0.28789   0.30998   0.31781   0.32152   0.32364

 Mulliken charges:
               1
     1  C   -0.296822
     2  C   -0.302715
     3  C   -0.475515
     4  H    0.145171
     5  H    0.146804
     6  H    0.164997
     7  H    0.152320
     8  H    0.152296
     9  H    0.152771
    10  H    0.160919
    11  C   -0.306999
    12  C   -0.297747
    13  C   -0.482837
    14  H    0.158393
    15  H    0.151076
    16  H    0.144528
    17  H    0.151044
    18  H    0.154704
    19  H    0.164481
    20  H    0.153923
    21  C   -0.170012
    22  C   -0.216447
    23  C   -0.171143
    24  C    0.162373
    25  C   -0.180202
    26  C   -0.214138
    27  H    0.226564
    28  H    0.224461
    29  H    0.276264
    30  H    0.275628
    31  H    0.224455
    32  N    0.489134
    33  O   -0.459937
    34  O   -0.457792
 Sum of Mulliken charges =  -0.00000

 Dipole moment (field-independent basis, Debye):
    X=             -3.2086    Y=             -3.8897    Z=              1.1378  Tot=              5.1691
 Quadrupole moment (field-independent basis, Debye-Ang):
   XX=            -82.3789   YY=           -102.2426   ZZ=            -90.9483
   XY=              5.6179   XZ=             -1.0050   YZ=             -0.6011

 Normal termination of Gaussian 16 at Thu May  6 05:53:07 2021.
