 Gaussian 16, Revision A.03,
 Gaussian 16:  EM64L-G16RevA.03 25-Dec-2016

 -------------
 #p 6-31g* mp2
 -------------

 ------------------------------------------------------
 Input file generated by CHIRIPA (05-May-2021 14:57:26)
 ------------------------------------------------------
 Symbolic Z-matrix:
 Charge =  0 Multiplicity = 1

                         Standard orientation:
 ---------------------------------------------------------------------
 Center     Atomic      Atomic             Coordinates (Angstroms)
 Number     Number       Type             X           Y           Z
 ---------------------------------------------------------------------
      1          6           0        1.044416    0.326279    1.753916
      2          6           0        2.178206    1.129214    1.916204
      3          6           0        3.309394    0.929882    1.119192
      4          6           0        3.272144   -0.086045    0.165361
      5          6           0        2.157663   -0.902590   -0.020315
      6          6           0        1.037775   -0.685278    0.787877
      7          1           0        0.170072    0.488109    2.377397
      8          1           0        2.186196    1.915550    2.665642
      9          1           0        4.200495    1.536875    1.223667
     10          1           0        2.179551   -1.678566   -0.775828
     11          1           0        0.158660   -1.310380    0.659624
     12          7           0        4.463701   -0.306587   -0.684318
     13          8           0        4.405679   -1.208275   -1.517523
     14          8           0        5.433102    0.426416   -0.501004
     15          6           0       -3.541485   -2.340339    0.355475
     16          6           0       -4.407497   -1.320087    0.762453
     17          6           0       -4.159308    0.007735    0.402122
     18          6           0       -3.030737    0.280757   -0.369289
     19          6           0       -2.149140   -0.713668   -0.790236
     20          6           0       -2.417052   -2.034412   -0.418206
     21          1           0       -3.741944   -3.369074    0.639932
     22          1           0       -5.281511   -1.554734    1.363357
     23          1           0       -4.813188    0.817059    0.703544
     24          1           0       -1.285942   -0.448789   -1.388688
     25          1           0       -1.742760   -2.824711   -0.735700
     26          7           0       -2.757551    1.682716   -0.756947
     27          8           0       -1.756471    1.897100   -1.437032
     28          8           0       -3.549679    2.540641   -0.373368
 ---------------------------------------------------------------------

 SCF Done:  E(RHF) =  -868.336100204     A.U. after   16 cycles
 E2 =    -0.2602234364D+01 EUMP2 =    -0.87093833456872D+03

 The electronic state is 1-A.
 Alpha  occ. eigenvalues --  -20.61478 -20.61456 -20.60720 -20.60707 -15.86531
 Alpha  occ. eigenvalues --  -15.85770 -11.32083 -11.31141 -11.28697 -11.28676
 Alpha  occ. eigenvalues --  -11.28449 -11.27773 -11.27746 -11.27675 -11.27660
 Alpha  occ. eigenvalues --  -11.27436 -11.26697 -11.26677  -1.60548  -1.59789
 Alpha  occ. eigenvalues --   -1.40092  -1.39345  -1.20308  -1.19307  -1.09639
 Alpha  occ. eigenvalues --   -1.08697  -1.05755  -1.04727  -0.96440  -0.95536
 Alpha  occ. eigenvalues --   -0.87096  -0.86133  -0.83284  -0.82384  -0.78306
 Alpha  occ. eigenvalues --   -0.77429  -0.72737  -0.71994  -0.71889  -0.71358
 Alpha  occ. eigenvalues --   -0.71108  -0.70425  -0.65953  -0.65701  -0.64970
 Alpha  occ. eigenvalues --   -0.64798  -0.63068  -0.62067  -0.56170  -0.55228
 Alpha  occ. eigenvalues --   -0.54144  -0.53806  -0.52998  -0.52724  -0.49517
 Alpha  occ. eigenvalues --   -0.49483  -0.48752  -0.48742  -0.45453  -0.44751
 Alpha  occ. eigenvalues --   -0.38301  -0.37500  -0.37111  -0.36253
 Alpha virt. eigenvalues --    0.04209   0.05110   0.10023   0.11553   0.15497
 Alpha virt. eigenvalues --    0.16565   0.20152   0.21873   0.25687   0.27431
 Alpha virt. eigenvalues --    0.28196   0.28664   0.29984   0.31549   0.32000

 Mulliken charges:
               1
     1  C   -0.171020
     2  C   -0.216032
     3  C   -0.169513
     4  C    0.160587
     5  C   -0.174201
     6  C   -0.223023
     7  H    0.226025
     8  H    0.225059
     9  H    0.276456
    10  H    0.270590
    11  H    0.223495
    12  N    0.488307
    13  O   -0.462244
    14  O   -0.459262
    15  C   -0.170730
    16  C   -0.219431
    17  C   -0.170931
    18  C    0.156478
    19  C   -0.175253
    20  C   -0.228205
    21  H    0.229376
    22  H    0.226791
    23  H    0.278341
    24  H    0.281381
    25  H    0.224730
    26  N    0.487353
    27  O   -0.455736
    28  O   -0.459387
 Sum of Mulliken charges =  -0.00000

 Dipole moment (field-independent basis, Debye):
    X=             -5.3412    Y=             -3.9783    Z=              4.3888  Tot=              7.9760
 Quadrupole moment (field-independent basis, Debye-Ang):
   XX=           -121.8165   YY=           -105.3035   ZZ=           -103.6329
   XY=             18.8280   XZ=              4.3524   YZ=              4.9863

 Normal termination of Gaussian 16 at Fri May  7 12:43:18 2021.
