 Gaussian 16, Revision A.03,
 Gaussian 16:  EM64L-G16RevA.03 25-Dec-2016

 -------------
 #p 6-31g* mp2
 -------------

 ------------------------------------------------------
 Input file generated by CHIRIPA (05-May-2021 14:55:20)
 ------------------------------------------------------
 Symbolic Z-matrix:
 Charge =  0 Multiplicity = 1

                         Standard orientation:
 ---------------------------------------------------------------------
 Center     Atomic      Atomic             Coordinates (Angstroms)
 Number     Number       Type             X           Y           Z
 ---------------------------------------------------------------------
      1          6           0       -2.747203    1.626567    1.818415
      2          6           0       -1.494689    1.118980    1.457745
      3          6           0       -1.387696    0.109351    0.496626
      4          6           0       -2.559069   -0.371707   -0.086262
      5          6           0       -3.821416    0.113513    0.251868
      6          6           0       -3.904529    1.123102    1.215389
      7          1           0       -2.821043    2.410856    2.565968
      8          1           0       -0.594202    1.508077    1.924405
      9          1           0       -0.430778   -0.301696    0.198688
     10          1           0       -4.701230   -0.294393   -0.230788
     11          1           0       -4.878584    1.515404    1.493528
     12          7           0       -2.458441   -1.440534   -1.105027
     13          8           0       -3.505480   -1.847432   -1.603806
     14          8           0       -1.334434   -1.851145   -1.385465
     15          6           0        3.783655   -0.330911   -0.011616
     16          6           0        3.442845   -1.222321    1.183047
     17          6           0        4.425826   -2.380642    1.355790
     18          1           0        3.796974   -0.941659   -0.924717
     19          1           0        4.800675    0.065675    0.114024
     20          1           0        2.426255   -1.616000    1.055869
     21          1           0        3.430148   -0.609343    2.093384
     22          1           0        5.442428   -2.003776    1.507754
     23          1           0        4.432829   -3.016153    0.464344
     24          1           0        4.163426   -3.005042    2.215516
     25          6           0        2.810019    0.831522   -0.197389
     26          6           0        3.150828    1.722933   -1.392052
     27          6           0        2.167849    2.881252   -1.564794
     28          1           0        1.792999    0.434935   -0.323029
     29          1           0        2.796700    1.442270    0.715713
     30          1           0        3.163525    1.109954   -2.302389
     31          1           0        4.167420    2.116611   -1.264873
     32          1           0        2.160844    3.516764   -0.673348
     33          1           0        1.151245    2.504388   -1.716758
     34          1           0        2.430247    3.505653   -2.424520
 ---------------------------------------------------------------------

 SCF Done:  E(RHF) =  -669.535764403     A.U. after   15 cycles
 E2 =    -0.2091707098D+01 EUMP2 =    -0.67162747150043D+03

 The electronic state is 1-A.
 Alpha  occ. eigenvalues --  -20.60781 -20.60774 -15.85831 -11.31168 -11.27737
 Alpha  occ. eigenvalues --  -11.27713 -11.27472 -11.26755 -11.26727 -11.21902
 Alpha  occ. eigenvalues --  -11.21841 -11.21837 -11.21598 -11.21350 -11.21155
 Alpha  occ. eigenvalues --   -1.59854  -1.39409  -1.19339  -1.08740  -1.08731
 Alpha  occ. eigenvalues --   -1.04736  -1.03761  -0.96220  -0.95580  -0.87233
 Alpha  occ. eigenvalues --   -0.86139  -0.82411  -0.79839  -0.78598  -0.77452
 Alpha  occ. eigenvalues --   -0.72051  -0.71176  -0.70459  -0.65379  -0.64989
 Alpha  occ. eigenvalues --   -0.64718  -0.62094  -0.61139  -0.59589  -0.57839
 Alpha  occ. eigenvalues --   -0.55516  -0.55234  -0.53069  -0.52897  -0.52843
 Alpha  occ. eigenvalues --   -0.52631  -0.50148  -0.48809  -0.48805  -0.48155
 Alpha  occ. eigenvalues --   -0.46863  -0.46099  -0.46012  -0.44820  -0.44045
 Alpha  occ. eigenvalues --   -0.37321  -0.36333
 Alpha virt. eigenvalues --    0.05049   0.11291   0.16546   0.19723   0.22940
 Alpha virt. eigenvalues --    0.24018   0.24500   0.26129   0.27735   0.28113
 Alpha virt. eigenvalues --    0.30103   0.31067   0.31171   0.31619   0.31884

 Mulliken charges:
               1
     1  C   -0.170767
     2  C   -0.221132
     3  C   -0.180911
     4  C    0.159981
     5  C   -0.170439
     6  C   -0.218690
     7  H    0.225595
     8  H    0.225181
     9  H    0.285828
    10  H    0.275479
    11  H    0.223401
    12  N    0.487223
    13  O   -0.460171
    14  O   -0.461273
    15  C   -0.297895
    16  C   -0.301823
    17  C   -0.475932
    18  H    0.156151
    19  H    0.150486
    20  H    0.153124
    21  H    0.148074
    22  H    0.154955
    23  H    0.159293
    24  H    0.160956
    25  C   -0.304829
    26  C   -0.299257
    27  C   -0.477054
    28  H    0.148361
    29  H    0.144375
    30  H    0.157857
    31  H    0.153013
    32  H    0.151220
    33  H    0.156707
    34  H    0.162916
 Sum of Mulliken charges =  -0.00000

 Dipole moment (field-independent basis, Debye):
    X=             -0.2439    Y=              3.7179    Z=              3.4993  Tot=              5.1115
 Quadrupole moment (field-independent basis, Debye-Ang):
   XX=            -87.4698   YY=            -98.6733   ZZ=            -95.6658
   XY=             -9.0210   XZ=             -8.8726   YZ=             -1.0665

 Normal termination of Gaussian 16 at Thu May  6 04:33:53 2021.
