 Gaussian 16, Revision A.03,
 Gaussian 16:  EM64L-G16RevA.03 25-Dec-2016

 -------------
 #p 6-31g* mp2
 -------------

 ------------------------------------------------------
 Input file generated by CHIRIPA (05-May-2021 14:57:23)
 ------------------------------------------------------
 Symbolic Z-matrix:
 Charge =  0 Multiplicity = 1

                         Standard orientation:
 ---------------------------------------------------------------------
 Center     Atomic      Atomic             Coordinates (Angstroms)
 Number     Number       Type             X           Y           Z
 ---------------------------------------------------------------------
      1          6           0       -3.851523   -2.358976    0.390748
      2          6           0       -4.600770   -1.722664   -0.604369
      3          6           0       -4.401214   -0.367972   -0.886388
      4          6           0       -3.439813    0.323134   -0.150610
      5          6           0       -2.677496   -0.282711    0.846945
      6          6           0       -2.893965   -1.638239    1.111957
      7          1           0       -4.013112   -3.411658    0.603221
      8          1           0       -5.345103   -2.279902   -1.166062
      9          1           0       -4.967295    0.149459   -1.651395
     10          1           0       -1.942684    0.299068    1.390087
     11          1           0       -2.310626   -2.129806    1.885341
     12          7           0       -3.219599    1.757729   -0.440168
     13          8           0       -2.366545    2.344394    0.222221
     14          8           0       -3.904220    2.268335   -1.324031
     15          6           0        1.411446    0.151882    1.533334
     16          6           0        2.572035    0.863204    1.855165
     17          6           0        3.721857    0.738716    1.069698
     18          6           0        3.675711   -0.109761   -0.035403
     19          6           0        2.534664   -0.831718   -0.381932
     20          6           0        1.396490   -0.691821    0.417779
     21          1           0        0.522760    0.254573    2.149036
     22          1           0        2.586538    1.519163    2.720932
     23          1           0        4.633827    1.277705    1.296013
     24          1           0        2.550658   -1.477937   -1.251163
     25          1           0        0.496575   -1.245468    0.165447
     26          7           0        4.886809   -0.249707   -0.874483
     27          8           0        4.820445   -1.003694   -1.842850
     28          8           0        5.879502    0.397240   -0.547897
 ---------------------------------------------------------------------

 SCF Done:  E(RHF) =  -868.337007564     A.U. after   16 cycles
 E2 =    -0.2600526292D+01 EUMP2 =    -0.87093753385600D+03

 The electronic state is 1-A.
 Alpha  occ. eigenvalues --  -20.61524 -20.61508 -20.60740 -20.60733 -15.86579
 Alpha  occ. eigenvalues --  -15.85793 -11.32105 -11.31191 -11.28804 -11.28615
 Alpha  occ. eigenvalues --  -11.28392 -11.27790 -11.27773 -11.27737 -11.27635
 Alpha  occ. eigenvalues --  -11.27612 -11.26831 -11.26781  -1.60589  -1.59812
 Alpha  occ. eigenvalues --   -1.40140  -1.39365  -1.20284  -1.19371  -1.09626
 Alpha  occ. eigenvalues --   -1.08782  -1.05724  -1.04776  -0.96447  -0.95611
 Alpha  occ. eigenvalues --   -0.87093  -0.86189  -0.83284  -0.82438  -0.78326
 Alpha  occ. eigenvalues --   -0.77458  -0.72794  -0.72016  -0.71914  -0.71401
 Alpha  occ. eigenvalues --   -0.71133  -0.70533  -0.65931  -0.65707  -0.65040
 Alpha  occ. eigenvalues --   -0.64806  -0.63064  -0.62120  -0.56172  -0.55367
 Alpha  occ. eigenvalues --   -0.54027  -0.53786  -0.53089  -0.52870  -0.49563
 Alpha  occ. eigenvalues --   -0.49540  -0.48775  -0.48765  -0.45511  -0.44764
 Alpha  occ. eigenvalues --   -0.38230  -0.37408  -0.37287  -0.36358
 Alpha virt. eigenvalues --    0.04196   0.05065   0.10281   0.11315   0.15582
 Alpha virt. eigenvalues --    0.16495   0.18638   0.21997   0.24928   0.26734
 Alpha virt. eigenvalues --    0.27434   0.29570   0.29965   0.30841   0.32450

 Mulliken charges:
               1
     1  C   -0.170402
     2  C   -0.217897
     3  C   -0.169166
     4  C    0.160594
     5  C   -0.178529
     6  C   -0.223546
     7  H    0.229076
     8  H    0.227493
     9  H    0.279140
    10  H    0.272930
    11  H    0.222510
    12  N    0.487818
    13  O   -0.461104
    14  O   -0.456237
    15  C   -0.168206
    16  C   -0.216815
    17  C   -0.170406
    18  C    0.159339
    19  C   -0.170413
    20  C   -0.220090
    21  H    0.218068
    22  H    0.225440
    23  H    0.276461
    24  H    0.275371
    25  H    0.220834
    26  N    0.488075
    27  O   -0.460662
    28  O   -0.459680
 Sum of Mulliken charges =  -0.00000

 Dipole moment (field-independent basis, Debye):
    X=             -5.2358    Y=             -4.5097    Z=              3.8308  Tot=              7.9010
 Quadrupole moment (field-independent basis, Debye-Ang):
   XX=           -126.4876   YY=           -106.9727   ZZ=           -101.9733
   XY=             21.9664   XZ=             12.6990   YZ=              3.1957

 Normal termination of Gaussian 16 at Fri May  7 03:24:32 2021.
