 Gaussian 16, Revision A.03,
 Gaussian 16:  EM64L-G16RevA.03 25-Dec-2016

 -------------
 #p 6-31g* mp2
 -------------

 ------------------------------------------------------
 Input file generated by CHIRIPA (05-May-2021 14:51:07)
 ------------------------------------------------------
 Symbolic Z-matrix:
 Charge =  0 Multiplicity = 1

                         Standard orientation:
 ---------------------------------------------------------------------
 Center     Atomic      Atomic             Coordinates (Angstroms)
 Number     Number       Type             X           Y           Z
 ---------------------------------------------------------------------
      1          6           0       -2.573372    0.912948   -0.017593
      2          6           0       -2.003839    1.417442    1.308719
      3          6           0       -2.390575    2.866727    1.605031
      4          1           0       -2.220867    1.561674   -0.831128
      5          1           0       -3.668181    1.004389    0.003040
      6          1           0       -0.910526    1.323787    1.286122
      7          1           0       -2.357586    0.767325    2.119168
      8          1           0       -3.479129    2.972541    1.654582
      9          1           0       -2.023847    3.532165    0.816803
     10          1           0       -1.972929    3.206928    2.557761
     11          6           0       -2.195405   -0.534339   -0.327801
     12          6           0       -2.764937   -1.038833   -1.654113
     13          6           0       -2.378201   -2.488118   -1.950425
     14          1           0       -1.100595   -0.625780   -0.348434
     15          1           0       -2.547910   -1.183065    0.485734
     16          1           0       -2.411190   -0.388716   -2.464562
     17          1           0       -3.858250   -0.945178   -1.631516
     18          1           0       -2.744930   -3.153556   -1.162196
     19          1           0       -1.289647   -2.593932   -1.999976
     20          1           0       -2.795848   -2.828319   -2.903155
     21          6           0        1.841093   -0.535879    0.582756
     22          6           0        2.395402   -1.405309    1.711834
     23          6           0        1.296339   -2.092033    2.523170
     24          1           0        1.169458    0.222252    1.008302
     25          1           0        1.227563   -1.158755   -0.082828
     26          1           0        3.008832   -0.781261    2.374317
     27          1           0        3.065945   -2.161338    1.283570
     28          1           0        0.689332   -2.737736    1.880354
     29          1           0        0.631895   -1.349818    2.977298
     30          1           0        1.714821   -2.708394    3.324938
     31          6           0        2.927684    0.157270   -0.237362
     32          6           0        2.373375    1.026700   -1.366440
     33          6           0        3.472438    1.713424   -2.177776
     34          1           0        3.541213    0.780146    0.428221
     35          1           0        3.599318   -0.600861   -0.662909
     36          1           0        1.702832    1.782728   -0.938177
     37          1           0        1.759944    0.402652   -2.028923
     38          1           0        4.136881    0.971209   -2.631905
     39          1           0        4.079445    2.359127   -1.534960
     40          1           0        3.053956    2.329785   -2.979544
 ---------------------------------------------------------------------

 SCF Done:  E(RHF) =  -470.732560064     A.U. after   11 cycles
 E2 =    -0.1584830924D+01 EUMP2 =    -0.47231739098791D+03

 The electronic state is 1-A.
 Alpha  occ. eigenvalues --  -11.21698 -11.21635 -11.21573 -11.21549 -11.21466
 Alpha  occ. eigenvalues --  -11.21404 -11.21329 -11.21215 -11.21138 -11.21073
 Alpha  occ. eigenvalues --  -11.21070 -11.21060  -1.08520  -1.08358  -1.03580
 Alpha  occ. eigenvalues --   -1.03504  -0.96031  -0.95945  -0.87045  -0.86967
 Alpha  occ. eigenvalues --   -0.79657  -0.79569  -0.78556  -0.77974  -0.65155
 Alpha  occ. eigenvalues --   -0.65007  -0.60999  -0.60889  -0.59399  -0.59317
 Alpha  occ. eigenvalues --   -0.57662  -0.57547  -0.55344  -0.55214  -0.52725
 Alpha  occ. eigenvalues --   -0.52658  -0.52470  -0.52369  -0.50032  -0.49850
 Alpha  occ. eigenvalues --   -0.48003  -0.47931  -0.46798  -0.46603  -0.46526
 Alpha  occ. eigenvalues --   -0.45696  -0.45602  -0.44894  -0.43837  -0.43734
 Alpha virt. eigenvalues --    0.20569   0.22647   0.23616   0.23862   0.25226
 Alpha virt. eigenvalues --    0.26469   0.26966   0.27897   0.28258   0.30656
 Alpha virt. eigenvalues --    0.30964   0.31162   0.31719   0.31950   0.32315

 Mulliken charges:
               1
     1  C   -0.297306
     2  C   -0.307398
     3  C   -0.475128
     4  H    0.149338
     5  H    0.149149
     6  H    0.157989
     7  H    0.151886
     8  H    0.155417
     9  H    0.154896
    10  H    0.159687
    11  C   -0.307708
    12  C   -0.299211
    13  C   -0.475719
    14  H    0.160949
    15  H    0.148913
    16  H    0.151569
    17  H    0.151626
    18  H    0.155282
    19  H    0.153663
    20  H    0.160281
    21  C   -0.310602
    22  C   -0.298549
    23  C   -0.476684
    24  H    0.158247
    25  H    0.152543
    26  H    0.151823
    27  H    0.151907
    28  H    0.155991
    29  H    0.156174
    30  H    0.160150
    31  C   -0.297048
    32  C   -0.300618
    33  C   -0.475613
    34  H    0.149716
    35  H    0.149887
    36  H    0.151522
    37  H    0.151470
    38  H    0.155542
    39  H    0.155534
    40  H    0.160430
 Sum of Mulliken charges =  -0.00000

 Dipole moment (field-independent basis, Debye):
    X=              0.0520    Y=             -0.0067    Z=              0.0145  Tot=              0.0544
 Quadrupole moment (field-independent basis, Debye-Ang):
   XX=            -84.6299   YY=            -85.4849   ZZ=            -84.7614
   XY=              0.0893   XZ=              0.0698   YZ=              0.3168

 Normal termination of Gaussian 16 at Thu May  6 02:03:35 2021.
