 Gaussian 16, Revision A.03,
 Gaussian 16:  EM64L-G16RevA.03 25-Dec-2016

 -------------
 #p 6-31g* mp2
 -------------

 ------------------------------------------------------
 Input file generated by CHIRIPA (05-May-2021 14:57:26)
 ------------------------------------------------------
 Symbolic Z-matrix:
 Charge =  0 Multiplicity = 1

                         Standard orientation:
 ---------------------------------------------------------------------
 Center     Atomic      Atomic             Coordinates (Angstroms)
 Number     Number       Type             X           Y           Z
 ---------------------------------------------------------------------
      1          6           0       -3.477424    2.502353   -0.437902
      2          6           0       -2.249914    1.994122   -0.000361
      3          6           0       -2.065395    0.616679    0.151795
      4          6           0       -3.134587   -0.227537   -0.143870
      5          6           0       -4.369560    0.248302   -0.581715
      6          6           0       -4.531471    1.629360   -0.726674
      7          1           0       -3.611982    3.573787   -0.553305
      8          1           0       -1.429568    2.669735    0.224639
      9          1           0       -1.125664    0.196291    0.488837
     10          1           0       -5.168787   -0.450101   -0.798254
     11          1           0       -5.485879    2.021235   -1.066651
     12          7           0       -2.951212   -1.687687    0.013401
     13          8           0       -3.908821   -2.410405   -0.253624
     14          8           0       -1.853347   -2.081787    0.400717
     15          6           0        1.733701    0.053561    2.246664
     16          6           0        1.698432   -1.065247    1.407888
     17          6           0        2.487105   -1.113094    0.254522
     18          6           0        3.303165   -0.019560   -0.030995
     19          6           0        3.360300    1.109333    0.784865
     20          6           0        2.563060    1.135374    1.933029
     21          1           0        1.117713    0.082260    3.140606
     22          1           0        1.055290   -1.906848    1.648968
     23          1           0        2.479210   -1.966712   -0.412330
     24          1           0        4.011408    1.932984    0.518264
     25          1           0        2.592485    2.005568    2.582598
     26          7           0        4.142631   -0.058670   -1.249258
     27          8           0        4.853146    0.917651   -1.478610
     28          8           0        4.074196   -1.064906   -1.951713
 ---------------------------------------------------------------------

 SCF Done:  E(RHF) =  -868.339708430     A.U. after   16 cycles
 E2 =    -0.2600013615D+01 EUMP2 =    -0.87093972204538D+03

 The electronic state is 1-A.
 Alpha  occ. eigenvalues --  -20.61380 -20.61321 -20.60792 -20.60774 -15.86403
 Alpha  occ. eigenvalues --  -15.85836 -11.31576 -11.31242 -11.28126 -11.28094
 Alpha  occ. eigenvalues --  -11.27849 -11.27839 -11.27692 -11.27547 -11.27111
 Alpha  occ. eigenvalues --  -11.27100 -11.26907 -11.26640  -1.60419  -1.59861
 Alpha  occ. eigenvalues --   -1.39983  -1.39412  -1.19738  -1.19415  -1.09170
 Alpha  occ. eigenvalues --   -1.08809  -1.05114  -1.04780  -0.96035  -0.95630
 Alpha  occ. eigenvalues --   -0.86525  -0.86170  -0.82882  -0.82424  -0.77953
 Alpha  occ. eigenvalues --   -0.77458  -0.72641  -0.72050  -0.71729  -0.71187
 Alpha  occ. eigenvalues --   -0.70849  -0.70500  -0.65401  -0.65126  -0.65036
 Alpha  occ. eigenvalues --   -0.64710  -0.62470  -0.62072  -0.55631  -0.55291
 Alpha  occ. eigenvalues --   -0.53458  -0.53359  -0.53000  -0.52811  -0.49387
 Alpha  occ. eigenvalues --   -0.49353  -0.48813  -0.48802  -0.45430  -0.44807
 Alpha  occ. eigenvalues --   -0.37716  -0.37446  -0.36712  -0.36385
 Alpha virt. eigenvalues --    0.04568   0.05025   0.10936   0.11159   0.16107
 Alpha virt. eigenvalues --    0.16492   0.20933   0.21669   0.26869   0.27268
 Alpha virt. eigenvalues --    0.28133   0.28507   0.30712   0.31120   0.32000

 Mulliken charges:
               1
     1  C   -0.169741
     2  C   -0.220802
     3  C   -0.175366
     4  C    0.157104
     5  C   -0.169874
     6  C   -0.218865
     7  H    0.226854
     8  H    0.223880
     9  H    0.277962
    10  H    0.276283
    11  H    0.224816
    12  N    0.490656
    13  O   -0.456522
    14  O   -0.471471
    15  C   -0.181192
    16  C   -0.223336
    17  C   -0.172456
    18  C    0.158061
    19  C   -0.173480
    20  C   -0.221235
    21  H    0.227362
    22  H    0.245636
    23  H    0.281225
    24  H    0.274587
    25  H    0.221488
    26  N    0.487903
    27  O   -0.461846
    28  O   -0.457633
 Sum of Mulliken charges =  -0.00000

 Dipole moment (field-independent basis, Debye):
    X=             -3.6876    Y=              5.1146    Z=              3.6787  Tot=              7.3000
 Quadrupole moment (field-independent basis, Debye-Ang):
   XX=           -115.6213   YY=           -103.3334   ZZ=           -105.6668
   XY=            -13.5171   XZ=             18.3950   YZ=              0.4418

 Normal termination of Gaussian 16 at Thu May  6 13:06:52 2021.
