 Gaussian 16, Revision A.03,
 Gaussian 16:  EM64L-G16RevA.03 25-Dec-2016

 -------------
 #p 6-31g* mp2
 -------------

 ------------------------------------------------------
 Input file generated by CHIRIPA (05-May-2021 14:57:27)
 ------------------------------------------------------
 Symbolic Z-matrix:
 Charge =  0 Multiplicity = 1

                         Standard orientation:
 ---------------------------------------------------------------------
 Center     Atomic      Atomic             Coordinates (Angstroms)
 Number     Number       Type             X           Y           Z
 ---------------------------------------------------------------------
      1          6           0        1.156161    2.887010    0.062044
      2          6           0        2.006366    2.377797    1.049149
      3          6           0        2.494502    1.070731    0.960547
      4          6           0        2.110368    0.297129   -0.133652
      5          6           0        1.264821    0.775880   -1.133220
      6          6           0        0.788750    2.085839   -1.024075
      7          1           0        0.781651    3.903493    0.138851
      8          1           0        2.293374    2.997719    1.893759
      9          1           0        3.154055    0.651288    1.710531
     10          1           0        0.996331    0.133912   -1.963406
     11          1           0        0.128611    2.478656   -1.792162
     12          7           0        2.620750   -1.088134   -0.238324
     13          8           0        2.267456   -1.749417   -1.212247
     14          8           0        3.364417   -1.486390    0.655538
     15          6           0       -1.075453   -2.847921    0.377122
     16          6           0       -1.410996   -2.097762    1.509020
     17          6           0       -1.938530   -0.809860    1.376491
     18          6           0       -2.118170   -0.300909    0.091195
     19          6           0       -1.793598   -1.023579   -1.055840
     20          6           0       -1.267486   -2.309385   -0.899445
     21          1           0       -0.666204   -3.847580    0.489343
     22          1           0       -1.262941   -2.513444    2.501660
     23          1           0       -2.206890   -0.207292    2.235742
     24          1           0       -1.952577   -0.582306   -2.032273
     25          1           0       -1.007800   -2.889681   -1.780276
     26          7           0       -2.675894    1.061426   -0.061740
     27          8           0       -2.824542    1.487101   -1.205131
     28          8           0       -2.953831    1.677753    0.964675
 ---------------------------------------------------------------------

 SCF Done:  E(RHF) =  -868.340333870     A.U. after   16 cycles
 E2 =    -0.2604049737D+01 EUMP2 =    -0.87094438360776D+03

 The electronic state is 1-A.
 Alpha  occ. eigenvalues --  -20.61156 -20.61120 -20.60999 -20.60994 -15.86155
 Alpha  occ. eigenvalues --  -15.86026 -11.31177 -11.31084 -11.27695 -11.27688
 Alpha  occ. eigenvalues --  -11.27644 -11.27622 -11.27245 -11.27217 -11.26628
 Alpha  occ. eigenvalues --  -11.26557 -11.26554 -11.26399  -1.60203  -1.60066
 Alpha  occ. eigenvalues --   -1.39773  -1.39632  -1.19333  -1.19200  -1.08729
 Alpha  occ. eigenvalues --   -1.08645  -1.04702  -1.04550  -0.95641  -0.95544
 Alpha  occ. eigenvalues --   -0.86063  -0.85960  -0.82505  -0.82386  -0.77656
 Alpha  occ. eigenvalues --   -0.77450  -0.72399  -0.72272  -0.71535  -0.71359
 Alpha  occ. eigenvalues --   -0.70401  -0.70260  -0.64950  -0.64867  -0.64625
 Alpha  occ. eigenvalues --   -0.64521  -0.62082  -0.61876  -0.55084  -0.55028
 Alpha  occ. eigenvalues --   -0.53434  -0.52736  -0.52683  -0.52444  -0.49175
 Alpha  occ. eigenvalues --   -0.49116  -0.49036  -0.48987  -0.45261  -0.45113
 Alpha  occ. eigenvalues --   -0.37414  -0.37110  -0.36475  -0.35704
 Alpha virt. eigenvalues --    0.04812   0.05071   0.11131   0.11726   0.16355
 Alpha virt. eigenvalues --    0.16748   0.21083   0.22154   0.26479   0.27937
 Alpha virt. eigenvalues --    0.28503   0.29356   0.31040   0.31618   0.32594

 Mulliken charges:
               1
     1  C   -0.167813
     2  C   -0.219166
     3  C   -0.172858
     4  C    0.158731
     5  C   -0.169511
     6  C   -0.226578
     7  H    0.232035
     8  H    0.223471
     9  H    0.273006
    10  H    0.268764
    11  H    0.237730
    12  N    0.489245
    13  O   -0.466808
    14  O   -0.462573
    15  C   -0.169268
    16  C   -0.220072
    17  C   -0.172359
    18  C    0.163311
    19  C   -0.182751
    20  C   -0.207281
    21  H    0.232925
    22  H    0.224929
    23  H    0.273271
    24  H    0.269338
    25  H    0.230203
    26  N    0.489732
    27  O   -0.468994
    28  O   -0.460659
 Sum of Mulliken charges =  -0.00000

 Dipole moment (field-independent basis, Debye):
    X=              0.1506    Y=              0.0092    Z=              0.9553  Tot=              0.9671
 Quadrupole moment (field-independent basis, Debye-Ang):
   XX=           -121.7713   YY=            -98.7934   ZZ=            -96.5016
   XY=             20.1545   XZ=              2.1179   YZ=             -0.0844

 Normal termination of Gaussian 16 at Thu May  6 06:51:40 2021.
