 Gaussian 16, Revision A.03,
 Gaussian 16:  EM64L-G16RevA.03 25-Dec-2016

 -------------
 #p 6-31g* mp2
 -------------

 ------------------------------------------------------
 Input file generated by CHIRIPA (05-May-2021 14:53:18)
 ------------------------------------------------------
 Symbolic Z-matrix:
 Charge =  0 Multiplicity = 1

                         Standard orientation:
 ---------------------------------------------------------------------
 Center     Atomic      Atomic             Coordinates (Angstroms)
 Number     Number       Type             X           Y           Z
 ---------------------------------------------------------------------
      1          6           0        3.376908   -0.157682   -0.589579
      2          6           0        3.490170   -1.657913   -0.316699
      3          6           0        4.168903   -2.416677   -1.457485
      4          1           0        2.814931   -0.002220   -1.520686
      5          1           0        4.381566    0.254092   -0.758397
      6          1           0        2.485720   -2.066476   -0.147078
      7          1           0        4.051777   -1.809815    0.613967
      8          1           0        5.182047   -2.036587   -1.623831
      9          1           0        3.607092   -2.294705   -2.389200
     10          1           0        4.239413   -3.487305   -1.241513
     11          6           0        2.700550    0.614493    0.541798
     12          6           0        2.587287    2.114724    0.268918
     13          6           0        1.908555    2.873488    1.409704
     14          1           0        1.695892    0.202719    0.710616
     15          1           0        3.262526    0.459031    1.472905
     16          1           0        2.025680    2.266626   -0.661748
     17          1           0        3.591738    2.523287    0.099297
     18          1           0        2.470366    2.751516    2.341419
     19          1           0        0.895410    2.493398    1.576050
     20          1           0        1.838044    3.944116    1.193732
     21          6           0       -2.028685   -1.900578    1.829996
     22          6           0       -1.370689   -0.668301    1.901090
     23          6           0       -1.554557    0.293386    0.903143
     24          6           0       -2.407391   -0.011952   -0.156448
     25          6           0       -3.077099   -1.230547   -0.255482
     26          6           0       -2.878292   -2.177280    0.753834
     27          1           0       -1.880049   -2.641832    2.609641
     28          1           0       -0.710286   -0.450667    2.735685
     29          1           0       -1.057628    1.255452    0.933298
     30          1           0       -3.729234   -1.418596   -1.099742
     31          1           0       -3.390607   -3.133438    0.696013
     32          7           0       -2.609952    0.998228   -1.218948
     33          8           0       -3.366524    0.704827   -2.142069
     34          8           0       -2.008312    2.064279   -1.108497
 ---------------------------------------------------------------------

 SCF Done:  E(RHF) =  -669.535579830     A.U. after   15 cycles
 E2 =    -0.2092402684D+01 EUMP2 =    -0.67162798251400D+03

 The electronic state is 1-A.
 Alpha  occ. eigenvalues --  -20.60826 -20.60821 -15.85877 -11.31245 -11.27820
 Alpha  occ. eigenvalues --  -11.27809 -11.27554 -11.26835 -11.26824 -11.21765
 Alpha  occ. eigenvalues --  -11.21677 -11.21585 -11.21474 -11.21384 -11.21185
 Alpha  occ. eigenvalues --   -1.59900  -1.39453  -1.19425  -1.08814  -1.08585
 Alpha  occ. eigenvalues --   -1.04830  -1.03690  -0.96158  -0.95649  -0.87175
 Alpha  occ. eigenvalues --   -0.86221  -0.82482  -0.79748  -0.78413  -0.77523
 Alpha  occ. eigenvalues --   -0.72096  -0.71224  -0.70538  -0.65249  -0.65065
 Alpha  occ. eigenvalues --   -0.64811  -0.62227  -0.61036  -0.59509  -0.57764
 Alpha  occ. eigenvalues --   -0.55514  -0.55281  -0.53162  -0.52935  -0.52831
 Alpha  occ. eigenvalues --   -0.52560  -0.50106  -0.48854  -0.48851  -0.48070
 Alpha  occ. eigenvalues --   -0.46766  -0.45950  -0.45854  -0.44856  -0.43935
 Alpha  occ. eigenvalues --   -0.37400  -0.36401
 Alpha virt. eigenvalues --    0.04961   0.11212   0.16370   0.19774   0.22925
 Alpha virt. eigenvalues --    0.23762   0.25762   0.27026   0.27323   0.27972
 Alpha virt. eigenvalues --    0.29260   0.30356   0.31437   0.31638   0.31932

 Mulliken charges:
               1
     1  C   -0.298500
     2  C   -0.299936
     3  C   -0.475863
     4  H    0.153883
     5  H    0.150509
     6  H    0.150902
     7  H    0.150059
     8  H    0.155892
     9  H    0.157102
    10  H    0.159167
    11  C   -0.302041
    12  C   -0.302648
    13  C   -0.475479
    14  H    0.145864
    15  H    0.146887
    16  H    0.162757
    17  H    0.153399
    18  H    0.153593
    19  H    0.144144
    20  H    0.167434
    21  C   -0.170990
    22  C   -0.221730
    23  C   -0.179914
    24  C    0.158485
    25  C   -0.170176
    26  C   -0.218850
    27  H    0.226188
    28  H    0.225269
    29  H    0.288286
    30  H    0.275874
    31  H    0.223843
    32  N    0.487003
    33  O   -0.460108
    34  O   -0.460305
 Sum of Mulliken charges =  -0.00000

 Dipole moment (field-independent basis, Debye):
    X=              0.7255    Y=             -3.5082    Z=              3.6396  Tot=              5.1069
 Quadrupole moment (field-independent basis, Debye-Ang):
   XX=            -96.0179   YY=            -93.2661   ZZ=            -95.7399
   XY=             11.7051   XZ=             -7.0188   YZ=              1.5507

 Normal termination of Gaussian 16 at Thu May  6 15:40:33 2021.
