 Gaussian 16, Revision A.03,
 Gaussian 16:  EM64L-G16RevA.03 25-Dec-2016

 -------------
 #p 6-31g* mp2
 -------------

 ------------------------------------------------------
 Input file generated by CHIRIPA (05-May-2021 14:55:23)
 ------------------------------------------------------
 Symbolic Z-matrix:
 Charge =  0 Multiplicity = 1

                         Standard orientation:
 ---------------------------------------------------------------------
 Center     Atomic      Atomic             Coordinates (Angstroms)
 Number     Number       Type             X           Y           Z
 ---------------------------------------------------------------------
      1          6           0       -0.760959    0.936126    1.407316
      2          6           0       -0.583347   -0.246258    0.681407
      3          6           0       -1.660664   -0.840304    0.017294
      4          6           0       -2.907378   -0.222200    0.100621
      5          6           0       -3.116177    0.956019    0.815808
      6          6           0       -2.024579    1.532439    1.472086
      7          1           0        0.081474    1.390749    1.920172
      8          1           0        0.396863   -0.711580    0.629368
      9          1           0       -1.551259   -1.755506   -0.551787
     10          1           0       -4.105250    1.396504    0.849367
     11          1           0       -2.165459    2.450710    2.035092
     12          7           0       -4.055445   -0.841760   -0.598298
     13          8           0       -5.143712   -0.277479   -0.509423
     14          8           0       -3.845294   -1.879922   -1.221752
     15          6           0        3.751350   -0.533515   -0.468873
     16          6           0        4.133755   -1.393785    0.735987
     17          6           0        4.676444   -2.765660    0.334438
     18          1           0        2.999671   -1.065843   -1.067664
     19          1           0        4.631776   -0.406131   -1.113868
     20          1           0        3.253222   -1.518356    1.379227
     21          1           0        4.884471   -0.859264    1.332083
     22          1           0        5.570202   -2.659036   -0.288802
     23          1           0        3.929684   -3.321873   -0.241390
     24          1           0        4.943544   -3.364030    1.211063
     25          6           0        3.207147    0.840944   -0.083604
     26          6           0        2.824741    1.701214   -1.288464
     27          6           0        2.282053    3.073089   -0.886915
     28          1           0        2.326721    0.713561    0.561391
     29          1           0        3.958826    1.373272    0.515187
     30          1           0        2.074026    1.166693   -1.884559
     31          1           0        3.705276    1.825785   -1.931704
     32          1           0        3.028813    3.629302   -0.311087
     33          1           0        1.388294    2.966465   -0.263674
     34          1           0        2.014952    3.671459   -1.763539
 ---------------------------------------------------------------------

 SCF Done:  E(RHF) =  -669.535169006     A.U. after   15 cycles
 E2 =    -0.2092907321D+01 EUMP2 =    -0.67162807632659D+03

 The electronic state is 1-A.
 Alpha  occ. eigenvalues --  -20.60791 -20.60785 -15.85844 -11.31228 -11.27790
 Alpha  occ. eigenvalues --  -11.27787 -11.27533 -11.26813 -11.26794 -11.22521
 Alpha  occ. eigenvalues --  -11.22452 -11.22367 -11.22306 -11.21808 -11.21776
 Alpha  occ. eigenvalues --   -1.59865  -1.39418  -1.19399  -1.09369  -1.08790
 Alpha  occ. eigenvalues --   -1.04803  -1.04351  -0.96806  -0.95626  -0.87817
 Alpha  occ. eigenvalues --   -0.86207  -0.82454  -0.80419  -0.79200  -0.77500
 Alpha  occ. eigenvalues --   -0.72063  -0.71188  -0.70518  -0.66163  -0.65048
 Alpha  occ. eigenvalues --   -0.64700  -0.62142  -0.61745  -0.60165  -0.58414
 Alpha  occ. eigenvalues --   -0.56115  -0.55294  -0.53450  -0.53235  -0.53123
 Alpha  occ. eigenvalues --   -0.52880  -0.50754  -0.48823  -0.48817  -0.48726
 Alpha  occ. eigenvalues --   -0.47461  -0.46706  -0.46655  -0.44820  -0.44639
 Alpha  occ. eigenvalues --   -0.37361  -0.36398
 Alpha virt. eigenvalues --    0.04999   0.11165   0.16389   0.18568   0.22332
 Alpha virt. eigenvalues --    0.23516   0.25089   0.25989   0.26529   0.28274
 Alpha virt. eigenvalues --    0.29253   0.30800   0.31077   0.31431   0.31584

 Mulliken charges:
               1
     1  C   -0.172622
     2  C   -0.222732
     3  C   -0.171999
     4  C    0.158927
     5  C   -0.170868
     6  C   -0.219032
     7  H    0.227681
     8  H    0.229394
     9  H    0.275744
    10  H    0.275839
    11  H    0.223984
    12  N    0.488027
    13  O   -0.460201
    14  O   -0.460301
    15  C   -0.300701
    16  C   -0.300815
    17  C   -0.475968
    18  H    0.148279
    19  H    0.155228
    20  H    0.145243
    21  H    0.155006
    22  H    0.158143
    23  H    0.155768
    24  H    0.162902
    25  C   -0.301590
    26  C   -0.299736
    27  C   -0.477798
    28  H    0.138563
    29  H    0.152986
    30  H    0.155056
    31  H    0.155670
    32  H    0.155251
    33  H    0.151781
    34  H    0.164889
 Sum of Mulliken charges =  -0.00000

 Dipole moment (field-independent basis, Debye):
    X=              4.1963    Y=              2.1894    Z=              2.3697  Tot=              5.2932
 Quadrupole moment (field-independent basis, Debye-Ang):
   XX=           -115.2583   YY=            -94.0457   ZZ=            -94.3501
   XY=             -9.1815   XZ=             -8.1801   YZ=              0.8543

 Normal termination of Gaussian 16 at Wed May  5 20:44:35 2021.
