 Gaussian 16, Revision A.03,
 Gaussian 16:  EM64L-G16RevA.03 25-Dec-2016

 -------------
 #p 6-31g* mp2
 -------------

 ------------------------------------------------------
 Input file generated by CHIRIPA (05-May-2021 14:57:24)
 ------------------------------------------------------
 Symbolic Z-matrix:
 Charge =  0 Multiplicity = 1

                         Standard orientation:
 ---------------------------------------------------------------------
 Center     Atomic      Atomic             Coordinates (Angstroms)
 Number     Number       Type             X           Y           Z
 ---------------------------------------------------------------------
      1          6           0        5.457187    0.569414    1.500297
      2          6           0        4.129525    0.770883    1.891763
      3          6           0        3.076745    0.386474    1.056040
      4          6           0        3.389245   -0.199194   -0.169777
      5          6           0        4.701710   -0.413197   -0.588019
      6          6           0        5.738546   -0.020942    0.263835
      7          1           0        6.268818    0.871080    2.155772
      8          1           0        3.908042    1.229129    2.851451
      9          1           0        2.039811    0.530732    1.334203
     10          1           0        4.891140   -0.872453   -1.550630
     11          1           0        6.768671   -0.178633   -0.042792
     12          7           0        2.283153   -0.610303   -1.063058
     13          8           0        2.584939   -1.124206   -2.137985
     14          8           0        1.135358   -0.410844   -0.671371
     15          6           0       -4.372139   -2.060708    0.981439
     16          6           0       -5.020995   -0.869201    1.321762
     17          6           0       -4.586026    0.351214    0.796467
     18          6           0       -3.494143    0.343367   -0.070148
     19          6           0       -2.826820   -0.826987   -0.428261
     20          6           0       -3.279050   -2.035841    0.109053
     21          1           0       -4.716737   -3.004267    1.394170
     22          1           0       -5.870161   -0.885496    1.999033
     23          1           0       -5.069949    1.288440    1.043132
     24          1           0       -1.983069   -0.778950   -1.105898
     25          1           0       -2.773212   -2.959630   -0.157008
     26          7           0       -3.024525    1.629246   -0.632616
     27          8           0       -2.060262    1.595491   -1.393993
     28          8           0       -3.629593    2.646528   -0.301452
 ---------------------------------------------------------------------

 SCF Done:  E(RHF) =  -868.338682162     A.U. after   16 cycles
 E2 =    -0.2598998371D+01 EUMP2 =    -0.87093768053261D+03

 The electronic state is 1-A.
 Alpha  occ. eigenvalues --  -20.60801 -20.60765 -20.59877 -20.59808 -15.85820
 Alpha  occ. eigenvalues --  -15.84894 -11.31121 -11.30258 -11.27692 -11.27670
 Alpha  occ. eigenvalues --  -11.27430 -11.26949 -11.26697 -11.26696 -11.26680
 Alpha  occ. eigenvalues --  -11.26677 -11.25973 -11.25826  -1.59844  -1.58930
 Alpha  occ. eigenvalues --   -1.39399  -1.38473  -1.19290  -1.18469  -1.08700
 Alpha  occ. eigenvalues --   -1.07885  -1.04684  -1.03858  -0.95546  -0.94699
 Alpha  occ. eigenvalues --   -0.86086  -0.85263  -0.82380  -0.81519  -0.77431
 Alpha  occ. eigenvalues --   -0.76537  -0.72056  -0.71154  -0.71105  -0.70403
 Alpha  occ. eigenvalues --   -0.70259  -0.69578  -0.64948  -0.64692  -0.64120
 Alpha  occ. eigenvalues --   -0.63869  -0.62031  -0.61167  -0.55198  -0.54414
 Alpha  occ. eigenvalues --   -0.53016  -0.52779  -0.52223  -0.51941  -0.48811
 Alpha  occ. eigenvalues --   -0.48794  -0.47901  -0.47845  -0.44811  -0.43874
 Alpha  occ. eigenvalues --   -0.37271  -0.36506  -0.36284  -0.35467
 Alpha virt. eigenvalues --    0.05108   0.05965   0.11372   0.12174   0.16605
 Alpha virt. eigenvalues --    0.17426   0.21491   0.22295   0.27414   0.28166
 Alpha virt. eigenvalues --    0.28405   0.29268   0.31055   0.31783   0.32607

 Mulliken charges:
               1
     1  C   -0.170572
     2  C   -0.218614
     3  C   -0.169861
     4  C    0.158368
     5  C   -0.170668
     6  C   -0.218681
     7  H    0.225518
     8  H    0.223802
     9  H    0.276885
    10  H    0.275363
    11  H    0.223234
    12  N    0.490646
    13  O   -0.460853
    14  O   -0.462625
    15  C   -0.171517
    16  C   -0.220130
    17  C   -0.172305
    18  C    0.154164
    19  C   -0.171969
    20  C   -0.221630
    21  H    0.221954
    22  H    0.219295
    23  H    0.272207
    24  H    0.296631
    25  H    0.224371
    26  N    0.486550
    27  O   -0.451783
    28  O   -0.467780
 Sum of Mulliken charges =  -0.00000

 Dipole moment (field-independent basis, Debye):
    X=              2.5880    Y=             -3.0998    Z=              4.9757  Tot=              6.4082
 Quadrupole moment (field-independent basis, Debye-Ang):
   XX=            -64.2801   YY=           -108.4519   ZZ=           -103.6356
   XY=             16.6390   XZ=             -0.8613   YZ=              2.9249

 Normal termination of Gaussian 16 at Fri May  7 09:33:59 2021.
