 Gaussian 16, Revision A.03,
 Gaussian 16:  EM64L-G16RevA.03 25-Dec-2016

 -------------
 #p 6-31g* mp2
 -------------

 ------------------------------------------------------
 Input file generated by CHIRIPA (05-May-2021 14:57:27)
 ------------------------------------------------------
 Symbolic Z-matrix:
 Charge =  0 Multiplicity = 1

                         Standard orientation:
 ---------------------------------------------------------------------
 Center     Atomic      Atomic             Coordinates (Angstroms)
 Number     Number       Type             X           Y           Z
 ---------------------------------------------------------------------
      1          6           0        4.726555   -2.091735   -0.681349
      2          6           0        5.601431   -1.026762   -0.442717
      3          6           0        5.106810    0.236099   -0.103484
      4          6           0        3.725446    0.399263   -0.011275
      5          6           0        2.828175   -0.642111   -0.243085
      6          6           0        3.345155   -1.896355   -0.580949
      7          1           0        5.119473   -3.069409   -0.944342
      8          1           0        6.674711   -1.175584   -0.519966
      9          1           0        5.761512    1.077935    0.086503
     10          1           0        1.763188   -0.463061   -0.158455
     11          1           0        2.663346   -2.721606   -0.765723
     12          7           0        3.189978    1.731636    0.347131
     13          8           0        1.968848    1.849467    0.421930
     14          8           0        4.001547    2.632891    0.546464
     15          6           0       -5.941174    0.883665   -0.771726
     16          6           0       -5.973307   -0.397189   -0.210566
     17          6           0       -4.800671   -0.996136    0.259260
     18          6           0       -3.608021   -0.282471    0.151753
     19          6           0       -3.543581    0.995087   -0.402307
     20          6           0       -4.728552    1.574498   -0.865641
     21          1           0       -6.856896    1.341354   -1.134177
     22          1           0       -6.913610   -0.936045   -0.136342
     23          1           0       -4.796937   -1.986486    0.698136
     24          1           0       -2.591120    1.507518   -0.462715
     25          1           0       -4.700598    2.569356   -1.300981
     26          7           0       -2.360076   -0.906208    0.645700
     27          8           0       -1.322116   -0.256592    0.539520
     28          8           0       -2.443526   -2.032900    1.129683
 ---------------------------------------------------------------------

 SCF Done:  E(RHF) =  -868.339362496     A.U. after   16 cycles
 E2 =    -0.2598719717D+01 EUMP2 =    -0.87093808221255D+03

 The electronic state is 1-A.
 Alpha  occ. eigenvalues --  -20.60885 -20.60846 -20.59911 -20.59870 -15.85892
 Alpha  occ. eigenvalues --  -15.84942 -11.31117 -11.30238 -11.27706 -11.27615
 Alpha  occ. eigenvalues --  -11.27417 -11.26907 -11.26691 -11.26649 -11.26637
 Alpha  occ. eigenvalues --  -11.26632 -11.25922 -11.25775  -1.59936  -1.58977
 Alpha  occ. eigenvalues --   -1.39486  -1.38524  -1.19284  -1.18435  -1.08713
 Alpha  occ. eigenvalues --   -1.07863  -1.04661  -1.03815  -0.95564  -0.94691
 Alpha  occ. eigenvalues --   -0.86067  -0.85224  -0.82391  -0.81513  -0.77449
 Alpha  occ. eigenvalues --   -0.76543  -0.72113  -0.71246  -0.71161  -0.70390
 Alpha  occ. eigenvalues --   -0.70303  -0.69546  -0.64938  -0.64665  -0.64088
 Alpha  occ. eigenvalues --   -0.63823  -0.61999  -0.61126  -0.55184  -0.54369
 Alpha  occ. eigenvalues --   -0.53008  -0.52748  -0.52181  -0.51896  -0.48881
 Alpha  occ. eigenvalues --   -0.48872  -0.47941  -0.47898  -0.44919  -0.43946
 Alpha  occ. eigenvalues --   -0.37272  -0.36463  -0.36260  -0.35424
 Alpha virt. eigenvalues --    0.05051   0.05957   0.11394   0.12222   0.16554
 Alpha virt. eigenvalues --    0.17434   0.21533   0.22367   0.27485   0.28197
 Alpha virt. eigenvalues --    0.28462   0.29314   0.31104   0.31837   0.32677

 Mulliken charges:
               1
     1  C   -0.171030
     2  C   -0.219826
     3  C   -0.171702
     4  C    0.155336
     5  C   -0.176993
     6  C   -0.221346
     7  H    0.222492
     8  H    0.219690
     9  H    0.272373
    10  H    0.297232
    11  H    0.225786
    12  N    0.486949
    13  O   -0.455486
    14  O   -0.466421
    15  C   -0.170408
    16  C   -0.218968
    17  C   -0.171018
    18  C    0.156540
    19  C   -0.171527
    20  C   -0.219094
    21  H    0.225671
    22  H    0.222847
    23  H    0.274362
    24  H    0.283014
    25  H    0.225355
    26  N    0.490422
    27  O   -0.460906
    28  O   -0.463344
 Sum of Mulliken charges =  -0.00000

 Dipole moment (field-independent basis, Debye):
    X=             -2.8674    Y=             -2.4474    Z=             -2.9994  Tot=              4.8175
 Quadrupole moment (field-independent basis, Debye-Ang):
   XX=            -55.5463   YY=           -106.9157   ZZ=           -106.6681
   XY=            -19.8572   XZ=              0.6438   YZ=             -0.8614

 Normal termination of Gaussian 16 at Thu May  6 21:24:17 2021.
