 Gaussian 16, Revision A.03,
 Gaussian 16:  EM64L-G16RevA.03 25-Dec-2016

 -------------
 #p 6-31g* mp2
 -------------

 ------------------------------------------------------
 Input file generated by CHIRIPA (05-May-2021 14:51:09)
 ------------------------------------------------------
 Symbolic Z-matrix:
 Charge =  0 Multiplicity = 1

                         Standard orientation:
 ---------------------------------------------------------------------
 Center     Atomic      Atomic             Coordinates (Angstroms)
 Number     Number       Type             X           Y           Z
 ---------------------------------------------------------------------
      1          6           0       -3.266301   -0.155579   -0.328155
      2          6           0       -2.896131   -1.587862   -0.714840
      3          6           0       -4.076189   -2.553794   -0.604242
      4          1           0       -3.652711   -0.148415    0.700232
      5          1           0       -4.086266    0.190507   -0.972575
      6          1           0       -2.076176   -1.930654   -0.070802
      7          1           0       -2.510378   -1.591589   -1.742360
      8          1           0       -4.894661   -2.238711   -1.259550
      9          1           0       -4.457991   -2.579702    0.421505
     10          1           0       -3.789317   -3.571921   -0.885280
     11          6           0       -2.097004    0.821839   -0.433628
     12          6           0       -2.467174    2.254122   -0.046944
     13          6           0       -1.287116    3.220054   -0.157541
     14          1           0       -1.277038    0.475753    0.210791
     15          1           0       -1.710594    0.814675   -1.462016
     16          1           0       -2.852926    2.257849    0.980576
     17          1           0       -3.287129    2.596914   -0.690981
     18          1           0       -0.905313    3.245963   -1.183288
     19          1           0       -0.468644    2.904972    0.497766
     20          1           0       -1.573987    4.238181    0.123497
     21          6           0        2.654525   -0.400172    1.141287
     22          6           0        1.233837   -0.348385    1.704271
     23          6           0        1.195992   -0.483813    3.226776
     24          1           0        3.125562   -1.347158    1.438417
     25          1           0        3.251382    0.402200    1.596650
     26          1           0        0.639461   -1.149752    1.246949
     27          1           0        0.766061    0.598505    1.405605
     28          1           0        1.765309    0.322999    3.699570
     29          1           0        1.637990   -1.435191    3.540012
     30          1           0        0.170827   -0.444172    3.607992
     31          6           0        2.708780   -0.266088   -0.379503
     32          6           0        4.129467   -0.317875   -0.942488
     33          6           0        4.167313   -0.182448   -2.464993
     34          1           0        2.111923   -1.068460   -0.834867
     35          1           0        2.237742    0.680898   -0.676634
     36          1           0        4.597244   -1.264765   -0.643821
     37          1           0        4.723843    0.483492   -0.485166
     38          1           0        3.725314    0.768931   -2.778229
     39          1           0        3.597996   -0.989260   -2.937786
     40          1           0        5.192477   -0.222089   -2.846209
 ---------------------------------------------------------------------

 SCF Done:  E(RHF) =  -470.732890564     A.U. after   11 cycles
 E2 =    -0.1583934501D+01 EUMP2 =    -0.47231682506467D+03

 The electronic state is 1-A.
 Alpha  occ. eigenvalues --  -11.21678 -11.21604 -11.21583 -11.21567 -11.21434
 Alpha  occ. eigenvalues --  -11.21360 -11.21332 -11.21216 -11.21149 -11.21098
 Alpha  occ. eigenvalues --  -11.21069 -11.21059  -1.08477  -1.08370  -1.03580
 Alpha  occ. eigenvalues --   -1.03505  -0.96015  -0.95953  -0.87035  -0.86971
 Alpha  occ. eigenvalues --   -0.79702  -0.79545  -0.78413  -0.78043  -0.65128
 Alpha  occ. eigenvalues --   -0.64995  -0.61061  -0.60830  -0.59408  -0.59304
 Alpha  occ. eigenvalues --   -0.57643  -0.57553  -0.55297  -0.55246  -0.52722
 Alpha  occ. eigenvalues --   -0.52657  -0.52452  -0.52373  -0.49960  -0.49908
 Alpha  occ. eigenvalues --   -0.48139  -0.47859  -0.46834  -0.46474  -0.46200
 Alpha  occ. eigenvalues --   -0.45721  -0.45697  -0.45080  -0.43813  -0.43742
 Alpha virt. eigenvalues --    0.20650   0.22681   0.23387   0.24221   0.25509
 Alpha virt. eigenvalues --    0.26280   0.26941   0.27845   0.28407   0.29610
 Alpha virt. eigenvalues --    0.30053   0.31532   0.31782   0.31909   0.32133

 Mulliken charges:
               1
     1  C   -0.297471
     2  C   -0.301039
     3  C   -0.475629
     4  H    0.149041
     5  H    0.149134
     6  H    0.152501
     7  H    0.151947
     8  H    0.155294
     9  H    0.155118
    10  H    0.159957
    11  C   -0.308648
    12  C   -0.299080
    13  C   -0.478685
    14  H    0.162259
    15  H    0.148879
    16  H    0.151429
    17  H    0.151767
    18  H    0.155274
    19  H    0.156273
    20  H    0.160461
    21  C   -0.297370
    22  C   -0.309504
    23  C   -0.475348
    24  H    0.149768
    25  H    0.149595
    26  H    0.153939
    27  H    0.158311
    28  H    0.155527
    29  H    0.155666
    30  H    0.159867
    31  C   -0.299162
    32  C   -0.299640
    33  C   -0.475718
    34  H    0.149976
    35  H    0.150730
    36  H    0.151874
    37  H    0.151940
    38  H    0.155331
    39  H    0.155204
    40  H    0.160232
 Sum of Mulliken charges =  -0.00000

 Dipole moment (field-independent basis, Debye):
    X=              0.0446    Y=             -0.0090    Z=              0.0118  Tot=              0.0470
 Quadrupole moment (field-independent basis, Debye-Ang):
   XX=            -85.4315   YY=            -84.4461   ZZ=            -85.0257
   XY=             -0.5986   XZ=              0.4769   YZ=              0.0185

 Normal termination of Gaussian 16 at Thu May  6 05:20:00 2021.
