 Gaussian 16, Revision A.03,
 Gaussian 16:  EM64L-G16RevA.03 25-Dec-2016

 -------------
 #p 6-31g* mp2
 -------------

 ------------------------------------------------------
 Input file generated by CHIRIPA (05-May-2021 14:53:15)
 ------------------------------------------------------
 Symbolic Z-matrix:
 Charge =  0 Multiplicity = 1

                         Standard orientation:
 ---------------------------------------------------------------------
 Center     Atomic      Atomic             Coordinates (Angstroms)
 Number     Number       Type             X           Y           Z
 ---------------------------------------------------------------------
      1          6           0        3.787943    0.570424    0.136182
      2          6           0        3.215243    1.787707   -0.590606
      3          6           0        1.935463    2.315658    0.058411
      4          1           0        3.030886   -0.225402    0.157897
      5          1           0        3.989924    0.838323    1.182523
      6          1           0        3.015695    1.517987   -1.635617
      7          1           0        3.973819    2.580658   -0.610762
      8          1           0        2.123334    2.611803    1.095524
      9          1           0        1.159767    1.543094    0.064845
     10          1           0        1.543200    3.185819   -0.477135
     11          6           0        5.067446    0.031113   -0.500798
     12          6           0        5.640147   -1.186170    0.225990
     13          6           0        6.919927   -1.714122   -0.423027
     14          1           0        4.865466   -0.236787   -1.547139
     15          1           0        5.824504    0.826938   -0.522513
     16          1           0        4.881571   -1.979121    0.246145
     17          1           0        5.839694   -0.916451    1.271001
     18          1           0        7.695623   -0.941558   -0.429461
     19          1           0        6.732055   -2.010266   -1.460140
     20          1           0        7.312190   -2.584283    0.112519
     21          6           0       -5.750589   -0.361374   -0.905995
     22          6           0       -5.185478    0.882602   -0.606505
     23          6           0       -3.916518    0.964617   -0.025505
     24          6           0       -3.237607   -0.222755    0.243786
     25          6           0       -3.773865   -1.477158   -0.042907
     26          6           0       -5.044225   -1.535214   -0.623737
     27          1           0       -6.736892   -0.415779   -1.357265
     28          1           0       -5.731751    1.795872   -0.824607
     29          1           0       -3.455400    1.914428    0.216669
     30          1           0       -3.205087   -2.370158    0.186134
     31          1           0       -5.480621   -2.502689   -0.855243
     32          7           0       -1.893475   -0.148612    0.858775
     33          8           0       -1.315808   -1.209373    1.086205
     34          8           0       -1.443064    0.968858    1.101729
 ---------------------------------------------------------------------

 SCF Done:  E(RHF) =  -669.536090035     A.U. after   15 cycles
 E2 =    -0.2090823428D+01 EUMP2 =    -0.67162691346331D+03

 The electronic state is 1-A.
 Alpha  occ. eigenvalues --  -20.60965 -20.60944 -15.85981 -11.31300 -11.27863
 Alpha  occ. eigenvalues --  -11.27857 -11.27600 -11.26868 -11.26858 -11.20854
 Alpha  occ. eigenvalues --  -11.20537 -11.20475 -11.20458 -11.20266 -11.19495
 Alpha  occ. eigenvalues --   -1.60018  -1.39572  -1.19468  -1.08874  -1.07466
 Alpha  occ. eigenvalues --   -1.04863  -1.02534  -0.95716  -0.94958  -0.86264
 Alpha  occ. eigenvalues --   -0.85966  -0.82547  -0.78615  -0.77602  -0.77243
 Alpha  occ. eigenvalues --   -0.72196  -0.71333  -0.70576  -0.65122  -0.64865
 Alpha  occ. eigenvalues --   -0.64105  -0.62209  -0.59936  -0.58384  -0.56571
 Alpha  occ. eigenvalues --   -0.55369  -0.54243  -0.53195  -0.52954  -0.51676
 Alpha  occ. eigenvalues --   -0.51370  -0.49111  -0.48960  -0.48738  -0.46899
 Alpha  occ. eigenvalues --   -0.45682  -0.44996  -0.44769  -0.44629  -0.42799
 Alpha  occ. eigenvalues --   -0.37446  -0.36463
 Alpha virt. eigenvalues --    0.04899   0.11192   0.16391   0.21330   0.23780
 Alpha virt. eigenvalues --    0.25341   0.27248   0.27613   0.28186   0.28470
 Alpha virt. eigenvalues --    0.29104   0.30888   0.32373   0.32503   0.32679

 Mulliken charges:
               1
     1  C   -0.298697
     2  C   -0.299685
     3  C   -0.479598
     4  H    0.156704
     5  H    0.149234
     6  H    0.146639
     7  H    0.146198
     8  H    0.153880
     9  H    0.177015
    10  H    0.150883
    11  C   -0.297476
    12  C   -0.299218
    13  C   -0.475146
    14  H    0.146995
    15  H    0.146927
    16  H    0.153294
    17  H    0.151641
    18  H    0.153725
    19  H    0.153678
    20  H    0.158466
    21  C   -0.170556
    22  C   -0.218585
    23  C   -0.170760
    24  C    0.158086
    25  C   -0.170798
    26  C   -0.218599
    27  H    0.226018
    28  H    0.223914
    29  H    0.276273
    30  H    0.275764
    31  H    0.223806
    32  N    0.487804
    33  O   -0.459747
    34  O   -0.458078
 Sum of Mulliken charges =  -0.00000

 Dipole moment (field-independent basis, Debye):
    X=             -5.0863    Y=             -0.3409    Z=             -2.0679  Tot=              5.5012
 Quadrupole moment (field-independent basis, Debye-Ang):
   XX=            -66.4180   YY=            -89.9174   ZZ=            -96.5701
   XY=              2.1443   XZ=              7.0835   YZ=              0.8201

 Normal termination of Gaussian 16 at Thu May  6 20:25:08 2021.
