 Gaussian 16, Revision A.03,
 Gaussian 16:  EM64L-G16RevA.03 25-Dec-2016

 -------------
 #p 6-31g* mp2
 -------------

 ------------------------------------------------------
 Input file generated by CHIRIPA (05-May-2021 14:51:10)
 ------------------------------------------------------
 Symbolic Z-matrix:
 Charge =  0 Multiplicity = 1

                         Standard orientation:
 ---------------------------------------------------------------------
 Center     Atomic      Atomic             Coordinates (Angstroms)
 Number     Number       Type             X           Y           Z
 ---------------------------------------------------------------------
      1          6           0        4.131246   -0.305380    0.258772
      2          6           0        4.611689   -1.491405   -0.578189
      3          6           0        5.443997   -2.486998    0.230422
      4          1           0        5.001828    0.207445    0.690097
      5          1           0        3.537773   -0.678989    1.104704
      6          1           0        5.202921   -1.115589   -1.423070
      7          1           0        3.739871   -2.001352   -1.007728
      8          1           0        4.859896   -2.889715    1.064235
      9          1           0        6.331258   -1.998919    0.646533
     10          1           0        5.777077   -3.326824   -0.387324
     11          6           0        3.297854    0.698657   -0.535644
     12          6           0        2.817411    1.884682    0.301317
     13          6           0        1.985102    2.880275   -0.507294
     14          1           0        3.891327    1.072266   -1.381576
     15          1           0        2.427271    0.185832   -0.966969
     16          1           0        3.689229    2.394629    0.730856
     17          1           0        2.226179    1.508866    1.146198
     18          1           0        1.097841    2.392197   -0.923405
     19          1           0        2.569204    3.282993   -1.341107
     20          1           0        1.652023    3.720102    0.110452
     21          6           0       -3.161518    0.120781    0.558952
     22          6           0       -1.755520   -0.181999    0.039838
     23          6           0       -0.659930    0.459880    0.891582
     24          1           0       -3.308206    1.209162    0.588191
     25          1           0       -3.246444   -0.234016    1.595436
     26          1           0       -1.673711    0.172021   -0.995823
     27          1           0       -1.612231   -1.269790    0.011650
     28          1           0       -0.712934    0.098480    1.923658
     29          1           0       -0.774764    1.548483    0.910462
     30          1           0        0.337066    0.230603    0.502619
     31          6           0       -4.267582   -0.514058   -0.282080
     32          6           0       -5.673580   -0.211279    0.237034
     33          6           0       -6.769170   -0.853157   -0.614710
     34          1           0       -4.182656   -0.159261   -1.318564
     35          1           0       -4.120894   -1.602439   -0.311319
     36          1           0       -5.816869    0.876512    0.265222
     37          1           0       -5.755388   -0.565298    1.272695
     38          1           0       -6.654335   -1.941760   -0.633590
     39          1           0       -6.716166   -0.491758   -1.646786
     40          1           0       -7.766165   -0.623880   -0.225747
 ---------------------------------------------------------------------

 SCF Done:  E(RHF) =  -470.732209450     A.U. after   11 cycles
 E2 =    -0.1583860811D+01 EUMP2 =    -0.47231607026023D+03

 The electronic state is 1-A.
 Alpha  occ. eigenvalues --  -11.21647 -11.21616 -11.21596 -11.21498 -11.21429
 Alpha  occ. eigenvalues --  -11.21395 -11.21369 -11.21336 -11.21082 -11.21070
 Alpha  occ. eigenvalues --  -11.21065 -11.20983  -1.08473  -1.08401  -1.03610
 Alpha  occ. eigenvalues --   -1.03452  -0.96050  -0.95915  -0.87038  -0.86968
 Alpha  occ. eigenvalues --   -0.79648  -0.79543  -0.78275  -0.78220  -0.65166
 Alpha  occ. eigenvalues --   -0.65049  -0.61187  -0.60845  -0.59330  -0.59237
 Alpha  occ. eigenvalues --   -0.57603  -0.57551  -0.55500  -0.55045  -0.52679
 Alpha  occ. eigenvalues --   -0.52640  -0.52432  -0.52368  -0.50062  -0.49763
 Alpha  occ. eigenvalues --   -0.47948  -0.47850  -0.46668  -0.46576  -0.45822
 Alpha  occ. eigenvalues --   -0.45759  -0.45734  -0.45688  -0.43783  -0.43731
 Alpha virt. eigenvalues --    0.20819   0.22995   0.23761   0.25184   0.26286
 Alpha virt. eigenvalues --    0.26514   0.26866   0.27468   0.27749   0.29381
 Alpha virt. eigenvalues --    0.30931   0.31321   0.31412   0.31819   0.32189

 Mulliken charges:
               1
     1  C   -0.298566
     2  C   -0.299604
     3  C   -0.475705
     4  H    0.149981
     5  H    0.149646
     6  H    0.151958
     7  H    0.151833
     8  H    0.155189
     9  H    0.155204
    10  H    0.160219
    11  C   -0.301629
    12  C   -0.304626
    13  C   -0.476666
    14  H    0.150252
    15  H    0.149914
    16  H    0.152520
    17  H    0.157310
    18  H    0.157999
    19  H    0.154340
    20  H    0.159348
    21  C   -0.298634
    22  C   -0.300667
    23  C   -0.483199
    24  H    0.149930
    25  H    0.149625
    26  H    0.151806
    27  H    0.151791
    28  H    0.154682
    29  H    0.157854
    30  H    0.167654
    31  C   -0.298286
    32  C   -0.299656
    33  C   -0.475719
    34  H    0.149599
    35  H    0.149619
    36  H    0.152028
    37  H    0.151932
    38  H    0.155174
    39  H    0.155235
    40  H    0.160316
 Sum of Mulliken charges =  -0.00000

 Dipole moment (field-independent basis, Debye):
    X=             -0.0142    Y=              0.0037    Z=              0.0164  Tot=              0.0220
 Quadrupole moment (field-independent basis, Debye-Ang):
   XX=            -85.3085   YY=            -84.6846   ZZ=            -84.8689
   XY=              0.4980   XZ=             -0.8916   YZ=             -0.4411

 Normal termination of Gaussian 16 at Thu May  6 00:38:19 2021.
