 Gaussian 16, Revision A.03,
 Gaussian 16:  EM64L-G16RevA.03 25-Dec-2016

 -------------
 #p 6-31g* mp2
 -------------

 ------------------------------------------------------
 Input file generated by CHIRIPA (05-May-2021 14:57:24)
 ------------------------------------------------------
 Symbolic Z-matrix:
 Charge =  0 Multiplicity = 1

                         Standard orientation:
 ---------------------------------------------------------------------
 Center     Atomic      Atomic             Coordinates (Angstroms)
 Number     Number       Type             X           Y           Z
 ---------------------------------------------------------------------
      1          6           0       -1.871309   -2.386500   -0.818453
      2          6           0       -1.242982   -1.409684   -1.597912
      3          6           0       -1.514687   -0.053846   -1.391934
      4          6           0       -2.424151    0.291179   -0.393373
      5          6           0       -3.066285   -0.658604    0.399638
      6          6           0       -2.779355   -2.008509    0.176081
      7          1           0       -1.654329   -3.437443   -0.985289
      8          1           0       -0.537342   -1.700317   -2.370990
      9          1           0       -1.042476    0.723057   -1.980879
     10          1           0       -3.765067   -0.338114    1.162794
     11          1           0       -3.268813   -2.764948    0.782938
     12          7           0       -2.719852    1.723403   -0.166008
     13          8           0       -3.525003    2.001389    0.720046
     14          8           0       -2.140872    2.540875   -0.878159
     15          6           0        4.309315    0.833547   -0.924222
     16          6           0        3.967588   -0.520881   -0.996810
     17          6           0        2.897973   -1.024262   -0.250433
     18          6           0        2.188453   -0.141045    0.561848
     19          6           0        2.504489    1.213442    0.655531
     20          6           0        3.577965    1.694867   -0.099737
     21          1           0        5.141717    1.216058   -1.507479
     22          1           0        4.533794   -1.192111   -1.636267
     23          1           0        2.611859   -2.068370   -0.287780
     24          1           0        1.921412    1.858132    1.301915
     25          1           0        3.841095    2.747199   -0.041387
     26          7           0        1.054057   -0.662330    1.356710
     27          8           0        0.444719    0.136406    2.064782
     28          8           0        0.795734   -1.859779    1.256600
 ---------------------------------------------------------------------

 SCF Done:  E(RHF) =  -868.338309084     A.U. after   16 cycles
 E2 =    -0.2602790279D+01 EUMP2 =    -0.87094109936245D+03

 The electronic state is 1-A.
 Alpha  occ. eigenvalues --  -20.61002 -20.60996 -20.60020 -20.59979 -15.86030
 Alpha  occ. eigenvalues --  -15.85053 -11.31388 -11.30229 -11.28009 -11.27877
 Alpha  occ. eigenvalues --  -11.27678 -11.27005 -11.26899 -11.26893 -11.26748
 Alpha  occ. eigenvalues --  -11.26519 -11.25875 -11.25702  -1.60056  -1.59073
 Alpha  occ. eigenvalues --   -1.39618  -1.38638  -1.19555  -1.18397  -1.08949
 Alpha  occ. eigenvalues --   -1.07813  -1.04951  -1.03810  -0.95790  -0.94692
 Alpha  occ. eigenvalues --   -0.86347  -0.85216  -0.82627  -0.81557  -0.77676
 Alpha  occ. eigenvalues --   -0.76628  -0.72278  -0.71411  -0.71292  -0.70654
 Alpha  occ. eigenvalues --   -0.70354  -0.69539  -0.65206  -0.64947  -0.64077
 Alpha  occ. eigenvalues --   -0.63851  -0.62293  -0.61194  -0.55448  -0.54319
 Alpha  occ. eigenvalues --   -0.53293  -0.53035  -0.52080  -0.51934  -0.49036
 Alpha  occ. eigenvalues --   -0.48982  -0.48050  -0.48024  -0.45099  -0.44094
 Alpha  occ. eigenvalues --   -0.37560  -0.36561  -0.36172  -0.35366
 Alpha virt. eigenvalues --    0.04732   0.06055   0.11020   0.12332   0.16331
 Alpha virt. eigenvalues --    0.17526   0.21229   0.22236   0.27115   0.27923
 Alpha virt. eigenvalues --    0.28308   0.29167   0.30818   0.31664   0.32431

 Mulliken charges:
               1
     1  C   -0.153399
     2  C   -0.221593
     3  C   -0.181854
     4  C    0.164034
     5  C   -0.162629
     6  C   -0.211179
     7  H    0.222470
     8  H    0.215077
     9  H    0.269643
    10  H    0.274623
    11  H    0.222301
    12  N    0.489511
    13  O   -0.459808
    14  O   -0.468377
    15  C   -0.171092
    16  C   -0.219464
    17  C   -0.174293
    18  C    0.158138
    19  C   -0.169777
    20  C   -0.218216
    21  H    0.226501
    22  H    0.222167
    23  H    0.270804
    24  H    0.280883
    25  H    0.226913
    26  N    0.490241
    27  O   -0.457916
    28  O   -0.463707
 Sum of Mulliken charges =  -0.00000

 Dipole moment (field-independent basis, Debye):
    X=              5.0199    Y=             -3.2589    Z=             -3.2900  Tot=              6.8296
 Quadrupole moment (field-independent basis, Debye-Ang):
   XX=            -91.1416   YY=           -104.3476   ZZ=           -105.3498
   XY=             17.0826   XZ=             -5.9386   YZ=              4.1294

 Normal termination of Gaussian 16 at Thu May  6 22:48:56 2021.
