 Gaussian 16, Revision A.03,
 Gaussian 16:  EM64L-G16RevA.03 25-Dec-2016

 -------------
 #p 6-31g* mp2
 -------------

 ------------------------------------------------------
 Input file generated by CHIRIPA (05-May-2021 14:57:25)
 ------------------------------------------------------
 Symbolic Z-matrix:
 Charge =  0 Multiplicity = 1

                         Standard orientation:
 ---------------------------------------------------------------------
 Center     Atomic      Atomic             Coordinates (Angstroms)
 Number     Number       Type             X           Y           Z
 ---------------------------------------------------------------------
      1          6           0       -2.778573   -2.347156    0.259436
      2          6           0       -1.908781   -1.639659    1.095756
      3          6           0       -1.723010   -0.264368    0.926605
      4          6           0       -2.426196    0.374525   -0.093511
      5          6           0       -3.299775   -0.302668   -0.942957
      6          6           0       -3.470075   -1.677583   -0.755462
      7          1           0       -2.916875   -3.415369    0.397961
      8          1           0       -1.370436   -2.157049    1.884766
      9          1           0       -1.055809    0.307798    1.559761
     10          1           0       -3.822562    0.240594   -1.720761
     11          1           0       -4.146213   -2.224472   -1.406457
     12          7           0       -2.237718    1.830285   -0.282293
     13          8           0       -2.868929    2.369932   -1.188378
     14          8           0       -1.462346    2.404098    0.479399
     15          6           0        1.817524    0.250187    2.472501
     16          6           0        2.409447    1.279073    1.732541
     17          6           0        2.768022    1.077123    0.396432
     18          6           0        2.519106   -0.171797   -0.170603
     19          6           0        1.930937   -1.216665    0.540452
     20          6           0        1.580576   -0.992209    1.875148
     21          1           0        1.542165    0.415808    3.509875
     22          1           0        2.594651    2.244960    2.193853
     23          1           0        3.227661    1.856214   -0.199526
     24          1           0        1.758827   -2.168698    0.053185
     25          1           0        1.121026   -1.793083    2.447388
     26          7           0        2.894365   -0.397507   -1.584334
     27          8           0        2.664508   -1.506934   -2.060753
     28          8           0        3.411245    0.539283   -2.189228
 ---------------------------------------------------------------------

 SCF Done:  E(RHF) =  -868.335952871     A.U. after   16 cycles
 E2 =    -0.2603555699D+01 EUMP2 =    -0.87093950856983D+03

 The electronic state is 1-A.
 Alpha  occ. eigenvalues --  -20.60932 -20.60903 -20.60868 -20.60841 -15.85976
 Alpha  occ. eigenvalues --  -15.85914 -11.31382 -11.31307 -11.28034 -11.27901
 Alpha  occ. eigenvalues --  -11.27894 -11.27875 -11.27756 -11.27716 -11.27151
 Alpha  occ. eigenvalues --  -11.27021 -11.26918 -11.26888  -1.59992  -1.59928
 Alpha  occ. eigenvalues --   -1.39547  -1.39479  -1.19612  -1.19499  -1.08984
 Alpha  occ. eigenvalues --   -1.08927  -1.05097  -1.04846  -0.95786  -0.95750
 Alpha  occ. eigenvalues --   -0.86415  -0.86346  -0.82686  -0.82529  -0.77742
 Alpha  occ. eigenvalues --   -0.77537  -0.72204  -0.72134  -0.71315  -0.71246
 Alpha  occ. eigenvalues --   -0.70698  -0.70645  -0.65279  -0.65236  -0.65154
 Alpha  occ. eigenvalues --   -0.64823  -0.62496  -0.62157  -0.55529  -0.55471
 Alpha  occ. eigenvalues --   -0.53654  -0.53272  -0.53001  -0.52745  -0.48959
 Alpha  occ. eigenvalues --   -0.48947  -0.48901  -0.48877  -0.44957  -0.44860
 Alpha  occ. eigenvalues --   -0.37623  -0.37518  -0.37154  -0.35865
 Alpha virt. eigenvalues --    0.04626   0.05172   0.10954   0.11074   0.16009
 Alpha virt. eigenvalues --    0.16647   0.19502   0.22207   0.25266   0.27737
 Alpha virt. eigenvalues --    0.28328   0.29097   0.29625   0.31913   0.32411

 Mulliken charges:
               1
     1  C   -0.169743
     2  C   -0.223046
     3  C   -0.165675
     4  C    0.155230
     5  C   -0.168407
     6  C   -0.218514
     7  H    0.225520
     8  H    0.212413
     9  H    0.277244
    10  H    0.277164
    11  H    0.225031
    12  N    0.488398
    13  O   -0.458175
    14  O   -0.463873
    15  C   -0.179508
    16  C   -0.208871
    17  C   -0.165881
    18  C    0.158149
    19  C   -0.165734
    20  C   -0.226995
    21  H    0.226464
    22  H    0.229511
    23  H    0.279894
    24  H    0.274075
    25  H    0.215799
    26  N    0.488161
    27  O   -0.461912
    28  O   -0.456719
 Sum of Mulliken charges =  -0.00000

 Dipole moment (field-independent basis, Debye):
    X=             -1.8265    Y=             -4.0483    Z=              5.4272  Tot=              7.0128
 Quadrupole moment (field-independent basis, Debye-Ang):
   XX=           -106.0430   YY=           -105.2918   ZZ=           -104.9370
   XY=             17.0283   XZ=             14.3154   YZ=             -0.0815

 Normal termination of Gaussian 16 at Fri May  7 00:23:12 2021.
