 Gaussian 16, Revision A.03,
 Gaussian 16:  EM64L-G16RevA.03 25-Dec-2016

 -------------
 #p 6-31g* mp2
 -------------

 ------------------------------------------------------
 Input file generated by CHIRIPA (05-May-2021 14:53:12)
 ------------------------------------------------------
 Symbolic Z-matrix:
 Charge =  0 Multiplicity = 1

                         Standard orientation:
 ---------------------------------------------------------------------
 Center     Atomic      Atomic             Coordinates (Angstroms)
 Number     Number       Type             X           Y           Z
 ---------------------------------------------------------------------
      1          6           0       -4.849931    0.326337    0.302001
      2          6           0       -6.007982   -0.337755   -0.443576
      3          6           0       -7.337713    0.388193   -0.237157
      4          1           0       -5.086135    0.364055    1.374255
      5          1           0       -4.755988    1.368227   -0.034206
      6          1           0       -6.098832   -1.378488   -0.107068
      7          1           0       -5.768910   -0.374070   -1.514156
      8          1           0       -7.270911    1.422339   -0.590259
      9          1           0       -7.602707    0.412214    0.824823
     10          1           0       -8.151793   -0.103361   -0.778920
     11          6           0       -3.513904   -0.387888    0.105427
     12          6           0       -2.355853    0.276204    0.851003
     13          6           0       -1.026122   -0.449745    0.644585
     14          1           0       -3.607847   -1.429778    0.441634
     15          1           0       -3.277700   -0.425607   -0.966828
     16          1           0       -2.594925    0.312519    1.921584
     17          1           0       -2.265004    1.316937    0.514496
     18          1           0       -0.761129   -0.473765   -0.417396
     19          1           0       -1.092924   -1.483890    0.997687
     20          1           0       -0.212042    0.041810    1.186348
     21          6           0        3.399777    2.543595   -0.145597
     22          6           0        4.394641    1.786859    0.482190
     23          6           0        4.331362    0.390241    0.480937
     24          6           0        3.254299   -0.219537   -0.160462
     25          6           0        2.247582    0.506814   -0.794673
     26          6           0        2.331306    1.902288   -0.780905
     27          1           0        3.456875    3.628078   -0.139763
     28          1           0        5.225588    2.282209    0.976357
     29          1           0        5.087869   -0.219956    0.959244
     30          1           0        1.431455   -0.015405   -1.279072
     31          1           0        1.557247    2.487426   -1.269260
     32          7           0        3.176486   -1.697469   -0.168413
     33          8           0        2.217289   -2.210683   -0.740419
     34          8           0        4.076166   -2.314674    0.397512
 ---------------------------------------------------------------------

 SCF Done:  E(RHF) =  -669.534964389     A.U. after   15 cycles
 E2 =    -0.2091870869D+01 EUMP2 =    -0.67162683525747D+03

 The electronic state is 1-A.
 Alpha  occ. eigenvalues --  -20.60731 -20.60718 -15.85774 -11.31132 -11.27726
 Alpha  occ. eigenvalues --  -11.27689 -11.27476 -11.26732 -11.26720 -11.21674
 Alpha  occ. eigenvalues --  -11.21616 -11.21440 -11.21375 -11.21099 -11.21044
 Alpha  occ. eigenvalues --   -1.59796  -1.39350  -1.19323  -1.08716  -1.08467
 Alpha  occ. eigenvalues --   -1.04731  -1.03563  -0.96014  -0.95544  -0.87033
 Alpha  occ. eigenvalues --   -0.86115  -0.82382  -0.79632  -0.78278  -0.77420
 Alpha  occ. eigenvalues --   -0.71995  -0.71116  -0.70443  -0.65117  -0.64974
 Alpha  occ. eigenvalues --   -0.64732  -0.62123  -0.60942  -0.59381  -0.57613
 Alpha  occ. eigenvalues --   -0.55399  -0.55148  -0.53170  -0.52885  -0.52551
 Alpha  occ. eigenvalues --   -0.52375  -0.49924  -0.48754  -0.48751  -0.47925
 Alpha  occ. eigenvalues --   -0.46661  -0.45814  -0.45747  -0.44751  -0.43814
 Alpha  occ. eigenvalues --   -0.37306  -0.36295
 Alpha virt. eigenvalues --    0.05098   0.11306   0.16575   0.20967   0.22873
 Alpha virt. eigenvalues --    0.24175   0.25929   0.26881   0.27492   0.27870
 Alpha virt. eigenvalues --    0.28914   0.30376   0.31505   0.31650   0.31887

 Mulliken charges:
               1
     1  C   -0.298048
     2  C   -0.299736
     3  C   -0.475680
     4  H    0.149934
     5  H    0.147397
     6  H    0.153354
     7  H    0.151843
     8  H    0.154231
     9  H    0.155310
    10  H    0.160690
    11  C   -0.298246
    12  C   -0.300167
    13  C   -0.476838
    14  H    0.152897
    15  H    0.148872
    16  H    0.152910
    17  H    0.145866
    18  H    0.149372
    19  H    0.165483
    20  H    0.159275
    21  C   -0.170559
    22  C   -0.219051
    23  C   -0.170748
    24  C    0.156239
    25  C   -0.167769
    26  C   -0.221211
    27  H    0.225385
    28  H    0.223172
    29  H    0.275455
    30  H    0.280140
    31  H    0.223165
    32  N    0.488257
    33  O   -0.460404
    34  O   -0.460791
 Sum of Mulliken charges =  -0.00000

 Dipole moment (field-independent basis, Debye):
    X=              0.2519    Y=              5.1055    Z=              0.0608  Tot=              5.1120
 Quadrupole moment (field-independent basis, Debye-Ang):
   XX=            -90.7111   YY=            -97.4879   ZZ=            -93.3823
   XY=             17.6166   XZ=              2.4803   YZ=             -1.5836

 Normal termination of Gaussian 16 at Thu May  6 05:42:12 2021.
