 Gaussian 16, Revision A.03,
 Gaussian 16:  EM64L-G16RevA.03 25-Dec-2016

 -------------
 #p 6-31g* mp2
 -------------

 ------------------------------------------------------
 Input file generated by CHIRIPA (05-May-2021 14:55:22)
 ------------------------------------------------------
 Symbolic Z-matrix:
 Charge =  0 Multiplicity = 1

                         Standard orientation:
 ---------------------------------------------------------------------
 Center     Atomic      Atomic             Coordinates (Angstroms)
 Number     Number       Type             X           Y           Z
 ---------------------------------------------------------------------
      1          6           0       -0.743450   -2.139013    1.032704
      2          6           0       -1.485809   -2.493879   -0.098443
      3          6           0       -2.443143   -1.620014   -0.622293
      4          6           0       -2.633075   -0.393791    0.012996
      5          6           0       -1.909268   -0.011481    1.141372
      6          6           0       -0.957172   -0.901128    1.647917
      7          1           0       -0.001804   -2.823982    1.432922
      8          1           0       -1.321957   -3.454578   -0.578291
      9          1           0       -3.031814   -1.869373   -1.496767
     10          1           0       -2.095022    0.953123    1.597939
     11          1           0       -0.382110   -0.622876    2.526509
     12          7           0       -3.643789    0.539685   -0.532420
     13          8           0       -3.792193    1.614138    0.045650
     14          8           0       -4.268446    0.179216   -1.527661
     15          6           0        2.888440    1.411225   -0.049275
     16          6           0        1.373220    1.467241    0.148101
     17          6           0        0.850738    2.894861    0.311526
     18          1           0        3.381489    1.887629    0.809146
     19          1           0        3.158185    2.004880   -0.933699
     20          1           0        1.106267    0.872523    1.031086
     21          1           0        0.883727    0.990477   -0.710799
     22          1           0        1.088366    3.495598   -0.572357
     23          1           0        1.312171    3.376974    1.179425
     24          1           0       -0.234635    2.911602    0.451325
     25          6           0        3.425794   -0.009270   -0.214118
     26          6           0        4.941013   -0.065285   -0.411492
     27          6           0        5.463495   -1.492905   -0.574918
     28          1           0        3.156049   -0.602925    0.670307
     29          1           0        2.932746   -0.485674   -1.072539
     30          1           0        5.430507    0.411478    0.447407
     31          1           0        5.207967    0.529433   -1.294478
     32          1           0        5.002062   -1.975018   -1.442816
     33          1           0        5.225868   -2.093643    0.308965
     34          1           0        6.548869   -1.509646   -0.714717
 ---------------------------------------------------------------------

 SCF Done:  E(RHF) =  -669.534225231     A.U. after   15 cycles
 E2 =    -0.2093730279D+01 EUMP2 =    -0.67162795551040D+03

 The electronic state is 1-A.
 Alpha  occ. eigenvalues --  -20.60804 -20.60798 -15.85853 -11.31216 -11.27761
 Alpha  occ. eigenvalues --  -11.27756 -11.27496 -11.26792 -11.26778 -11.21986
 Alpha  occ. eigenvalues --  -11.21818 -11.21779 -11.21652 -11.21500 -11.21198
 Alpha  occ. eigenvalues --   -1.59876  -1.39430  -1.19383  -1.08802  -1.08747
 Alpha  occ. eigenvalues --   -1.04801  -1.03831  -0.96294  -0.95611  -0.87304
 Alpha  occ. eigenvalues --   -0.86189  -0.82458  -0.79906  -0.78602  -0.77495
 Alpha  occ. eigenvalues --   -0.72071  -0.71198  -0.70483  -0.65432  -0.65035
 Alpha  occ. eigenvalues --   -0.64795  -0.62175  -0.61224  -0.59669  -0.57923
 Alpha  occ. eigenvalues --   -0.55589  -0.55276  -0.53196  -0.52971  -0.52848
 Alpha  occ. eigenvalues --   -0.52673  -0.50234  -0.48830  -0.48827  -0.48200
 Alpha  occ. eigenvalues --   -0.46953  -0.46126  -0.46063  -0.44835  -0.44093
 Alpha  occ. eigenvalues --   -0.37337  -0.36267
 Alpha virt. eigenvalues --    0.05015   0.11138   0.16461   0.20493   0.22778
 Alpha virt. eigenvalues --    0.23856   0.25878   0.26595   0.26823   0.28418
 Alpha virt. eigenvalues --    0.28757   0.29528   0.31271   0.31507   0.31907

 Mulliken charges:
               1
     1  C   -0.170738
     2  C   -0.218357
     3  C   -0.171768
     4  C    0.158102
     5  C   -0.167597
     6  C   -0.216049
     7  H    0.225730
     8  H    0.223555
     9  H    0.275490
    10  H    0.275929
    11  H    0.222963
    12  N    0.488239
    13  O   -0.460998
    14  O   -0.460078
    15  C   -0.298635
    16  C   -0.299244
    17  C   -0.480091
    18  H    0.148610
    19  H    0.151612
    20  H    0.145650
    21  H    0.154885
    22  H    0.159014
    23  H    0.153086
    24  H    0.164353
    25  C   -0.296389
    26  C   -0.299738
    27  C   -0.475564
    28  H    0.142049
    29  H    0.150297
    30  H    0.152315
    31  H    0.154097
    32  H    0.154984
    33  H    0.152357
    34  H    0.161930
 Sum of Mulliken charges =  -0.00000

 Dipole moment (field-independent basis, Debye):
    X=              3.5398    Y=             -3.2696    Z=              1.8565  Tot=              5.1640
 Quadrupole moment (field-independent basis, Debye-Ang):
   XX=           -114.4172   YY=            -91.2501   ZZ=            -91.4832
   XY=              8.6758   XZ=             -4.0999   YZ=              1.6171

 Normal termination of Gaussian 16 at Thu May  6 17:33:08 2021.
