 Gaussian 16, Revision A.03,
 Gaussian 16:  EM64L-G16RevA.03 25-Dec-2016

 -------------
 #p 6-31g* mp2
 -------------

 ------------------------------------------------------
 Input file generated by CHIRIPA (05-May-2021 14:55:22)
 ------------------------------------------------------
 Symbolic Z-matrix:
 Charge =  0 Multiplicity = 1

                         Standard orientation:
 ---------------------------------------------------------------------
 Center     Atomic      Atomic             Coordinates (Angstroms)
 Number     Number       Type             X           Y           Z
 ---------------------------------------------------------------------
      1          6           0       -1.086171   -1.934978    1.127449
      2          6           0       -0.954918   -0.546129    1.229386
      3          6           0       -1.911461    0.300991    0.661969
      4          6           0       -2.991441   -0.277326   -0.003224
      5          6           0       -3.150117   -1.657210   -0.121673
      6          6           0       -2.181421   -2.485116    0.453433
      7          1           0       -0.338385   -2.585579    1.571219
      8          1           0       -0.105373   -0.116091    1.752249
      9          1           0       -1.834471    1.379598    0.725985
     10          1           0       -4.007944   -2.056461   -0.649072
     11          1           0       -2.285935   -3.563358    0.372706
     12          7           0       -4.010523    0.609312   -0.607993
     13          8           0       -4.952737    0.074966   -1.188807
     14          8           0       -3.847770    1.821816   -0.489745
     15          6           0        4.328086    0.272844   -0.089646
     16          6           0        4.491205   -1.097744   -0.747572
     17          6           0        5.925163   -1.622930   -0.671847
     18          1           0        5.007934    0.987770   -0.573003
     19          1           0        4.640239    0.206574    0.961811
     20          1           0        4.177529   -1.029237   -1.797110
     21          1           0        3.810750   -1.809444   -0.262721
     22          1           0        6.245409   -1.719780    0.370584
     23          1           0        6.614271   -0.935140   -1.172524
     24          1           0        6.019132   -2.603829   -1.148154
     25          6           0        2.900034    0.811198   -0.157264
     26          6           0        2.736915    2.181786    0.500662
     27          6           0        1.302957    2.706973    0.424937
     28          1           0        2.587882    0.877469   -1.208721
     29          1           0        2.220186    0.096273    0.326093
     30          1           0        3.417370    2.893487    0.015811
     31          1           0        3.050592    2.113280    1.550200
     32          1           0        0.613849    2.019182    0.925613
     33          1           0        0.982711    2.803822   -0.617494
     34          1           0        1.208989    3.687872    0.901243
 ---------------------------------------------------------------------

 SCF Done:  E(RHF) =  -669.534646939     A.U. after   15 cycles
 E2 =    -0.2092520810D+01 EUMP2 =    -0.67162716774852D+03

 The electronic state is 1-A.
 Alpha  occ. eigenvalues --  -20.60732 -20.60726 -15.85785 -11.31153 -11.27736
 Alpha  occ. eigenvalues --  -11.27705 -11.27490 -11.26749 -11.26733 -11.22270
 Alpha  occ. eigenvalues --  -11.22158 -11.22055 -11.21948 -11.21816 -11.21543
 Alpha  occ. eigenvalues --   -1.59807  -1.39360  -1.19335  -1.09061  -1.08730
 Alpha  occ. eigenvalues --   -1.04754  -1.04145  -0.96602  -0.95562  -0.87620
 Alpha  occ. eigenvalues --   -0.86142  -0.82411  -0.80214  -0.78870  -0.77438
 Alpha  occ. eigenvalues --   -0.72004  -0.71130  -0.70450  -0.65745  -0.64997
 Alpha  occ. eigenvalues --   -0.64741  -0.62247  -0.61437  -0.59945  -0.58192
 Alpha  occ. eigenvalues --   -0.55909  -0.55242  -0.53281  -0.53106  -0.52993
 Alpha  occ. eigenvalues --   -0.52822  -0.50557  -0.48771  -0.48758  -0.48507
 Alpha  occ. eigenvalues --   -0.47240  -0.46401  -0.46319  -0.44764  -0.44393
 Alpha  occ. eigenvalues --   -0.37315  -0.36314
 Alpha virt. eigenvalues --    0.05087   0.11213   0.16500   0.19772   0.22621
 Alpha virt. eigenvalues --    0.23734   0.25600   0.25871   0.26723   0.28603
 Alpha virt. eigenvalues --    0.29072   0.29863   0.31171   0.31443   0.31739

 Mulliken charges:
               1
     1  C   -0.171415
     2  C   -0.219453
     3  C   -0.171768
     4  C    0.157894
     5  C   -0.170680
     6  C   -0.218772
     7  H    0.225246
     8  H    0.225084
     9  H    0.278539
    10  H    0.275533
    11  H    0.223357
    12  N    0.488363
    13  O   -0.460689
    14  O   -0.460250
    15  C   -0.298757
    16  C   -0.299010
    17  C   -0.476015
    18  H    0.152498
    19  H    0.148626
    20  H    0.154291
    21  H    0.147705
    22  H    0.154944
    23  H    0.157070
    24  H    0.161137
    25  C   -0.299288
    26  C   -0.301385
    27  C   -0.478465
    28  H    0.154140
    29  H    0.142357
    30  H    0.156554
    31  H    0.150641
    32  H    0.143148
    33  H    0.163170
    34  H    0.165648
 Sum of Mulliken charges =  -0.00000

 Dipole moment (field-independent basis, Debye):
    X=              3.7100    Y=             -3.0400    Z=              2.0192  Tot=              5.2041
 Quadrupole moment (field-independent basis, Debye-Ang):
   XX=           -116.0122   YY=            -89.7247   ZZ=            -94.2349
   XY=             11.5524   XZ=             -5.8885   YZ=              0.3298

 Normal termination of Gaussian 16 at Thu May  6 03:04:23 2021.
