 Gaussian 16, Revision A.03,
 Gaussian 16:  EM64L-G16RevA.03 25-Dec-2016

 -------------
 #p 6-31g* mp2
 -------------

 ------------------------------------------------------
 Input file generated by CHIRIPA (05-May-2021 14:53:14)
 ------------------------------------------------------
 Symbolic Z-matrix:
 Charge =  0 Multiplicity = 1

                         Standard orientation:
 ---------------------------------------------------------------------
 Center     Atomic      Atomic             Coordinates (Angstroms)
 Number     Number       Type             X           Y           Z
 ---------------------------------------------------------------------
      1          6           0       -2.594132    0.388283   -0.318594
      2          6           0       -4.043978    0.050140    0.030106
      3          6           0       -4.510303   -1.265992   -0.592896
      4          1           0       -2.489005    0.440475   -1.410917
      5          1           0       -1.942732   -0.429544    0.019389
      6          1           0       -4.692299    0.868994   -0.307198
      7          1           0       -4.145709   -0.001065    1.121731
      8          1           0       -3.887774   -2.097659   -0.247369
      9          1           0       -4.437469   -1.222657   -1.684417
     10          1           0       -5.549406   -1.488292   -0.330776
     11          6           0       -2.113393    1.701197    0.296933
     12          6           0       -0.663547    2.039340   -0.051767
     13          6           0       -0.197222    3.355472    0.571235
     14          1           0       -2.764793    2.519023   -0.041050
     15          1           0       -2.218520    1.649005    1.389256
     16          1           0       -0.561816    2.090544   -1.143391
     17          1           0       -0.015226    1.220485    0.285537
     18          1           0       -0.270055    3.312137    1.662756
     19          1           0       -0.819751    4.187139    0.225709
     20          1           0        0.841881    3.577771    0.309115
     21          6           0        0.016403   -2.413351    0.711050
     22          6           0        0.820727   -1.800261    1.677335
     23          6           0        1.833493   -0.913621    1.299546
     24          6           0        2.015067   -0.661797   -0.059463
     25          6           0        1.230175   -1.256947   -1.045885
     26          6           0        0.223328   -2.140218   -0.645085
     27          1           0       -0.768039   -3.100806    1.013463
     28          1           0        0.662300   -2.010501    2.731253
     29          1           0        2.470712   -0.425146    2.026707
     30          1           0        1.412068   -1.027582   -2.088825
     31          1           0       -0.399797   -2.614901   -1.397704
     32          7           0        3.084103    0.275066   -0.471591
     33          8           0        3.223837    0.480218   -1.675346
     34          8           0        3.762038    0.786488    0.416941
 ---------------------------------------------------------------------

 SCF Done:  E(RHF) =  -669.533207084     A.U. after   15 cycles
 E2 =    -0.2096709056D+01 EUMP2 =    -0.67162991614060D+03

 The electronic state is 1-A.
 Alpha  occ. eigenvalues --  -20.60855 -20.60849 -15.85903 -11.31278 -11.27874
 Alpha  occ. eigenvalues --  -11.27825 -11.27626 -11.26939 -11.26880 -11.21958
 Alpha  occ. eigenvalues --  -11.21682 -11.21484 -11.21426 -11.21369 -11.20802
 Alpha  occ. eigenvalues --   -1.59927  -1.39479  -1.19513  -1.08901  -1.08557
 Alpha  occ. eigenvalues --   -1.04899  -1.03668  -0.96122  -0.95713  -0.87141
 Alpha  occ. eigenvalues --   -0.86293  -0.82536  -0.79757  -0.78386  -0.77571
 Alpha  occ. eigenvalues --   -0.72125  -0.71257  -0.70597  -0.65257  -0.65133
 Alpha  occ. eigenvalues --   -0.64883  -0.62231  -0.61100  -0.59516  -0.57726
 Alpha  occ. eigenvalues --   -0.55457  -0.55395  -0.53482  -0.52978  -0.52728
 Alpha  occ. eigenvalues --   -0.52562  -0.50109  -0.48887  -0.48877  -0.48099
 Alpha  occ. eigenvalues --   -0.46856  -0.45884  -0.45568  -0.44871  -0.43876
 Alpha  occ. eigenvalues --   -0.37346  -0.36458
 Alpha virt. eigenvalues --    0.04907   0.11078   0.16340   0.20525   0.22984
 Alpha virt. eigenvalues --    0.24015   0.26209   0.26629   0.27682   0.27914
 Alpha virt. eigenvalues --    0.28639   0.30557   0.31428   0.31708   0.32105

 Mulliken charges:
               1
     1  C   -0.306749
     2  C   -0.298866
     3  C   -0.473950
     4  H    0.146084
     5  H    0.157015
     6  H    0.153928
     7  H    0.150362
     8  H    0.144481
     9  H    0.155569
    10  H    0.162311
    11  C   -0.295785
    12  C   -0.308483
    13  C   -0.476854
    14  H    0.149572
    15  H    0.146852
    16  H    0.152332
    17  H    0.158307
    18  H    0.152290
    19  H    0.154368
    20  H    0.168487
    21  C   -0.175104
    22  C   -0.214885
    23  C   -0.175311
    24  C    0.159386
    25  C   -0.169347
    26  C   -0.214196
    27  H    0.227029
    28  H    0.224400
    29  H    0.276262
    30  H    0.276025
    31  H    0.225799
    32  N    0.489266
    33  O   -0.460100
    34  O   -0.460493
 Sum of Mulliken charges =  -0.00000

 Dipole moment (field-independent basis, Debye):
    X=             -3.6005    Y=             -3.3155    Z=              1.4270  Tot=              5.0983
 Quadrupole moment (field-independent basis, Debye-Ang):
   XX=           -110.8615   YY=            -91.5450   ZZ=            -89.8204
   XY=             -4.5513   XZ=              4.6283   YZ=             -0.8572

 Normal termination of Gaussian 16 at Thu May  6 20:22:07 2021.
