 Gaussian 16, Revision A.03,
 Gaussian 16:  EM64L-G16RevA.03 25-Dec-2016

 -------------
 #p 6-31g* mp2
 -------------

 ------------------------------------------------------
 Input file generated by CHIRIPA (05-May-2021 14:53:18)
 ------------------------------------------------------
 Symbolic Z-matrix:
 Charge =  0 Multiplicity = 1

                         Standard orientation:
 ---------------------------------------------------------------------
 Center     Atomic      Atomic             Coordinates (Angstroms)
 Number     Number       Type             X           Y           Z
 ---------------------------------------------------------------------
      1          6           0       -3.203398   -0.658228   -0.015870
      2          6           0       -4.311959   -1.501409   -0.646841
      3          6           0       -3.921415   -2.971630   -0.800854
      4          1           0       -2.296927   -0.735727   -0.631702
      5          1           0       -2.949444   -1.076130    0.968132
      6          1           0       -4.564708   -1.081220   -1.628766
      7          1           0       -5.215954   -1.421740   -0.029539
      8          1           0       -3.688971   -3.412626    0.173874
      9          1           0       -3.034025   -3.070170   -1.434439
     10          1           0       -4.728325   -3.556029   -1.253883
     11          6           0       -3.578848    0.813841    0.144682
     12          6           0       -2.470288    1.657022    0.775654
     13          6           0       -2.860831    3.127244    0.929666
     14          1           0       -3.832802    1.231744   -0.839320
     15          1           0       -4.485319    0.891341    0.760514
     16          1           0       -1.566293    1.577354    0.158351
     17          1           0       -2.217539    1.236833    1.757578
     18          1           0       -3.748221    3.225784    1.563251
     19          1           0       -3.093275    3.568239   -0.045062
     20          1           0       -2.053922    3.711642    1.382695
     21          6           0        3.116961   -2.384754    0.813631
     22          6           0        1.806771   -1.895280    0.795193
     23          6           0        1.535959   -0.609143    0.318684
     24          6           0        2.604105    0.163886   -0.133840
     25          6           0        3.920246   -0.295495   -0.128209
     26          6           0        4.167665   -1.584710    0.352684
     27          1           0        3.318248   -3.385051    1.185497
     28          1           0        0.988811   -2.514379    1.152548
     29          1           0        0.531153   -0.205245    0.293169
     30          1           0        4.714866    0.345115   -0.490997
     31          1           0        5.186170   -1.962224    0.365825
     32          7           0        2.329790    1.527091   -0.640620
     33          8           0        3.288358    2.188322   -1.033758
     34          8           0        1.161410    1.908526   -0.635099
 ---------------------------------------------------------------------

 SCF Done:  E(RHF) =  -669.536222430     A.U. after   15 cycles
 E2 =    -0.2091850510D+01 EUMP2 =    -0.67162807293983D+03

 The electronic state is 1-A.
 Alpha  occ. eigenvalues --  -20.60867 -20.60858 -15.85909 -11.31206 -11.27777
 Alpha  occ. eigenvalues --  -11.27744 -11.27512 -11.26783 -11.26760 -11.21736
 Alpha  occ. eigenvalues --  -11.21549 -11.21321 -11.21178 -11.21063 -11.20466
 Alpha  occ. eigenvalues --   -1.59933  -1.39490  -1.19377  -1.08787  -1.08353
 Alpha  occ. eigenvalues --   -1.04769  -1.03357  -0.95840  -0.95631  -0.86856
 Alpha  occ. eigenvalues --   -0.86172  -0.82467  -0.79477  -0.78186  -0.77487
 Alpha  occ. eigenvalues --   -0.72137  -0.71249  -0.70488  -0.65055  -0.64969
 Alpha  occ. eigenvalues --   -0.64758  -0.62117  -0.60733  -0.59234  -0.57430
 Alpha  occ. eigenvalues --   -0.55281  -0.55136  -0.53106  -0.52868  -0.52497
 Alpha  occ. eigenvalues --   -0.52268  -0.49794  -0.48919  -0.48878  -0.47762
 Alpha  occ. eigenvalues --   -0.46505  -0.45682  -0.45523  -0.44906  -0.43639
 Alpha  occ. eigenvalues --   -0.37362  -0.36370
 Alpha virt. eigenvalues --    0.05006   0.11274   0.16511   0.20375   0.23017
 Alpha virt. eigenvalues --    0.24201   0.25003   0.26709   0.27825   0.28042
 Alpha virt. eigenvalues --    0.29800   0.30693   0.31566   0.31645   0.32434

 Mulliken charges:
               1
     1  C   -0.300653
     2  C   -0.299039
     3  C   -0.476037
     4  H    0.146990
     5  H    0.143718
     6  H    0.154751
     7  H    0.153200
     8  H    0.151837
     9  H    0.153848
    10  H    0.161708
    11  C   -0.297150
    12  C   -0.315777
    13  C   -0.473841
    14  H    0.152283
    15  H    0.148454
    16  H    0.177751
    17  H    0.143941
    18  H    0.150288
    19  H    0.157390
    20  H    0.165324
    21  C   -0.170344
    22  C   -0.221148
    23  C   -0.174403
    24  C    0.156543
    25  C   -0.170418
    26  C   -0.218961
    27  H    0.225732
    28  H    0.224831
    29  H    0.284160
    30  H    0.275459
    31  H    0.223458
    32  N    0.493273
    33  O   -0.459596
    34  O   -0.467572
 Sum of Mulliken charges =  -0.00000

 Dipole moment (field-independent basis, Debye):
    X=              1.0281    Y=             -4.6746    Z=              1.6967  Tot=              5.0782
 Quadrupole moment (field-independent basis, Debye-Ang):
   XX=            -84.8932   YY=            -97.8435   ZZ=            -95.2050
   XY=            -11.7563   XZ=              3.5733   YZ=              0.2622

 Normal termination of Gaussian 16 at Thu May  6 09:09:49 2021.
