 Gaussian 16, Revision A.03,
 Gaussian 16:  EM64L-G16RevA.03 25-Dec-2016

 -------------
 #p 6-31g* mp2
 -------------

 ------------------------------------------------------
 Input file generated by CHIRIPA (05-May-2021 14:55:22)
 ------------------------------------------------------
 Symbolic Z-matrix:
 Charge =  0 Multiplicity = 1

                         Standard orientation:
 ---------------------------------------------------------------------
 Center     Atomic      Atomic             Coordinates (Angstroms)
 Number     Number       Type             X           Y           Z
 ---------------------------------------------------------------------
      1          6           0       -2.460232    2.622510    0.604359
      2          6           0       -3.683267    1.944355    0.575883
      3          6           0       -3.756669    0.632307    0.098712
      4          6           0       -2.582129    0.026050   -0.344232
      5          6           0       -1.348646    0.675326   -0.328479
      6          6           0       -1.298872    1.986952    0.152883
      7          1           0       -2.412389    3.641576    0.976664
      8          1           0       -4.586808    2.435443    0.925869
      9          1           0       -4.690316    0.084020    0.065533
     10          1           0       -0.464955    0.159506   -0.684060
     11          1           0       -0.347665    2.511176    0.173831
     12          7           0       -2.647329   -1.362733   -0.851609
     13          8           0       -1.598203   -1.874660   -1.236189
     14          8           0       -3.746325   -1.913037   -0.855105
     15          6           0        2.598666   -0.332197    0.655384
     16          6           0        2.199346   -1.699977    1.210096
     17          6           0        0.811039   -1.695712    1.850706
     18          1           0        2.569905    0.408033    1.466664
     19          1           0        1.852853   -0.012870   -0.085689
     20          1           0        2.946428   -2.017254    1.948892
     21          1           0        2.229247   -2.437076    0.397441
     22          1           0        0.050253   -1.403967    1.119482
     23          1           0        0.771508   -0.981760    2.679749
     24          1           0        0.545766   -2.683375    2.240595
     25          6           0        3.984076   -0.320443    0.011777
     26          6           0        4.383396    1.047337   -0.542935
     27          6           0        5.771703    1.043071   -1.183546
     28          1           0        4.729889   -0.639770    0.752849
     29          1           0        4.012838   -1.060674   -0.799503
     30          1           0        4.353495    1.784435    0.269720
     31          1           0        3.636314    1.364613   -1.281731
     32          1           0        5.811234    0.329119   -2.012588
     33          1           0        6.532490    0.751326   -0.452321
     34          1           0        6.036976    2.030734   -1.573433
 ---------------------------------------------------------------------

 SCF Done:  E(RHF) =  -669.534822247     A.U. after   15 cycles
 E2 =    -0.2093647166D+01 EUMP2 =    -0.67162846941323D+03

 The electronic state is 1-A.
 Alpha  occ. eigenvalues --  -20.60878 -20.60867 -15.85895 -11.31197 -11.27767
 Alpha  occ. eigenvalues --  -11.27740 -11.27501 -11.26770 -11.26745 -11.21918
 Alpha  occ. eigenvalues --  -11.21754 -11.21587 -11.21510 -11.21288 -11.20776
 Alpha  occ. eigenvalues --   -1.59930  -1.39490  -1.19374  -1.08779  -1.08629
 Alpha  occ. eigenvalues --   -1.04771  -1.03616  -0.96069  -0.95624  -0.87091
 Alpha  occ. eigenvalues --   -0.86177  -0.82458  -0.79704  -0.78512  -0.77495
 Alpha  occ. eigenvalues --   -0.72124  -0.71247  -0.70507  -0.65315  -0.65028
 Alpha  occ. eigenvalues --   -0.64738  -0.62176  -0.60945  -0.59446  -0.57695
 Alpha  occ. eigenvalues --   -0.55371  -0.55271  -0.53134  -0.52877  -0.52710
 Alpha  occ. eigenvalues --   -0.52485  -0.50049  -0.48877  -0.48873  -0.47999
 Alpha  occ. eigenvalues --   -0.46728  -0.46002  -0.45914  -0.44812  -0.43909
 Alpha  occ. eigenvalues --   -0.37343  -0.36329
 Alpha virt. eigenvalues --    0.04995   0.11191   0.16488   0.20089   0.22964
 Alpha virt. eigenvalues --    0.24114   0.25368   0.26651   0.27892   0.28107
 Alpha virt. eigenvalues --    0.29805   0.30477   0.31536   0.31811   0.31860

 Mulliken charges:
               1
     1  C   -0.170686
     2  C   -0.218691
     3  C   -0.170278
     4  C    0.162105
     5  C   -0.178115
     6  C   -0.221295
     7  H    0.225719
     8  H    0.223498
     9  H    0.275544
    10  H    0.283028
    11  H    0.224832
    12  N    0.488112
    13  O   -0.460560
    14  O   -0.458838
    15  C   -0.300892
    16  C   -0.299812
    17  C   -0.481591
    18  H    0.147054
    19  H    0.139716
    20  H    0.151485
    21  H    0.160123
    22  H    0.162022
    23  H    0.149162
    24  H    0.164552
    25  C   -0.297965
    26  C   -0.299671
    27  C   -0.475794
    28  H    0.151533
    29  H    0.154024
    30  H    0.149620
    31  H    0.148569
    32  H    0.157384
    33  H    0.156221
    34  H    0.159887
 Sum of Mulliken charges =  -0.00000

 Dipole moment (field-independent basis, Debye):
    X=              0.2244    Y=              4.7751    Z=              1.7574  Tot=              5.0932
 Quadrupole moment (field-independent basis, Debye-Ang):
   XX=            -91.4078   YY=            -94.8096   ZZ=            -96.2499
   XY=            -13.0027   XZ=             -5.0040   YZ=             -1.2765

 Normal termination of Gaussian 16 at Thu May  6 15:52:53 2021.
