 Gaussian 16, Revision A.03,
 Gaussian 16:  EM64L-G16RevA.03 25-Dec-2016

 -------------
 #p 6-31g* mp2
 -------------

 ------------------------------------------------------
 Input file generated by CHIRIPA (05-May-2021 14:51:10)
 ------------------------------------------------------
 Symbolic Z-matrix:
 Charge =  0 Multiplicity = 1

                         Standard orientation:
 ---------------------------------------------------------------------
 Center     Atomic      Atomic             Coordinates (Angstroms)
 Number     Number       Type             X           Y           Z
 ---------------------------------------------------------------------
      1          6           0       -4.117171   -0.609372    0.317222
      2          6           0       -4.808914   -1.684764   -0.521234
      3          6           0       -5.068646   -2.970614    0.264210
      4          1           0       -3.166369   -1.006083    0.698720
      5          1           0       -4.737104   -0.384384    1.196119
      6          1           0       -4.188526   -1.906663   -1.399013
      7          1           0       -5.758090   -1.285381   -0.900939
      8          1           0       -5.706662   -2.770318    1.131054
      9          1           0       -4.128180   -3.395130    0.630150
     10          1           0       -5.563799   -3.725739   -0.354230
     11          6           0       -3.850765    0.682047   -0.454136
     12          6           0       -3.159022    1.757439    0.384321
     13          6           0       -2.899290    3.043289   -0.401124
     14          1           0       -3.230833    0.457059   -1.333032
     15          1           0       -4.801567    1.078758   -0.835633
     16          1           0       -2.209847    1.358056    0.764025
     17          1           0       -3.779411    1.979338    1.262099
     18          1           0       -3.839756    3.467804   -0.767063
     19          1           0       -2.261274    2.842993   -1.267967
     20          1           0       -2.404137    3.798414    0.217317
     21          6           0        4.548595   -0.308035   -0.368361
     22          6           0        5.871450   -0.469031    0.381386
     23          6           0        6.991334   -1.013511   -0.505854
     24          1           0        4.249347   -1.279988   -0.783939
     25          1           0        4.699614    0.364618   -1.224005
     26          1           0        5.717655   -1.140084    1.236167
     27          1           0        6.167485    0.503378    0.795390
     28          1           0        7.173635   -0.342442   -1.351450
     29          1           0        6.721249   -1.995242   -0.908169
     30          1           0        7.927893   -1.120715    0.050226
     31          6           0        3.419342    0.235360    0.505274
     32          6           0        2.096487    0.396356   -0.244472
     33          6           0        0.976602    0.940836    0.642767
     34          1           0        3.268322   -0.437293    1.360918
     35          1           0        3.718589    1.207312    0.920853
     36          1           0        1.800451   -0.576053   -0.658477
     37          1           0        2.250281    1.067409   -1.099253
     38          1           0        1.246687    1.922567    1.045083
     39          1           0        0.794301    0.269767    1.488364
     40          1           0        0.040043    1.048040    0.086688
 ---------------------------------------------------------------------

 SCF Done:  E(RHF) =  -470.733225767     A.U. after   11 cycles
 E2 =    -0.1582518106D+01 EUMP2 =    -0.47231574387306D+03

 The electronic state is 1-A.
 Alpha  occ. eigenvalues --  -11.21649 -11.21621 -11.21585 -11.21513 -11.21434
 Alpha  occ. eigenvalues --  -11.21377 -11.21375 -11.21317 -11.21116 -11.21087
 Alpha  occ. eigenvalues --  -11.21061 -11.21038  -1.08463  -1.08399  -1.03574
 Alpha  occ. eigenvalues --   -1.03491  -0.96024  -0.95945  -0.87041  -0.86964
 Alpha  occ. eigenvalues --   -0.79661  -0.79531  -0.78276  -0.78207  -0.65092
 Alpha  occ. eigenvalues --   -0.65051  -0.60970  -0.60958  -0.59409  -0.59264
 Alpha  occ. eigenvalues --   -0.57635  -0.57544  -0.55305  -0.55242  -0.52737
 Alpha  occ. eigenvalues --   -0.52633  -0.52442  -0.52367  -0.49964  -0.49883
 Alpha  occ. eigenvalues --   -0.47974  -0.47848  -0.46667  -0.46584  -0.45817
 Alpha  occ. eigenvalues --   -0.45759  -0.45735  -0.45681  -0.43791  -0.43722
 Alpha virt. eigenvalues --    0.21188   0.23012   0.23810   0.24949   0.26310
 Alpha virt. eigenvalues --    0.26641   0.27165   0.27572   0.27997   0.28786
 Alpha virt. eigenvalues --    0.30670   0.31292   0.31403   0.31746   0.32110

 Mulliken charges:
               1
     1  C   -0.298288
     2  C   -0.299618
     3  C   -0.475671
     4  H    0.149781
     5  H    0.149553
     6  H    0.151814
     7  H    0.151919
     8  H    0.155185
     9  H    0.155062
    10  H    0.160172
    11  C   -0.298338
    12  C   -0.306877
    13  C   -0.475664
    14  H    0.148851
    15  H    0.149641
    16  H    0.159338
    17  H    0.151995
    18  H    0.155069
    19  H    0.154569
    20  H    0.160572
    21  C   -0.298275
    22  C   -0.299650
    23  C   -0.475720
    24  H    0.149619
    25  H    0.149600
    26  H    0.151960
    27  H    0.152012
    28  H    0.155222
    29  H    0.155186
    30  H    0.160331
    31  C   -0.298633
    32  C   -0.299663
    33  C   -0.480701
    34  H    0.149569
    35  H    0.149823
    36  H    0.151696
    37  H    0.152131
    38  H    0.155939
    39  H    0.154987
    40  H    0.165502
 Sum of Mulliken charges =  -0.00000

 Dipole moment (field-independent basis, Debye):
    X=              0.0273    Y=              0.0066    Z=              0.0131  Tot=              0.0310
 Quadrupole moment (field-independent basis, Debye-Ang):
   XX=            -84.8325   YY=            -84.8800   ZZ=            -85.1122
   XY=              0.0398   XZ=              0.2114   YZ=              0.1078

 Normal termination of Gaussian 16 at Wed May  5 21:26:12 2021.
