 Gaussian 16, Revision A.03,
 Gaussian 16:  EM64L-G16RevA.03 25-Dec-2016

 -------------
 #p 6-31g* mp2
 -------------

 ------------------------------------------------------
 Input file generated by CHIRIPA (05-May-2021 14:55:25)
 ------------------------------------------------------
 Symbolic Z-matrix:
 Charge =  0 Multiplicity = 1

                         Standard orientation:
 ---------------------------------------------------------------------
 Center     Atomic      Atomic             Coordinates (Angstroms)
 Number     Number       Type             X           Y           Z
 ---------------------------------------------------------------------
      1          6           0       -3.245926   -2.269254   -0.937064
      2          6           0       -4.088761   -1.153327   -0.966337
      3          6           0       -3.703957    0.043322   -0.354368
      4          6           0       -2.463890    0.089034    0.280798
      5          6           0       -1.601982   -1.005618    0.327058
      6          6           0       -2.007410   -2.191974   -0.291597
      7          1           0       -3.552862   -3.194842   -1.415053
      8          1           0       -5.051173   -1.210450   -1.466881
      9          1           0       -4.336888    0.922389   -0.361946
     10          1           0       -0.648549   -0.918188    0.833753
     11          1           0       -1.350803   -3.057030   -0.267282
     12          7           0       -2.045599    1.350424    0.932201
     13          8           0       -0.948077    1.364958    1.485259
     14          8           0       -2.823184    2.300684    0.877380
     15          6           0        3.089549   -0.550130    0.036848
     16          6           0        4.338541   -1.412444    0.222363
     17          6           0        4.017236   -2.814538    0.740717
     18          1           0        2.557709   -0.475341    0.995231
     19          1           0        2.406027   -1.052551   -0.661556
     20          1           0        5.020116   -0.907889    0.919139
     21          1           0        4.867572   -1.485032   -0.736530
     22          1           0        3.356412   -3.340689    0.044242
     23          1           0        3.509822   -2.760267    1.709318
     24          1           0        4.924394   -3.413882    0.866059
     25          6           0        3.394496    0.854407   -0.480850
     26          6           0        2.145503    1.716721   -0.666365
     27          6           0        2.466809    3.118814   -1.184719
     28          1           0        4.078017    1.356827    0.217553
     29          1           0        3.926335    0.779617   -1.439234
     30          1           0        1.616473    1.789308    0.292527
     31          1           0        1.463928    1.212165   -1.363141
     32          1           0        2.974222    3.064544   -2.153320
     33          1           0        3.127633    3.644965   -0.488244
     34          1           0        1.559651    3.718159   -1.310061
 ---------------------------------------------------------------------

 SCF Done:  E(RHF) =  -669.536366278     A.U. after   15 cycles
 E2 =    -0.2091694986D+01 EUMP2 =    -0.67162806126451D+03

 The electronic state is 1-A.
 Alpha  occ. eigenvalues --  -20.60883 -20.60876 -15.85912 -11.31220 -11.27791
 Alpha  occ. eigenvalues --  -11.27768 -11.27529 -11.26797 -11.26781 -11.21585
 Alpha  occ. eigenvalues --  -11.21300 -11.21225 -11.20983 -11.20782 -11.20372
 Alpha  occ. eigenvalues --   -1.59940  -1.39497  -1.19391  -1.08799  -1.08149
 Alpha  occ. eigenvalues --   -1.04784  -1.03193  -0.95694  -0.95642  -0.86712
 Alpha  occ. eigenvalues --   -0.86186  -0.82480  -0.79299  -0.77946  -0.77498
 Alpha  occ. eigenvalues --   -0.72142  -0.71249  -0.70500  -0.65052  -0.64790
 Alpha  occ. eigenvalues --   -0.64771  -0.62130  -0.60580  -0.59086  -0.57274
 Alpha  occ. eigenvalues --   -0.55295  -0.55000  -0.53119  -0.52878  -0.52370
 Alpha  occ. eigenvalues --   -0.52116  -0.49655  -0.48906  -0.48893  -0.47615
 Alpha  occ. eigenvalues --   -0.46349  -0.45568  -0.45393  -0.44678  -0.43462
 Alpha  occ. eigenvalues --   -0.37372  -0.36385
 Alpha virt. eigenvalues --    0.04967   0.11250   0.16433   0.20890   0.23072
 Alpha virt. eigenvalues --    0.24662   0.25582   0.26752   0.27768   0.28145
 Alpha virt. eigenvalues --    0.29358   0.31072   0.31698   0.31888   0.32466

 Mulliken charges:
               1
     1  C   -0.170571
     2  C   -0.218738
     3  C   -0.170783
     4  C    0.158056
     5  C   -0.171858
     6  C   -0.219478
     7  H    0.225722
     8  H    0.223506
     9  H    0.275537
    10  H    0.278652
    11  H    0.224117
    12  N    0.489452
    13  O   -0.461214
    14  O   -0.459500
    15  C   -0.300524
    16  C   -0.298896
    17  C   -0.475680
    18  H    0.152682
    19  H    0.142393
    20  H    0.154195
    21  H    0.151988
    22  H    0.149998
    23  H    0.154580
    24  H    0.161155
    25  C   -0.297478
    26  C   -0.310064
    27  C   -0.475358
    28  H    0.150448
    29  H    0.146728
    30  H    0.178438
    31  H    0.143691
    32  H    0.149912
    33  H    0.154960
    34  H    0.163934
 Sum of Mulliken charges =  -0.00000

 Dipole moment (field-independent basis, Debye):
    X=             -1.5735    Y=             -4.3284    Z=             -2.1729  Tot=              5.0924
 Quadrupole moment (field-independent basis, Debye-Ang):
   XX=            -84.0968   YY=            -96.1599   ZZ=            -95.8316
   XY=              8.9470   XZ=              7.2336   YZ=             -1.1482

 Normal termination of Gaussian 16 at Thu May  6 09:32:21 2021.
