 Gaussian 16, Revision A.03,
 Gaussian 16:  EM64L-G16RevA.03 25-Dec-2016

 -------------
 #p 6-31g* mp2
 -------------

 ------------------------------------------------------
 Input file generated by CHIRIPA (05-May-2021 14:53:12)
 ------------------------------------------------------
 Symbolic Z-matrix:
 Charge =  0 Multiplicity = 1

                         Standard orientation:
 ---------------------------------------------------------------------
 Center     Atomic      Atomic             Coordinates (Angstroms)
 Number     Number       Type             X           Y           Z
 ---------------------------------------------------------------------
      1          6           0       -3.945633    0.772830    0.158716
      2          6           0       -3.100889    2.030632   -0.047019
      3          6           0       -3.704502    3.264501    0.624555
      4          1           0       -4.956024    0.948976   -0.235020
      5          1           0       -4.057909    0.587128    1.235890
      6          1           0       -2.989081    2.213125   -1.123500
      7          1           0       -2.092336    1.851405    0.347080
      8          1           0       -3.800703    3.107426    1.703755
      9          1           0       -4.702544    3.471201    0.224819
     10          1           0       -3.084540    4.152197    0.464855
     11          6           0       -3.355189   -0.469025   -0.506791
     12          6           0       -4.199934   -1.726827   -0.301056
     13          6           0       -3.596321   -2.960697   -0.972630
     14          1           0       -3.242914   -0.283323   -1.583965
     15          1           0       -2.344799   -0.645171   -0.113055
     16          1           0       -5.208487   -1.547600   -0.695155
     17          1           0       -4.311741   -1.909320    0.775425
     18          1           0       -2.598279   -3.167396   -0.572894
     19          1           0       -3.500120   -2.803622   -2.051830
     20          1           0       -4.216282   -3.848393   -0.812930
     21          6           0        4.959846    0.875239   -0.830757
     22          6           0        3.742316    1.550778   -0.964123
     23          6           0        2.568055    1.009492   -0.432455
     24          6           0        2.648094   -0.214762    0.229426
     25          6           0        3.845994   -0.911938    0.378649
     26          6           0        5.007716   -0.351800   -0.160977
     27          1           0        5.867170    1.303046   -1.246861
     28          1           0        3.702148    2.503872   -1.483780
     29          1           0        1.612111    1.511188   -0.521279
     30          1           0        3.854514   -1.860349    0.901968
     31          1           0        5.951865   -0.878663   -0.055891
     32          7           0        1.411595   -0.797776    0.796492
     33          8           0        1.508722   -1.877764    1.375137
     34          8           0        0.368712   -0.163715    0.651575
 ---------------------------------------------------------------------

 SCF Done:  E(RHF) =  -669.536576861     A.U. after   15 cycles
 E2 =    -0.2091411162D+01 EUMP2 =    -0.67162798802221D+03

 The electronic state is 1-A.
 Alpha  occ. eigenvalues --  -20.61065 -20.61056 -15.86088 -11.31350 -11.27907
 Alpha  occ. eigenvalues --  -11.27902 -11.27637 -11.26903 -11.26893 -11.20610
 Alpha  occ. eigenvalues --  -11.20462 -11.20359 -11.20285 -11.20012 -11.19929
 Alpha  occ. eigenvalues --   -1.60117  -1.39675  -1.19514  -1.08930  -1.07279
 Alpha  occ. eigenvalues --   -1.04901  -1.02508  -0.95781  -0.94958  -0.86305
 Alpha  occ. eigenvalues --   -0.85982  -0.82618  -0.78573  -0.77683  -0.77058
 Alpha  occ. eigenvalues --   -0.72313  -0.71424  -0.70623  -0.65174  -0.64905
 Alpha  occ. eigenvalues --   -0.63882  -0.62249  -0.59900  -0.58349  -0.56576
 Alpha  occ. eigenvalues --   -0.55410  -0.54236  -0.53236  -0.52993  -0.51712
 Alpha  occ. eigenvalues --   -0.51397  -0.49136  -0.49064  -0.48839  -0.46901
 Alpha  occ. eigenvalues --   -0.45593  -0.45137  -0.44641  -0.44358  -0.42716
 Alpha  occ. eigenvalues --   -0.37490  -0.36500
 Alpha virt. eigenvalues --    0.04836   0.11156   0.16335   0.21177   0.23955
 Alpha virt. eigenvalues --    0.25213   0.26894   0.27436   0.27986   0.28872
 Alpha virt. eigenvalues --    0.29159   0.30929   0.31996   0.32458   0.32644

 Mulliken charges:
               1
     1  C   -0.295712
     2  C   -0.304507
     3  C   -0.474688
     4  H    0.143685
     5  H    0.149924
     6  H    0.145441
     7  H    0.165496
     8  H    0.155377
     9  H    0.152471
    10  H    0.154463
    11  C   -0.312076
    12  C   -0.297881
    13  C   -0.476596
    14  H    0.141256
    15  H    0.181049
    16  H    0.145982
    17  H    0.152212
    18  H    0.162548
    19  H    0.150527
    20  H    0.155845
    21  C   -0.170395
    22  C   -0.218621
    23  C   -0.170657
    24  C    0.157402
    25  C   -0.170422
    26  C   -0.218634
    27  H    0.226238
    28  H    0.224192
    29  H    0.276418
    30  H    0.275926
    31  H    0.224008
    32  N    0.493555
    33  O   -0.458520
    34  O   -0.465303
 Sum of Mulliken charges =  -0.00000

 Dipole moment (field-independent basis, Debye):
    X=              4.7674    Y=              1.9599    Z=             -1.8734  Tot=              5.4844
 Quadrupole moment (field-independent basis, Debye-Ang):
   XX=            -71.9005   YY=            -94.4126   ZZ=            -95.5367
   XY=              2.6307   XZ=             -3.3454   YZ=             -1.4580

 Normal termination of Gaussian 16 at Thu May  6 13:40:41 2021.
