 Gaussian 16, Revision A.03,
 Gaussian 16:  EM64L-G16RevA.03 25-Dec-2016

 -------------
 #p 6-31g* mp2
 -------------

 ------------------------------------------------------
 Input file generated by CHIRIPA (05-May-2021 14:57:23)
 ------------------------------------------------------
 Symbolic Z-matrix:
 Charge =  0 Multiplicity = 1

                         Standard orientation:
 ---------------------------------------------------------------------
 Center     Atomic      Atomic             Coordinates (Angstroms)
 Number     Number       Type             X           Y           Z
 ---------------------------------------------------------------------
      1          6           0       -3.685423    2.569966   -0.192882
      2          6           0       -4.592358    1.715834   -0.828845
      3          6           0       -4.501873    0.331015   -0.659618
      4          6           0       -3.487560   -0.167777    0.156265
      5          6           0       -2.568925    0.657284    0.803317
      6          6           0       -2.678377    2.038901    0.619736
      7          1           0       -3.763081    3.644483   -0.329917
      8          1           0       -5.375458    2.125461   -1.460513
      9          1           0       -5.190727   -0.353107   -1.140112
     10          1           0       -1.798981    0.219396    1.426902
     11          1           0       -1.972649    2.699833    1.114874
     12          7           0       -3.381728   -1.632128    0.343016
     13          8           0       -2.479093   -2.046616    1.066954
     14          8           0       -4.203415   -2.337670   -0.238084
     15          6           0        1.133839   -0.879774   -0.431327
     16          6           0        1.384348    0.467165   -0.149326
     17          6           0        2.694137    0.925003    0.022089
     18          6           0        3.734238    0.004376   -0.095918
     19          6           0        3.516899   -1.343788   -0.376116
     20          6           0        2.199037   -1.779365   -0.543624
     21          1           0        0.113228   -1.226787   -0.562969
     22          1           0        0.559060    1.168051   -0.061549
     23          1           0        2.916528    1.962308    0.241081
     24          1           0        4.360230   -2.018742   -0.457648
     25          1           0        2.007472   -2.825986   -0.762559
     26          7           0        5.125127    0.477285    0.083482
     27          8           0        6.024028   -0.353818   -0.025521
     28          8           0        5.290067    1.670099    0.329704
 ---------------------------------------------------------------------

 SCF Done:  E(RHF) =  -868.338910586     A.U. after   16 cycles
 E2 =    -0.2600377002D+01 EUMP2 =    -0.87093928758823D+03

 The electronic state is 1-A.
 Alpha  occ. eigenvalues --  -20.61959 -20.61920 -20.60693 -20.60679 -15.86966
 Alpha  occ. eigenvalues --  -15.85743 -11.32282 -11.31053 -11.28873 -11.28793
 Alpha  occ. eigenvalues --  -11.28513 -11.27862 -11.27762 -11.27697 -11.27595
 Alpha  occ. eigenvalues --  -11.27257 -11.26678 -11.26511  -1.61007  -1.59766
 Alpha  occ. eigenvalues --   -1.40561  -1.39322  -1.20444  -1.19222  -1.09833
 Alpha  occ. eigenvalues --   -1.08603  -1.05836  -1.04632  -0.96677  -0.95446
 Alpha  occ. eigenvalues --   -0.87222  -0.86023  -0.83509  -0.82294  -0.78581
 Alpha  occ. eigenvalues --   -0.77372  -0.73174  -0.72343  -0.71962  -0.71509
 Alpha  occ. eigenvalues --   -0.71090  -0.70252  -0.66086  -0.65809  -0.64869
 Alpha  occ. eigenvalues --   -0.64660  -0.63159  -0.61985  -0.56285  -0.55041
 Alpha  occ. eigenvalues --   -0.54168  -0.53900  -0.52943  -0.52713  -0.49946
 Alpha  occ. eigenvalues --   -0.49929  -0.48720  -0.48713  -0.45956  -0.44740
 Alpha  occ. eigenvalues --   -0.38392  -0.37443  -0.37149  -0.36249
 Alpha virt. eigenvalues --    0.03887   0.05187   0.10129   0.11364   0.15279
 Alpha virt. eigenvalues --    0.16699   0.19821   0.21925   0.25545   0.27159
 Alpha virt. eigenvalues --    0.27774   0.28714   0.29682   0.31303   0.32428

 Mulliken charges:
               1
     1  C   -0.169563
     2  C   -0.217762
     3  C   -0.169722
     4  C    0.156844
     5  C   -0.179709
     6  C   -0.222202
     7  H    0.230122
     8  H    0.227842
     9  H    0.278556
    10  H    0.277424
    11  H    0.225320
    12  N    0.486829
    13  O   -0.463052
    14  O   -0.454454
    15  C   -0.171137
    16  C   -0.224591
    17  C   -0.171117
    18  C    0.158030
    19  C   -0.170632
    20  C   -0.219096
    21  H    0.234458
    22  H    0.215305
    23  H    0.272347
    24  H    0.275899
    25  H    0.228272
    26  N    0.488237
    27  O   -0.459948
    28  O   -0.462499
 Sum of Mulliken charges =  -0.00000

 Dipole moment (field-independent basis, Debye):
    X=             -5.6749    Y=              3.3920    Z=             -1.3733  Tot=              6.7525
 Quadrupole moment (field-independent basis, Debye-Ang):
   XX=           -134.6894   YY=           -102.2834   ZZ=           -104.3213
   XY=            -26.2372   XZ=              2.9917   YZ=              2.4338

 Normal termination of Gaussian 16 at Thu May  6 12:56:10 2021.
