 Gaussian 16, Revision A.03,
 Gaussian 16:  EM64L-G16RevA.03 25-Dec-2016

 -------------
 #p 6-31g* mp2
 -------------

 ------------------------------------------------------
 Input file generated by CHIRIPA (05-May-2021 14:57:27)
 ------------------------------------------------------
 Symbolic Z-matrix:
 Charge =  0 Multiplicity = 1

                         Standard orientation:
 ---------------------------------------------------------------------
 Center     Atomic      Atomic             Coordinates (Angstroms)
 Number     Number       Type             X           Y           Z
 ---------------------------------------------------------------------
      1          6           0       -1.979773    2.595070    0.052601
      2          6           0       -2.825787    2.149302   -0.968219
      3          6           0       -3.250384    0.817875   -1.007804
      4          6           0       -2.807675   -0.044519   -0.006019
      5          6           0       -1.964629    0.369476    1.024113
      6          6           0       -1.552647    1.705302    1.043761
      7          1           0       -1.654835    3.631063    0.075608
      8          1           0       -3.159085    2.838078   -1.739287
      9          1           0       -3.905215    0.446188   -1.786562
     10          1           0       -1.649097   -0.340620    1.778846
     11          1           0       -0.895608    2.048704    1.837751
     12          7           0       -3.250499   -1.456370   -0.037373
     13          8           0       -2.846359   -2.196310    0.856941
     14          8           0       -3.993341   -1.796306   -0.955669
     15          6           0        2.898745    2.328460    0.075526
     16          6           0        3.532837    1.615686   -0.947411
     17          6           0        3.448672    0.221114   -0.998718
     18          6           0        2.718832   -0.431469   -0.006368
     19          6           0        2.075990    0.250529    1.025583
     20          6           0        2.173623    1.644813    1.057028
     21          1           0        2.969357    3.411686    0.107668
     22          1           0        4.096658    2.143975   -1.710995
     23          1           0        3.929787   -0.355538   -1.779372
     24          1           0        1.521141   -0.303923    1.772673
     25          1           0        1.680155    2.195758    1.852636
     26          7           0        2.622602   -1.907688   -0.050171
     27          8           0        1.973536   -2.459121    0.835985
     28          8           0        3.198063   -2.485362   -0.969831
 ---------------------------------------------------------------------

 SCF Done:  E(RHF) =  -868.334936698     A.U. after   16 cycles
 E2 =    -0.2602136480D+01 EUMP2 =    -0.87093707317855D+03

 The electronic state is 1-A.
 Alpha  occ. eigenvalues --  -20.60889 -20.60870 -20.60687 -20.60654 -15.85946
 Alpha  occ. eigenvalues --  -15.85737 -11.31555 -11.31355 -11.28228 -11.28121
 Alpha  occ. eigenvalues --  -11.27986 -11.27981 -11.27931 -11.27798 -11.27342
 Alpha  occ. eigenvalues --  -11.27192 -11.27143 -11.27017  -1.59953  -1.59744
 Alpha  occ. eigenvalues --   -1.39500  -1.39290  -1.19766  -1.19562  -1.09120
 Alpha  occ. eigenvalues --   -1.08920  -1.05248  -1.04999  -0.95909  -0.95707
 Alpha  occ. eigenvalues --   -0.86641  -0.86390  -0.82777  -0.82530  -0.77794
 Alpha  occ. eigenvalues --   -0.77507  -0.72157  -0.71952  -0.71281  -0.71070
 Alpha  occ. eigenvalues --   -0.70897  -0.70682  -0.65462  -0.65416  -0.65220
 Alpha  occ. eigenvalues --   -0.64917  -0.62727  -0.62224  -0.55735  -0.55529
 Alpha  occ. eigenvalues --   -0.53679  -0.53462  -0.53169  -0.52989  -0.48937
 Alpha  occ. eigenvalues --   -0.48901  -0.48733  -0.48690  -0.44850  -0.44637
 Alpha  occ. eigenvalues --   -0.37844  -0.37540  -0.37146  -0.36182
 Alpha virt. eigenvalues --    0.04662   0.05144   0.10385   0.11414   0.16013
 Alpha virt. eigenvalues --    0.16642   0.18695   0.22178   0.24921   0.26148
 Alpha virt. eigenvalues --    0.28249   0.28837   0.30017   0.31486   0.32404

 Mulliken charges:
               1
     1  C   -0.171245
     2  C   -0.218139
     3  C   -0.170131
     4  C    0.159717
     5  C   -0.172090
     6  C   -0.213390
     7  H    0.221584
     8  H    0.223510
     9  H    0.277181
    10  H    0.277275
    11  H    0.212315
    12  N    0.487967
    13  O   -0.454675
    14  O   -0.460188
    15  C   -0.172153
    16  C   -0.218099
    17  C   -0.169781
    18  C    0.159495
    19  C   -0.168024
    20  C   -0.217005
    21  H    0.223578
    22  H    0.224427
    23  H    0.277799
    24  H    0.272842
    25  H    0.214243
    26  N    0.487864
    27  O   -0.456170
    28  O   -0.458705
 Sum of Mulliken charges =  -0.00000

 Dipole moment (field-independent basis, Debye):
    X=              1.8913    Y=              9.8860    Z=              0.0927  Tot=             10.0658
 Quadrupole moment (field-independent basis, Debye-Ang):
   XX=           -109.4254   YY=           -111.0063   ZZ=            -98.6026
   XY=             -0.5883   XZ=             -0.2149   YZ=             -1.3454

 Normal termination of Gaussian 16 at Thu May  6 03:38:33 2021.
