 Gaussian 16, Revision A.03,
 Gaussian 16:  EM64L-G16RevA.03 25-Dec-2016

 -------------
 #p 6-31g* mp2
 -------------

 ------------------------------------------------------
 Input file generated by CHIRIPA (05-May-2021 14:51:09)
 ------------------------------------------------------
 Symbolic Z-matrix:
 Charge =  0 Multiplicity = 1

                         Standard orientation:
 ---------------------------------------------------------------------
 Center     Atomic      Atomic             Coordinates (Angstroms)
 Number     Number       Type             X           Y           Z
 ---------------------------------------------------------------------
      1          6           0        2.476375    0.921052   -0.201439
      2          6           0        3.341496    1.958330    0.515223
      3          6           0        2.848842    3.389618    0.299586
      4          1           0        2.459725    1.146563   -1.276526
      5          1           0        1.440055    1.010391    0.152758
      6          1           0        4.376144    1.866136    0.160793
      7          1           0        3.356244    1.730211    1.588703
      8          1           0        1.825082    3.504593    0.670124
      9          1           0        2.850777    3.641290   -0.765899
     10          1           0        3.481674    4.114809    0.820625
     11          6           0        2.956226   -0.514567    0.004641
     12          6           0        2.091105   -1.551845   -0.712021
     13          6           0        2.583759   -2.983133   -0.496384
     14          1           0        3.992546   -0.603906   -0.349556
     15          1           0        2.972876   -0.740078    1.079728
     16          1           0        2.076357   -1.323726   -1.785501
     17          1           0        1.056457   -1.459651   -0.357591
     18          1           0        2.581824   -3.234805    0.569101
     19          1           0        3.607518   -3.098108   -0.866922
     20          1           0        1.950927   -3.708324   -1.017423
     21          6           0       -2.309287   -0.698627    0.513570
     22          6           0       -2.354860   -2.126912   -0.030407
     23          6           0       -1.535837   -3.106313    0.810882
     24          1           0       -1.264226   -0.362538    0.556408
     25          1           0       -2.681278   -0.695439    1.547498
     26          1           0       -1.984191   -2.127184   -1.063471
     27          1           0       -3.399950   -2.459571   -0.072135
     28          1           0       -1.908650   -3.135632    1.839838
     29          1           0       -0.484848   -2.801356    0.842870
     30          1           0       -1.582342   -4.121331    0.404140
     31          6           0       -3.123314    0.292142   -0.316772
     32          6           0       -3.077741    1.720427    0.227205
     33          6           0       -3.896764    2.699828   -0.614084
     34          1           0       -2.751322    0.288953   -1.350699
     35          1           0       -4.168376   -0.043947   -0.359609
     36          1           0       -2.032651    2.053085    0.268933
     37          1           0       -3.448410    1.720699    1.260268
     38          1           0       -4.947754    2.394871   -0.646072
     39          1           0       -3.523950    2.729147   -1.643040
     40          1           0       -3.850259    3.714846   -0.207342
 ---------------------------------------------------------------------

 SCF Done:  E(RHF) =  -470.733125584     A.U. after   11 cycles
 E2 =    -0.1583905286D+01 EUMP2 =    -0.47231703087043D+03

 The electronic state is 1-A.
 Alpha  occ. eigenvalues --  -11.21641 -11.21640 -11.21619 -11.21611 -11.21461
 Alpha  occ. eigenvalues --  -11.21432 -11.21400 -11.21368 -11.21103 -11.21097
 Alpha  occ. eigenvalues --  -11.21075 -11.21047  -1.08497  -1.08436  -1.03604
 Alpha  occ. eigenvalues --   -1.03512  -0.96045  -0.95964  -0.87041  -0.86998
 Alpha  occ. eigenvalues --   -0.79658  -0.79587  -0.78352  -0.78215  -0.65310
 Alpha  occ. eigenvalues --   -0.64917  -0.61240  -0.60713  -0.59384  -0.59346
 Alpha  occ. eigenvalues --   -0.57661  -0.57573  -0.55465  -0.55108  -0.52716
 Alpha  occ. eigenvalues --   -0.52670  -0.52441  -0.52409  -0.49961  -0.49926
 Alpha  occ. eigenvalues --   -0.48053  -0.47845  -0.46822  -0.46512  -0.46147
 Alpha  occ. eigenvalues --   -0.45808  -0.45760  -0.45325  -0.43834  -0.43787
 Alpha virt. eigenvalues --    0.19518   0.22447   0.23456   0.24672   0.25351
 Alpha virt. eigenvalues --    0.26727   0.26943   0.27429   0.28865   0.29964
 Alpha virt. eigenvalues --    0.30517   0.31425   0.31585   0.31810   0.32100

 Mulliken charges:
               1
     1  C   -0.300739
     2  C   -0.299658
     3  C   -0.475782
     4  H    0.149779
     5  H    0.150517
     6  H    0.152227
     7  H    0.152270
     8  H    0.155129
     9  H    0.155195
    10  H    0.160521
    11  C   -0.297642
    12  C   -0.309327
    13  C   -0.475853
    14  H    0.149986
    15  H    0.149751
    16  H    0.152135
    17  H    0.159455
    18  H    0.155468
    19  H    0.155461
    20  H    0.161273
    21  C   -0.303407
    22  C   -0.299774
    23  C   -0.481423
    24  H    0.152479
    25  H    0.149685
    26  H    0.152618
    27  H    0.152323
    28  H    0.154909
    29  H    0.161198
    30  H    0.160394
    31  C   -0.297963
    32  C   -0.299944
    33  C   -0.475719
    34  H    0.150080
    35  H    0.149812
    36  H    0.151714
    37  H    0.151857
    38  H    0.155198
    39  H    0.155459
    40  H    0.160337
 Sum of Mulliken charges =  -0.00000

 Dipole moment (field-independent basis, Debye):
    X=              0.0140    Y=             -0.0062    Z=             -0.0083  Tot=              0.0174
 Quadrupole moment (field-independent basis, Debye-Ang):
   XX=            -84.0248   YY=            -86.5721   ZZ=            -84.0096
   XY=              0.8885   XZ=             -1.2399   YZ=              0.3218

 Normal termination of Gaussian 16 at Thu May  6 05:20:21 2021.
