 Gaussian 16, Revision A.03,
 Gaussian 16:  EM64L-G16RevA.03 25-Dec-2016

 -------------
 #p 6-31g* mp2
 -------------

 ------------------------------------------------------
 Input file generated by CHIRIPA (05-May-2021 14:53:16)
 ------------------------------------------------------
 Symbolic Z-matrix:
 Charge =  0 Multiplicity = 1

                         Standard orientation:
 ---------------------------------------------------------------------
 Center     Atomic      Atomic             Coordinates (Angstroms)
 Number     Number       Type             X           Y           Z
 ---------------------------------------------------------------------
      1          6           0        3.371557    0.580596   -0.008801
      2          6           0        3.114549    2.060275    0.278398
      3          6           0        1.632128    2.373977    0.482879
      4          1           0        2.805759    0.283412   -0.902388
      5          1           0        2.979975   -0.020667    0.823389
      6          1           0        3.507737    2.658658   -0.553442
      7          1           0        3.681177    2.354019    1.171294
      8          1           0        1.229990    1.802103    1.325404
      9          1           0        1.055565    2.108473   -0.409132
     10          1           0        1.471172    3.437155    0.686853
     11          6           0        4.848905    0.251299   -0.215527
     12          6           0        5.105913   -1.228379   -0.502726
     13          6           0        6.588334   -1.542081   -0.707207
     14          1           0        5.240488    0.852563   -1.047717
     15          1           0        5.414704    0.548484    0.678061
     16          1           0        4.539286   -1.522124   -1.395622
     17          1           0        4.712725   -1.826762    0.329114
     18          1           0        7.164897   -1.276577    0.184804
     19          1           0        6.990472   -0.970208   -1.549731
     20          1           0        6.749290   -2.605259   -0.911181
     21          6           0       -5.324019    0.541577   -0.985072
     22          6           0       -5.176288   -0.826671   -0.734884
     23          6           0       -4.009906   -1.317981   -0.140986
     24          6           0       -3.006851   -0.408733    0.191332
     25          6           0       -3.124276    0.960044   -0.045206
     26          6           0       -4.299348    1.429004   -0.640044
     27          1           0       -6.233468    0.914557   -1.446791
     28          1           0       -5.970411   -1.518177   -1.001780
     29          1           0       -3.869277   -2.372329    0.063934
     30          1           0       -2.315261    1.624926    0.232000
     31          1           0       -4.411325    2.492117   -0.833166
     32          7           0       -1.767454   -0.917030    0.820563
     33          8           0       -0.898448   -0.095341    1.103922
     34          8           0       -1.688491   -2.127497    1.018479
 ---------------------------------------------------------------------

 SCF Done:  E(RHF) =  -669.535841201     A.U. after   15 cycles
 E2 =    -0.2091006747D+01 EUMP2 =    -0.67162684794793D+03

 The electronic state is 1-A.
 Alpha  occ. eigenvalues --  -20.60845 -20.60839 -15.85888 -11.31228 -11.27799
 Alpha  occ. eigenvalues --  -11.27783 -11.27541 -11.26811 -11.26799 -11.20869
 Alpha  occ. eigenvalues --  -11.20711 -11.20595 -11.20482 -11.20352 -11.19979
 Alpha  occ. eigenvalues --   -1.59914  -1.39469  -1.19401  -1.08803  -1.07568
 Alpha  occ. eigenvalues --   -1.04800  -1.02693  -0.95645  -0.95132  -0.86199
 Alpha  occ. eigenvalues --   -0.86154  -0.82476  -0.78772  -0.77535  -0.77329
 Alpha  occ. eigenvalues --   -0.72117  -0.71232  -0.70509  -0.65057  -0.64803
 Alpha  occ. eigenvalues --   -0.64204  -0.62145  -0.60095  -0.58522  -0.56733
 Alpha  occ. eigenvalues --   -0.55305  -0.54412  -0.53133  -0.52891  -0.51875
 Alpha  occ. eigenvalues --   -0.51534  -0.49083  -0.48865  -0.48846  -0.47057
 Alpha  occ. eigenvalues --   -0.45798  -0.44989  -0.44818  -0.44761  -0.42955
 Alpha  occ. eigenvalues --   -0.37384  -0.36403
 Alpha virt. eigenvalues --    0.05002   0.11248   0.16495   0.21260   0.23692
 Alpha virt. eigenvalues --    0.25021   0.26759   0.27551   0.27675   0.28452
 Alpha virt. eigenvalues --    0.29203   0.30859   0.31805   0.32314   0.32699

 Mulliken charges:
               1
     1  C   -0.297962
     2  C   -0.299569
     3  C   -0.478459
     4  H    0.148516
     5  H    0.160317
     6  H    0.146108
     7  H    0.149243
     8  H    0.177009
     9  H    0.150073
    10  H    0.149383
    11  C   -0.298037
    12  C   -0.299237
    13  C   -0.475261
    14  H    0.145916
    15  H    0.147845
    16  H    0.151202
    17  H    0.154917
    18  H    0.154193
    19  H    0.153128
    20  H    0.158863
    21  C   -0.170668
    22  C   -0.218654
    23  C   -0.170826
    24  C    0.157587
    25  C   -0.171912
    26  C   -0.218756
    27  H    0.225728
    28  H    0.223539
    29  H    0.275628
    30  H    0.277896
    31  H    0.223809
    32  N    0.493662
    33  O   -0.465136
    34  O   -0.460084
 Sum of Mulliken charges =  -0.00000

 Dipole moment (field-independent basis, Debye):
    X=             -4.5817    Y=              1.6594    Z=             -2.1037  Tot=              5.3077
 Quadrupole moment (field-independent basis, Debye-Ang):
   XX=            -70.4418   YY=            -92.7077   ZZ=            -95.4609
   XY=             -1.7243   XZ=              6.7357   YZ=              1.2306

 Normal termination of Gaussian 16 at Thu May  6 22:02:07 2021.
