 Gaussian 16, Revision A.03,
 Gaussian 16:  EM64L-G16RevA.03 25-Dec-2016

 -------------
 #p 6-31g* mp2
 -------------

 ------------------------------------------------------
 Input file generated by CHIRIPA (05-May-2021 14:51:12)
 ------------------------------------------------------
 Symbolic Z-matrix:
 Charge =  0 Multiplicity = 1

                         Standard orientation:
 ---------------------------------------------------------------------
 Center     Atomic      Atomic             Coordinates (Angstroms)
 Number     Number       Type             X           Y           Z
 ---------------------------------------------------------------------
      1          6           0        3.671549    0.284093    0.025963
      2          6           0        2.935104    1.613635   -0.141226
      3          6           0        1.415390    1.460406   -0.072071
      4          1           0        3.336154   -0.414058   -0.753165
      5          1           0        3.390730   -0.164037    0.989142
      6          1           0        3.218292    2.059790   -1.103186
      7          1           0        3.272433    2.308766    0.638274
      8          1           0        1.114255    1.038127    0.892086
      9          1           0        1.059806    0.787737   -0.859267
     10          1           0        0.908881    2.422932   -0.193936
     11          6           0        5.191594    0.420939   -0.040860
     12          6           0        5.928039   -0.908603    0.126329
     13          6           0        7.447754   -0.755374    0.057174
     14          1           0        5.472413    0.869069   -1.004039
     15          1           0        5.526990    1.119090    0.738268
     16          1           0        5.590711   -1.603734   -0.653171
     17          1           0        5.644852   -1.354758    1.088288
     18          1           0        7.803337   -0.082705    0.844370
     19          1           0        7.748888   -0.333095   -0.906983
     20          1           0        7.954263   -1.717900    0.179039
     21          6           0       -3.745546   -0.395252    0.340576
     22          6           0       -2.688440   -1.071766   -0.532833
     23          6           0       -1.321300   -1.149752    0.147343
     24          1           0       -3.405080    0.616618    0.599701
     25          1           0       -3.836664   -0.946286    1.286860
     26          1           0       -2.600330   -0.520429   -1.477756
     27          1           0       -3.031548   -2.082075   -0.790068
     28          1           0       -1.387325   -1.717828    1.080902
     29          1           0       -0.953657   -0.147309    0.389307
     30          1           0       -0.580728   -1.636928   -0.494586
     31          6           0       -5.117598   -0.309779   -0.325678
     32          6           0       -6.174703    0.366735    0.547730
     33          6           0       -7.541844    0.444721   -0.132446
     34          1           0       -5.026479    0.241254   -1.271963
     35          1           0       -5.458063   -1.321650   -0.584804
     36          1           0       -5.831595    1.377042    0.804965
     37          1           0       -6.262813   -0.184603    1.492653
     38          1           0       -7.909486   -0.557724   -0.374409
     39          1           0       -7.475818    1.012795   -1.066005
     40          1           0       -8.282416    0.931895    0.509484
 ---------------------------------------------------------------------

 SCF Done:  E(RHF) =  -470.732461468     A.U. after   11 cycles
 E2 =    -0.1582690806D+01 EUMP2 =    -0.47231515227358D+03

 The electronic state is 1-A.
 Alpha  occ. eigenvalues --  -11.21588 -11.21577 -11.21569 -11.21512 -11.21386
 Alpha  occ. eigenvalues --  -11.21354 -11.21326 -11.21293 -11.21061 -11.21047
 Alpha  occ. eigenvalues --  -11.21026 -11.20877  -1.08415  -1.08370  -1.03536
 Alpha  occ. eigenvalues --   -1.03444  -0.96028  -0.95857  -0.87095  -0.86832
 Alpha  occ. eigenvalues --   -0.79686  -0.79436  -0.78239  -0.78169  -0.65043
 Alpha  occ. eigenvalues --   -0.65005  -0.60918  -0.60876  -0.59355  -0.59264
 Alpha  occ. eigenvalues --   -0.57643  -0.57493  -0.55259  -0.55225  -0.52745
 Alpha  occ. eigenvalues --   -0.52663  -0.52466  -0.52150  -0.49907  -0.49842
 Alpha  occ. eigenvalues --   -0.48007  -0.47705  -0.46609  -0.46527  -0.45813
 Alpha  occ. eigenvalues --   -0.45701  -0.45679  -0.45568  -0.43773  -0.43712
 Alpha virt. eigenvalues --    0.22512   0.22951   0.23703   0.24710   0.26238
 Alpha virt. eigenvalues --    0.26653   0.27012   0.27491   0.27741   0.29253
 Alpha virt. eigenvalues --    0.30051   0.31460   0.31798   0.31924   0.32228

 Mulliken charges:
               1
     1  C   -0.298076
     2  C   -0.300292
     3  C   -0.478516
     4  H    0.149471
     5  H    0.149895
     6  H    0.151587
     7  H    0.151642
     8  H    0.156565
     9  H    0.158989
    10  H    0.159075
    11  C   -0.298272
    12  C   -0.299617
    13  C   -0.475695
    14  H    0.149414
    15  H    0.149603
    16  H    0.151899
    17  H    0.152000
    18  H    0.155155
    19  H    0.155133
    20  H    0.160220
    21  C   -0.298369
    22  C   -0.299559
    23  C   -0.481536
    24  H    0.149751
    25  H    0.149279
    26  H    0.151327
    27  H    0.151199
    28  H    0.153472
    29  H    0.166112
    30  H    0.158607
    31  C   -0.298206
    32  C   -0.299610
    33  C   -0.475667
    34  H    0.149409
    35  H    0.149533
    36  H    0.151875
    37  H    0.151832
    38  H    0.155121
    39  H    0.155121
    40  H    0.160127
 Sum of Mulliken charges =  -0.00000

 Dipole moment (field-independent basis, Debye):
    X=              0.0266    Y=              0.0186    Z=              0.0082  Tot=              0.0335
 Quadrupole moment (field-independent basis, Debye-Ang):
   XX=            -87.3034   YY=            -84.0614   ZZ=            -83.7257
   XY=              0.3484   XZ=             -0.4126   YZ=             -0.1709

 Normal termination of Gaussian 16 at Thu May  6 03:53:31 2021.
