 Gaussian 16, Revision A.03,
 Gaussian 16:  EM64L-G16RevA.03 25-Dec-2016

 -------------
 #p 6-31g* mp2
 -------------

 ------------------------------------------------------
 Input file generated by CHIRIPA (05-May-2021 14:57:22)
 ------------------------------------------------------
 Symbolic Z-matrix:
 Charge =  0 Multiplicity = 1

                         Standard orientation:
 ---------------------------------------------------------------------
 Center     Atomic      Atomic             Coordinates (Angstroms)
 Number     Number       Type             X           Y           Z
 ---------------------------------------------------------------------
      1          6           0       -3.488758   -2.425261   -0.220005
      2          6           0       -2.413016   -1.571857    0.046459
      3          6           0       -2.604394   -0.188735    0.116425
      4          6           0       -3.890635    0.309122   -0.086088
      5          6           0       -4.982547   -0.515249   -0.353357
      6          6           0       -4.767835   -1.895167   -0.418713
      7          1           0       -3.331028   -3.498459   -0.272566
      8          1           0       -1.418571   -1.980733    0.201198
      9          1           0       -1.789347    0.494792    0.321139
     10          1           0       -5.962295   -0.078143   -0.503188
     11          1           0       -5.605131   -2.555536   -0.625818
     12          7           0       -4.105590    1.771676   -0.014458
     13          8           0       -5.248533    2.185368   -0.196604
     14          8           0       -3.127057    2.476640    0.222474
     15          6           0        1.800158   -0.732767    1.402069
     16          6           0        2.912079   -0.206780    2.068020
     17          6           0        4.056120    0.164901    1.355580
     18          6           0        4.053883   -0.003816   -0.028190
     19          6           0        2.961843   -0.525022   -0.720350
     20          6           0        1.828539   -0.889932    0.012460
     21          1           0        0.915609   -1.018869    1.963421
     22          1           0        2.892859   -0.083601    3.147141
     23          1           0        4.930868    0.574617    1.845853
     24          1           0        3.010740   -0.635991   -1.796785
     25          1           0        0.966468   -1.298158   -0.507377
     26          7           0        5.259345    0.386083   -0.793200
     27          8           0        5.232268    0.227464   -2.011701
     28          8           0        6.208437    0.842922   -0.159829
 ---------------------------------------------------------------------

 SCF Done:  E(RHF) =  -868.336535445     A.U. after   16 cycles
 E2 =    -0.2600034169D+01 EUMP2 =    -0.87093656961382D+03

 The electronic state is 1-A.
 Alpha  occ. eigenvalues --  -20.61345 -20.61338 -20.61062 -20.61055 -15.86407
 Alpha  occ. eigenvalues --  -15.86121 -11.31927 -11.31624 -11.28601 -11.28496
 Alpha  occ. eigenvalues --  -11.28319 -11.28251 -11.28185 -11.28084 -11.27719
 Alpha  occ. eigenvalues --  -11.27505 -11.27397 -11.27235  -1.60418  -1.60133
 Alpha  occ. eigenvalues --   -1.39967  -1.39683  -1.20136  -1.19829  -1.09495
 Alpha  occ. eigenvalues --   -1.09222  -1.05587  -1.05255  -0.96298  -0.96024
 Alpha  occ. eigenvalues --   -0.86975  -0.86668  -0.83148  -0.82849  -0.78181
 Alpha  occ. eigenvalues --   -0.77847  -0.72620  -0.72340  -0.71745  -0.71456
 Alpha  occ. eigenvalues --   -0.71230  -0.70978  -0.65807  -0.65727  -0.65489
 Alpha  occ. eigenvalues --   -0.65222  -0.62979  -0.62532  -0.56051  -0.55820
 Alpha  occ. eigenvalues --   -0.53880  -0.53744  -0.53563  -0.53314  -0.49393
 Alpha  occ. eigenvalues --   -0.49365  -0.49110  -0.49082  -0.45338  -0.45057
 Alpha  occ. eigenvalues --   -0.38106  -0.37846  -0.37193  -0.36842
 Alpha virt. eigenvalues --    0.04390   0.04687   0.10446   0.10745   0.15779
 Alpha virt. eigenvalues --    0.16126   0.17575   0.22075   0.24711   0.27128
 Alpha virt. eigenvalues --    0.27620   0.28983   0.30064   0.31041   0.31736

 Mulliken charges:
               1
     1  C   -0.169897
     2  C   -0.224053
     3  C   -0.172323
     4  C    0.159227
     5  C   -0.169022
     6  C   -0.218390
     7  H    0.227794
     8  H    0.215625
     9  H    0.275305
    10  H    0.278475
    11  H    0.226491
    12  N    0.488007
    13  O   -0.457991
    14  O   -0.459163
    15  C   -0.172752
    16  C   -0.217131
    17  C   -0.169473
    18  C    0.159545
    19  C   -0.168762
    20  C   -0.222851
    21  H    0.221378
    22  H    0.226217
    23  H    0.278045
    24  H    0.277671
    25  H    0.217703
    26  N    0.487964
    27  O   -0.459119
    28  O   -0.458520
 Sum of Mulliken charges =  -0.00000

 Dipole moment (field-independent basis, Debye):
    X=             -3.5227    Y=             -6.4119    Z=              2.4305  Tot=              7.7090
 Quadrupole moment (field-independent basis, Debye-Ang):
   XX=           -137.6621   YY=           -108.8679   ZZ=           -101.9699
   XY=             16.5871   XZ=             15.5590   YZ=              2.0420

 Normal termination of Gaussian 16 at Thu May  6 19:31:06 2021.
