 Gaussian 16, Revision A.03,
 Gaussian 16:  EM64L-G16RevA.03 25-Dec-2016

 -------------
 #p 6-31g* mp2
 -------------

 ------------------------------------------------------
 Input file generated by CHIRIPA (05-May-2021 14:51:14)
 ------------------------------------------------------
 Symbolic Z-matrix:
 Charge =  0 Multiplicity = 1

                         Standard orientation:
 ---------------------------------------------------------------------
 Center     Atomic      Atomic             Coordinates (Angstroms)
 Number     Number       Type             X           Y           Z
 ---------------------------------------------------------------------
      1          6           0       -2.874484    0.580457    0.442247
      2          6           0       -3.758985   -0.338007   -0.401593
      3          6           0       -4.688863   -1.206044    0.446719
      4          1           0       -2.278473   -0.029750    1.134608
      5          1           0       -3.513129    1.223900    1.063141
      6          1           0       -3.118884   -0.978569   -1.021728
      7          1           0       -4.352819    0.274445   -1.092158
      8          1           0       -5.351270   -0.581125    1.054414
      9          1           0       -4.110324   -1.841258    1.125244
     10          1           0       -5.312068   -1.854799   -0.176653
     11          6           0       -1.939330    1.454505   -0.391572
     12          6           0       -1.054829    2.372969    0.452268
     13          6           0       -0.124952    3.241007   -0.396044
     14          1           0       -1.300686    0.811062   -1.012466
     15          1           0       -2.535341    2.064713   -1.083932
     16          1           0       -0.460995    1.760518    1.142833
     17          1           0       -1.694930    3.013531    1.072403
     18          1           0       -0.703491    3.876221   -1.074569
     19          1           0        0.537456    2.616088   -1.003739
     20          1           0        0.498253    3.889762    0.227328
     21          6           0        1.931798   -1.540825    0.264171
     22          6           0        0.787981   -1.910241   -0.680921
     23          6           0       -0.153994   -2.958320   -0.087617
     24          1           0        2.500088   -2.447321    0.513687
     25          1           0        1.511877   -1.165557    1.207693
     26          1           0        1.209942   -2.283402   -1.622896
     27          1           0        0.222464   -1.002731   -0.928368
     28          1           0       -0.602217   -2.591540    0.841452
     29          1           0        0.390871   -3.879488    0.142978
     30          1           0       -0.964235   -3.207652   -0.779862
     31          6           0        2.882016   -0.494138   -0.314846
     32          6           0        4.025834   -0.124720    0.630245
     33          6           0        4.967808    0.923358    0.036942
     34          1           0        3.301937   -0.869406   -1.258369
     35          1           0        2.313727    0.412358   -0.564362
     36          1           0        4.591350   -1.032232    0.877693
     37          1           0        3.603872    0.248439    1.572220
     38          1           0        4.422944    1.844525   -0.193653
     39          1           0        5.416032    0.556578   -0.892127
     40          1           0        5.778049    1.172689    0.729187
 ---------------------------------------------------------------------

 SCF Done:  E(RHF) =  -470.733287861     A.U. after   11 cycles
 E2 =    -0.1584541903D+01 EUMP2 =    -0.47231782976488D+03

 The electronic state is 1-A.
 Alpha  occ. eigenvalues --  -11.21671 -11.21666 -11.21630 -11.21600 -11.21465
 Alpha  occ. eigenvalues --  -11.21438 -11.21404 -11.21378 -11.21161 -11.21148
 Alpha  occ. eigenvalues --  -11.21080 -11.21059  -1.08519  -1.08438  -1.03586
 Alpha  occ. eigenvalues --   -1.03560  -0.96041  -0.96004  -0.87069  -0.87007
 Alpha  occ. eigenvalues --   -0.79667  -0.79612  -0.78373  -0.78213  -0.65447
 Alpha  occ. eigenvalues --   -0.64812  -0.61014  -0.60922  -0.59403  -0.59376
 Alpha  occ. eigenvalues --   -0.57662  -0.57606  -0.55444  -0.55179  -0.52726
 Alpha  occ. eigenvalues --   -0.52704  -0.52499  -0.52395  -0.50133  -0.49812
 Alpha  occ. eigenvalues --   -0.47999  -0.47925  -0.46835  -0.46636  -0.46071
 Alpha  occ. eigenvalues --   -0.45870  -0.45724  -0.45304  -0.43836  -0.43818
 Alpha virt. eigenvalues --    0.18378   0.21409   0.23966   0.25002   0.25224
 Alpha virt. eigenvalues --    0.25828   0.27323   0.27810   0.28296   0.29909
 Alpha virt. eigenvalues --    0.30414   0.31535   0.31799   0.31923   0.32410

 Mulliken charges:
               1
     1  C   -0.299186
     2  C   -0.301047
     3  C   -0.475968
     4  H    0.150345
     5  H    0.149727
     6  H    0.153828
     7  H    0.151805
     8  H    0.154973
     9  H    0.155821
    10  H    0.160229
    11  C   -0.304795
    12  C   -0.300122
    13  C   -0.478582
    14  H    0.155157
    15  H    0.150356
    16  H    0.151550
    17  H    0.152552
    18  H    0.155884
    19  H    0.156899
    20  H    0.160456
    21  C   -0.297819
    22  C   -0.308388
    23  C   -0.476943
    24  H    0.150126
    25  H    0.149159
    26  H    0.152488
    27  H    0.159068
    28  H    0.155483
    29  H    0.155769
    30  H    0.160999
    31  C   -0.302265
    32  C   -0.299440
    33  C   -0.476000
    34  H    0.149804
    35  H    0.152739
    36  H    0.152057
    37  H    0.151984
    38  H    0.155791
    39  H    0.155163
    40  H    0.160344
 Sum of Mulliken charges =  -0.00000

 Dipole moment (field-independent basis, Debye):
    X=              0.0025    Y=             -0.0028    Z=             -0.0101  Tot=              0.0108
 Quadrupole moment (field-independent basis, Debye-Ang):
   XX=            -85.0068   YY=            -84.6621   ZZ=            -84.9364
   XY=             -2.0633   XZ=              0.3756   YZ=              0.8192

 Normal termination of Gaussian 16 at Wed May  5 15:24:25 2021.
