 Gaussian 16, Revision A.03,
 Gaussian 16:  EM64L-G16RevA.03 25-Dec-2016

 -------------
 #p 6-31g* mp2
 -------------

 ------------------------------------------------------
 Input file generated by CHIRIPA (05-May-2021 14:57:25)
 ------------------------------------------------------
 Symbolic Z-matrix:
 Charge =  0 Multiplicity = 1

                         Standard orientation:
 ---------------------------------------------------------------------
 Center     Atomic      Atomic             Coordinates (Angstroms)
 Number     Number       Type             X           Y           Z
 ---------------------------------------------------------------------
      1          6           0       -0.562229   -1.305195   -0.824264
      2          6           0       -1.669214   -2.131176   -0.603223
      3          6           0       -2.905078   -1.582277   -0.248404
      4          6           0       -2.998699   -0.197084   -0.122842
      5          6           0       -1.914149    0.652275   -0.336457
      6          6           0       -0.688008    0.081450   -0.690412
      7          1           0        0.394044   -1.740109   -1.099560
      8          1           0       -1.574464   -3.208400   -0.706453
      9          1           0       -3.778276   -2.198418   -0.071446
     10          1           0       -2.039491    1.722554   -0.225952
     11          1           0        0.169993    0.725361   -0.861463
     12          7           0       -4.301907    0.395618    0.252331
     13          8           0       -4.358307    1.618973    0.356535
     14          8           0       -5.242284   -0.374401    0.435084
     15          6           0        2.048022    2.684423   -0.152868
     16          6           0        1.782011    2.034276    1.056705
     17          6           0        2.185100    0.710331    1.254791
     18          6           0        2.855058    0.063745    0.217307
     19          6           0        3.134769    0.684404   -0.999176
     20          6           0        2.722363    2.008604   -1.175146
     21          1           0        1.731274    3.712994   -0.298156
     22          1           0        1.258485    2.556652    1.852374
     23          1           0        1.992114    0.183099    2.181182
     24          1           0        3.658502    0.137605   -1.773858
     25          1           0        2.930309    2.511009   -2.115568
     26          7           0        3.286721   -1.337991    0.415305
     27          8           0        3.875389   -1.885625   -0.514321
     28          8           0        3.028218   -1.862496    1.496373
 ---------------------------------------------------------------------

 SCF Done:  E(RHF) =  -868.336481503     A.U. after   16 cycles
 E2 =    -0.2605300432D+01 EUMP2 =    -0.87094178193566D+03

 The electronic state is 1-A.
 Alpha  occ. eigenvalues --  -20.61974 -20.61954 -20.60795 -20.60777 -15.87009
 Alpha  occ. eigenvalues --  -15.85832 -11.32455 -11.31102 -11.29068 -11.28932
 Alpha  occ. eigenvalues --  -11.28713 -11.28061 -11.27919 -11.27620 -11.27576
 Alpha  occ. eigenvalues --  -11.27240 -11.26579 -11.26428  -1.61050  -1.59865
 Alpha  occ. eigenvalues --   -1.40590  -1.39422  -1.20703  -1.19218  -1.10038
 Alpha  occ. eigenvalues --   -1.08628  -1.06032  -1.04598  -0.96833  -0.95495
 Alpha  occ. eigenvalues --   -0.87394  -0.86008  -0.83621  -0.82332  -0.78676
 Alpha  occ. eigenvalues --   -0.77420  -0.73204  -0.72452  -0.72051  -0.71672
 Alpha  occ. eigenvalues --   -0.71187  -0.70294  -0.66254  -0.65950  -0.64861
 Alpha  occ. eigenvalues --   -0.64706  -0.63316  -0.62070  -0.56465  -0.55229
 Alpha  occ. eigenvalues --   -0.54522  -0.54041  -0.52941  -0.52149  -0.49984
 Alpha  occ. eigenvalues --   -0.49965  -0.48821  -0.48779  -0.45961  -0.44851
 Alpha  occ. eigenvalues --   -0.38758  -0.37999  -0.37023  -0.35971
 Alpha virt. eigenvalues --    0.03771   0.05106   0.09900   0.11513   0.15229
 Alpha virt. eigenvalues --    0.16688   0.20366   0.21873   0.26316   0.27179
 Alpha virt. eigenvalues --    0.27935   0.28101   0.30187   0.31383   0.31756

 Mulliken charges:
               1
     1  C   -0.178776
     2  C   -0.216691
     3  C   -0.173114
     4  C    0.159534
     5  C   -0.180209
     6  C   -0.219635
     7  H    0.228408
     8  H    0.226756
     9  H    0.275200
    10  H    0.268482
    11  H    0.234023
    12  N    0.488091
    13  O   -0.463772
    14  O   -0.459676
    15  C   -0.181021
    16  C   -0.220821
    17  C   -0.165868
    18  C    0.151883
    19  C   -0.178300
    20  C   -0.221756
    21  H    0.232612
    22  H    0.231738
    23  H    0.281569
    24  H    0.279321
    25  H    0.229865
    26  N    0.486453
    27  O   -0.460008
    28  O   -0.454288
 Sum of Mulliken charges =  -0.00000

 Dipole moment (field-independent basis, Debye):
    X=              3.4367    Y=              2.8723    Z=             -1.8658  Tot=              4.8521
 Quadrupole moment (field-independent basis, Debye-Ang):
   XX=           -140.6365   YY=            -99.2681   ZZ=           -101.1824
   XY=             22.1108   XZ=             -0.8937   YZ=              1.4500

 Normal termination of Gaussian 16 at Thu May  6 14:43:37 2021.
