 Gaussian 16, Revision A.03,
 Gaussian 16:  EM64L-G16RevA.03 25-Dec-2016

 -------------
 #p 6-31g* mp2
 -------------

 ------------------------------------------------------
 Input file generated by CHIRIPA (05-May-2021 14:53:11)
 ------------------------------------------------------
 Symbolic Z-matrix:
 Charge =  0 Multiplicity = 1

                         Standard orientation:
 ---------------------------------------------------------------------
 Center     Atomic      Atomic             Coordinates (Angstroms)
 Number     Number       Type             X           Y           Z
 ---------------------------------------------------------------------
      1          6           0       -4.586478   -0.123367    0.023629
      2          6           0       -4.852989    1.265186   -0.558501
      3          6           0       -6.333264    1.646490   -0.524023
      4          1           0       -5.171183   -0.866730   -0.535367
      5          1           0       -4.950115   -0.154775    1.060055
      6          1           0       -4.487707    1.294394   -1.593069
      7          1           0       -4.267435    2.005307    0.001823
      8          1           0       -6.707526    1.645276    0.504825
      9          1           0       -6.929049    0.930324   -1.099130
     10          1           0       -6.501117    2.642749   -0.944917
     11          6           0       -3.111154   -0.518832   -0.003852
     12          6           0       -2.844643   -1.907385    0.578278
     13          6           0       -1.364369   -2.288689    0.543800
     14          1           0       -2.747518   -0.487424   -1.040278
     15          1           0       -2.526450    0.224531    0.555144
     16          1           0       -3.430198   -2.647506    0.017954
     17          1           0       -3.209926   -1.936593    1.612846
     18          1           0       -0.768584   -1.572523    1.118907
     19          1           0       -0.990107   -2.287475   -0.485048
     20          1           0       -1.196516   -3.284949    0.964694
     21          6           0        3.034333    2.732874    0.444792
     22          6           0        1.957635    1.953700    0.880832
     23          6           0        1.931834    0.577555    0.635664
     24          6           0        3.004235    0.010907   -0.051474
     25          6           0        4.091189    0.760483   -0.498638
     26          6           0        4.095802    2.134833   -0.242340
     27          1           0        3.046146    3.801199    0.639568
     28          1           0        1.131912    2.415447    1.414702
     29          1           0        1.110832   -0.049244    0.962002
     30          1           0        4.899856    0.271738   -1.028360
     31          1           0        4.933294    2.737476   -0.582151
     32          7           0        2.988136   -1.445006   -0.316913
     33          8           0        3.945125   -1.920202   -0.924364
     34          8           0        2.018833   -2.083386    0.087512
 ---------------------------------------------------------------------

 SCF Done:  E(RHF) =  -669.535048406     A.U. after   15 cycles
 E2 =    -0.2091897126D+01 EUMP2 =    -0.67162694553193D+03

 The electronic state is 1-A.
 Alpha  occ. eigenvalues --  -20.60759 -20.60752 -15.85801 -11.31171 -11.27747
 Alpha  occ. eigenvalues --  -11.27727 -11.27495 -11.26765 -11.26754 -11.21677
 Alpha  occ. eigenvalues --  -11.21383 -11.21322 -11.21228 -11.21142 -11.20393
 Alpha  occ. eigenvalues --   -1.59833  -1.39385  -1.19349  -1.08745  -1.08345
 Alpha  occ. eigenvalues --   -1.04754  -1.03354  -0.95795  -0.95561  -0.86783
 Alpha  occ. eigenvalues --   -0.86152  -0.82411  -0.79428  -0.78178  -0.77427
 Alpha  occ. eigenvalues --   -0.72020  -0.71154  -0.70465  -0.65003  -0.64994
 Alpha  occ. eigenvalues --   -0.64760  -0.62128  -0.60749  -0.59177  -0.57391
 Alpha  occ. eigenvalues --   -0.55282  -0.55056  -0.53082  -0.52880  -0.52419
 Alpha  occ. eigenvalues --   -0.52168  -0.49734  -0.48800  -0.48784  -0.47683
 Alpha  occ. eigenvalues --   -0.46478  -0.45695  -0.45626  -0.44752  -0.43608
 Alpha  occ. eigenvalues --   -0.37333  -0.36355
 Alpha virt. eigenvalues --    0.05065   0.11294   0.16544   0.20608   0.22947
 Alpha virt. eigenvalues --    0.24013   0.25788   0.27080   0.27564   0.27860
 Alpha virt. eigenvalues --    0.29344   0.30559   0.31519   0.31899   0.32370

 Mulliken charges:
               1
     1  C   -0.297796
     2  C   -0.299003
     3  C   -0.475581
     4  H    0.151199
     5  H    0.148961
     6  H    0.152256
     7  H    0.148317
     8  H    0.154948
     9  H    0.156213
    10  H    0.159436
    11  C   -0.296046
    12  C   -0.303161
    13  C   -0.468513
    14  H    0.150740
    15  H    0.139837
    16  H    0.152334
    17  H    0.148855
    18  H    0.146172
    19  H    0.163931
    20  H    0.165759
    21  C   -0.170324
    22  C   -0.222403
    23  C   -0.173647
    24  C    0.154227
    25  C   -0.169884
    26  C   -0.219148
    27  H    0.225565
    28  H    0.223712
    29  H    0.287440
    30  H    0.275590
    31  H    0.223356
    32  N    0.489447
    33  O   -0.460619
    34  O   -0.462169
 Sum of Mulliken charges =  -0.00000

 Dipole moment (field-independent basis, Debye):
    X=              0.1359    Y=              4.9725    Z=              0.8691  Tot=              5.0497
 Quadrupole moment (field-independent basis, Debye-Ang):
   XX=            -92.1078   YY=            -94.8356   ZZ=            -93.7040
   XY=             16.6433   XZ=              0.6734   YZ=              0.0358

 Normal termination of Gaussian 16 at Wed May  5 16:57:04 2021.
