 Gaussian 16, Revision A.03,
 Gaussian 16:  EM64L-G16RevA.03 25-Dec-2016

 -------------
 #p 6-31g* mp2
 -------------

 ------------------------------------------------------
 Input file generated by CHIRIPA (05-May-2021 14:51:12)
 ------------------------------------------------------
 Symbolic Z-matrix:
 Charge =  0 Multiplicity = 1

                         Standard orientation:
 ---------------------------------------------------------------------
 Center     Atomic      Atomic             Coordinates (Angstroms)
 Number     Number       Type             X           Y           Z
 ---------------------------------------------------------------------
      1          6           0       -3.260554    0.684925   -0.193606
      2          6           0       -3.253300    2.156588    0.221292
      3          6           0       -1.914381    2.841738   -0.053774
      4          1           0       -2.459694    0.155906    0.340908
      5          1           0       -3.023249    0.611775   -1.263994
      6          1           0       -3.491908    2.227034    1.290272
      7          1           0       -4.054394    2.682126   -0.314128
      8          1           0       -1.672846    2.801037   -1.120828
      9          1           0       -1.107165    2.343359    0.492688
     10          1           0       -1.931374    3.892961    0.250366
     11          6           0       -4.592261   -0.013702    0.075108
     12          6           0       -4.599515   -1.485365   -0.339789
     13          6           0       -5.938434   -2.170514   -0.064724
     14          1           0       -4.829566    0.059449    1.145496
     15          1           0       -5.393121    0.515318   -0.459406
     16          1           0       -3.798421   -2.010902    0.195631
     17          1           0       -4.360907   -1.555810   -1.408770
     18          1           0       -6.745650   -1.672135   -0.611186
     19          1           0       -6.179969   -2.129814    1.002331
     20          1           0       -5.921441   -3.221738   -0.368864
     21          6           0        3.310479   -0.570935    0.444848
     22          6           0        1.991407   -0.178372   -0.221431
     23          6           0        0.768311   -0.656214    0.561828
     24          1           0        3.347525   -1.663407    0.554755
     25          1           0        3.338504   -0.153444    1.460875
     26          1           0        1.966475   -0.595317   -1.236395
     27          1           0        1.957580    0.913278   -0.329938
     28          1           0        0.765716   -0.229562    1.570076
     29          1           0        0.774662   -1.746729    0.658469
     30          1           0       -0.163804   -0.364833    0.067743
     31          6           0        4.542336   -0.100288   -0.326350
     32          6           0        5.861408   -0.492852    0.339929
     33          6           0        7.084505   -0.015010   -0.443331
     34          1           0        4.514311   -0.517779   -1.342377
     35          1           0        4.505290    0.992183   -0.436256
     36          1           0        5.895235   -1.584501    0.448436
     37          1           0        5.886340   -0.075907    1.354892
     38          1           0        7.078153    1.075504   -0.539971
     39          1           0        7.087098   -0.441661   -1.451578
     40          1           0        8.016618   -0.306391    0.050755
 ---------------------------------------------------------------------

 SCF Done:  E(RHF) =  -470.733198310     A.U. after   11 cycles
 E2 =    -0.1582845011D+01 EUMP2 =    -0.47231604332103D+03

 The electronic state is 1-A.
 Alpha  occ. eigenvalues --  -11.21593 -11.21592 -11.21584 -11.21584 -11.21391
 Alpha  occ. eigenvalues --  -11.21387 -11.21332 -11.21327 -11.21062 -11.21057
 Alpha  occ. eigenvalues --  -11.21057 -11.21038  -1.08431  -1.08408  -1.03538
 Alpha  occ. eigenvalues --   -1.03498  -0.95974  -0.95966  -0.87005  -0.86973
 Alpha  occ. eigenvalues --   -0.79620  -0.79548  -0.78253  -0.78218  -0.65074
 Alpha  occ. eigenvalues --   -0.65034  -0.60971  -0.60872  -0.59462  -0.59225
 Alpha  occ. eigenvalues --   -0.57591  -0.57569  -0.55302  -0.55214  -0.52755
 Alpha  occ. eigenvalues --   -0.52637  -0.52415  -0.52350  -0.49938  -0.49885
 Alpha  occ. eigenvalues --   -0.47965  -0.47835  -0.46634  -0.46585  -0.45778
 Alpha  occ. eigenvalues --   -0.45764  -0.45707  -0.45691  -0.43779  -0.43682
 Alpha virt. eigenvalues --    0.21471   0.23050   0.23520   0.25011   0.26177
 Alpha virt. eigenvalues --    0.26554   0.27015   0.27404   0.27814   0.29078
 Alpha virt. eigenvalues --    0.30812   0.31217   0.31649   0.31794   0.32102

 Mulliken charges:
               1
     1  C   -0.305706
     2  C   -0.299063
     3  C   -0.478816
     4  H    0.157294
     5  H    0.148794
     6  H    0.151824
     7  H    0.151879
     8  H    0.154981
     9  H    0.158453
    10  H    0.160118
    11  C   -0.297522
    12  C   -0.299891
    13  C   -0.475689
    14  H    0.149528
    15  H    0.149568
    16  H    0.152393
    17  H    0.151740
    18  H    0.155111
    19  H    0.155210
    20  H    0.160216
    21  C   -0.298520
    22  C   -0.299681
    23  C   -0.484202
    24  H    0.149561
    25  H    0.149367
    26  H    0.152000
    27  H    0.152833
    28  H    0.153881
    29  H    0.154847
    30  H    0.169408
    31  C   -0.298241
    32  C   -0.299612
    33  C   -0.475697
    34  H    0.149504
    35  H    0.149770
    36  H    0.151887
    37  H    0.151892
    38  H    0.155210
    39  H    0.155167
    40  H    0.160205
 Sum of Mulliken charges =  -0.00000

 Dipole moment (field-independent basis, Debye):
    X=             -0.0070    Y=             -0.0011    Z=             -0.0015  Tot=              0.0073
 Quadrupole moment (field-independent basis, Debye-Ang):
   XX=            -86.5518   YY=            -84.4449   ZZ=            -83.8665
   XY=             -0.9032   XZ=              0.8213   YZ=              0.4528

 Normal termination of Gaussian 16 at Wed May  5 19:56:22 2021.
