 Gaussian 16, Revision A.03,
 Gaussian 16:  EM64L-G16RevA.03 25-Dec-2016

 -------------
 #p 6-31g* mp2
 -------------

 ------------------------------------------------------
 Input file generated by CHIRIPA (05-May-2021 14:51:11)
 ------------------------------------------------------
 Symbolic Z-matrix:
 Charge =  0 Multiplicity = 1

                         Standard orientation:
 ---------------------------------------------------------------------
 Center     Atomic      Atomic             Coordinates (Angstroms)
 Number     Number       Type             X           Y           Z
 ---------------------------------------------------------------------
      1          6           0       -3.944931    0.673341    0.379910
      2          6           0       -4.810759    1.509972   -0.562627
      3          6           0       -5.325721    2.793042    0.090319
      4          1           0       -4.527762    0.421765    1.276550
      5          1           0       -3.094089    1.279733    0.720136
      6          1           0       -5.658961    0.901734   -0.902062
      7          1           0       -4.225860    1.759424   -1.457212
      8          1           0       -4.490554    3.422824    0.413539
      9          1           0       -5.931797    2.560261    0.971844
     10          1           0       -5.942333    3.375818   -0.601072
     11          6           0       -3.422649   -0.612521   -0.258453
     12          6           0       -2.556821   -1.449151    0.684084
     13          6           0       -2.041858   -2.732221    0.031139
     14          1           0       -4.273490   -1.218912   -0.598679
     15          1           0       -2.839817   -0.360944   -1.155092
     16          1           0       -3.141719   -1.698603    1.578670
     17          1           0       -1.708619   -0.840913    1.023520
     18          1           0       -1.435782   -2.499441   -0.850386
     19          1           0       -2.877025   -3.362003   -0.292082
     20          1           0       -1.425246   -3.314997    0.722530
     21          6           0        4.014826    0.590945   -0.356979
     22          6           0        5.071523    1.209901    0.558591
     23          6           0        5.724797    2.452143   -0.047924
     24          1           0        4.478735    0.330712   -1.318235
     25          1           0        3.243450    1.342374   -0.575448
     26          1           0        5.839953    0.457108    0.776386
     27          1           0        4.605088    1.468516    1.517848
     28          1           0        4.973818    3.222908   -0.249303
     29          1           0        6.215698    2.205754   -0.994977
     30          1           0        6.476928    2.878428    0.623225
     31          6           0        3.352754   -0.651766    0.235522
     32          6           0        2.296057   -1.270722   -0.680048
     33          6           0        1.642782   -2.512964   -0.073533
     34          1           0        4.124130   -1.403195    0.453991
     35          1           0        2.888845   -0.391533    1.196778
     36          1           0        2.762491   -1.529336   -1.639305
     37          1           0        1.527627   -0.517929   -0.897843
     38          1           0        1.151881   -2.266574    0.873520
     39          1           0        2.393761   -3.283728    0.127846
     40          1           0        0.890652   -2.939249   -0.744682
 ---------------------------------------------------------------------

 SCF Done:  E(RHF) =  -470.732331185     A.U. after   11 cycles
 E2 =    -0.1582960215D+01 EUMP2 =    -0.47231529139996D+03

 The electronic state is 1-A.
 Alpha  occ. eigenvalues --  -11.21609 -11.21607 -11.21594 -11.21592 -11.21409
 Alpha  occ. eigenvalues --  -11.21407 -11.21349 -11.21347 -11.21080 -11.21078
 Alpha  occ. eigenvalues --  -11.20974 -11.20959  -1.08442  -1.08415  -1.03571
 Alpha  occ. eigenvalues --   -1.03470  -0.96069  -0.95868  -0.87121  -0.86851
 Alpha  occ. eigenvalues --   -0.79663  -0.79509  -0.78247  -0.78241  -0.65120
 Alpha  occ. eigenvalues --   -0.65011  -0.61104  -0.60793  -0.59446  -0.59231
 Alpha  occ. eigenvalues --   -0.57661  -0.57524  -0.55436  -0.55070  -0.52899
 Alpha  occ. eigenvalues --   -0.52511  -0.52407  -0.52272  -0.49995  -0.49753
 Alpha  occ. eigenvalues --   -0.47969  -0.47833  -0.46634  -0.46582  -0.45787
 Alpha  occ. eigenvalues --   -0.45784  -0.45713  -0.45705  -0.43882  -0.43617
 Alpha virt. eigenvalues --    0.21190   0.23185   0.23523   0.25241   0.26393
 Alpha virt. eigenvalues --    0.26617   0.27031   0.27181   0.27697   0.29375
 Alpha virt. eigenvalues --    0.29629   0.30945   0.31210   0.32283   0.32358

 Mulliken charges:
               1
     1  C   -0.298227
     2  C   -0.299654
     3  C   -0.475690
     4  H    0.149695
     5  H    0.149161
     6  H    0.152006
     7  H    0.151897
     8  H    0.155074
     9  H    0.155205
    10  H    0.160291
    11  C   -0.298444
    12  C   -0.300873
    13  C   -0.476251
    14  H    0.149707
    15  H    0.149570
    16  H    0.151855
    17  H    0.151673
    18  H    0.156898
    19  H    0.153835
    20  H    0.162580
    21  C   -0.298214
    22  C   -0.299645
    23  C   -0.475691
    24  H    0.149664
    25  H    0.149197
    26  H    0.151990
    27  H    0.151897
    28  H    0.155094
    29  H    0.155194
    30  H    0.160282
    31  C   -0.298275
    32  C   -0.300589
    33  C   -0.478069
    34  H    0.149717
    35  H    0.149444
    36  H    0.151772
    37  H    0.150858
    38  H    0.155879
    39  H    0.154090
    40  H    0.165096
 Sum of Mulliken charges =  -0.00000

 Dipole moment (field-independent basis, Debye):
    X=             -0.0066    Y=             -0.0278    Z=             -0.0011  Tot=              0.0286
 Quadrupole moment (field-independent basis, Debye-Ang):
   XX=            -84.1985   YY=            -85.9013   ZZ=            -84.7113
   XY=             -0.0908   XZ=             -0.2775   YZ=              0.0564

 Normal termination of Gaussian 16 at Wed May  5 23:07:32 2021.
