 Gaussian 16, Revision A.03,
 Gaussian 16:  EM64L-G16RevA.03 25-Dec-2016

 -------------
 #p 6-31g* mp2
 -------------

 ------------------------------------------------------
 Input file generated by CHIRIPA (05-May-2021 14:53:16)
 ------------------------------------------------------
 Symbolic Z-matrix:
 Charge =  0 Multiplicity = 1

                         Standard orientation:
 ---------------------------------------------------------------------
 Center     Atomic      Atomic             Coordinates (Angstroms)
 Number     Number       Type             X           Y           Z
 ---------------------------------------------------------------------
      1          6           0       -3.699575   -0.575101   -0.339147
      2          6           0       -4.895694   -1.517937   -0.474591
      3          6           0       -4.481319   -2.960241   -0.767590
      4          1           0       -3.108606   -0.607503   -1.264701
      5          1           0       -3.043499   -0.939352    0.463523
      6          1           0       -5.550029   -1.151248   -1.275840
      7          1           0       -5.483991   -1.483142    0.451321
      8          1           0       -3.846733   -3.349394    0.035193
      9          1           0       -3.913146   -3.015614   -1.701781
     10          1           0       -5.351845   -3.617058   -0.860521
     11          6           0       -4.097703    0.870368   -0.046161
     12          6           0       -2.901584    1.813205    0.089282
     13          6           0       -3.315960    3.255508    0.382282
     14          1           0       -4.753780    1.234619   -0.848832
     15          1           0       -4.688673    0.902770    0.879393
     16          1           0       -2.313288    1.778409   -0.836629
     17          1           0       -2.247250    1.446515    0.890532
     18          1           0       -3.884133    3.310882    1.316473
     19          1           0       -3.950546    3.644662   -0.420501
     20          1           0       -2.445434    3.912325    0.475212
     21          6           0        1.067652   -0.390513    1.692290
     22          6           0        0.958117    0.407321    0.548620
     23          6           0        2.047662    0.566940   -0.312752
     24          6           0        3.237053   -0.088736    0.001458
     25          6           0        3.377417   -0.890339    1.133280
     26          6           0        2.274824   -1.035659    1.980463
     27          1           0        0.216199   -0.508956    2.355914
     28          1           0        0.021845    0.909542    0.322316
     29          1           0        1.990421    1.178684   -1.204890
     30          1           0        4.323744   -1.378405    1.332464
     31          1           0        2.362779   -1.655887    2.867946
     32          7           0        4.397412    0.072678   -0.902927
     33          8           0        5.434288   -0.515589   -0.603814
     34          8           0        4.248055    0.784403   -1.893774
 ---------------------------------------------------------------------

 SCF Done:  E(RHF) =  -669.535493204     A.U. after   15 cycles
 E2 =    -0.2091496965D+01 EUMP2 =    -0.67162699016869D+03

 The electronic state is 1-A.
 Alpha  occ. eigenvalues --  -20.60701 -20.60696 -15.85752 -11.31099 -11.27664
 Alpha  occ. eigenvalues --  -11.27640 -11.27399 -11.26690 -11.26584 -11.22818
 Alpha  occ. eigenvalues --  -11.22308 -11.22270 -11.22205 -11.21976 -11.21620
 Alpha  occ. eigenvalues --   -1.59777  -1.39331  -1.19262  -1.09327  -1.08664
 Alpha  occ. eigenvalues --   -1.04661  -1.04378  -0.96780  -0.95505  -0.87800
 Alpha  occ. eigenvalues --   -0.86064  -0.82338  -0.80501  -0.79145  -0.77376
 Alpha  occ. eigenvalues --   -0.71972  -0.71099  -0.70384  -0.65959  -0.64913
 Alpha  occ. eigenvalues --   -0.64672  -0.62045  -0.61754  -0.60159  -0.58406
 Alpha  occ. eigenvalues --   -0.56048  -0.55172  -0.53493  -0.53208  -0.52994
 Alpha  occ. eigenvalues --   -0.52748  -0.50722  -0.48833  -0.48728  -0.48648
 Alpha  occ. eigenvalues --   -0.47530  -0.46642  -0.46580  -0.44741  -0.44628
 Alpha  occ. eigenvalues --   -0.37249  -0.36260
 Alpha virt. eigenvalues --    0.05141   0.11374   0.16637   0.19757   0.22480
 Alpha virt. eigenvalues --    0.23603   0.24997   0.25515   0.27113   0.28098
 Alpha virt. eigenvalues --    0.29407   0.30040   0.30693   0.31343   0.31804

 Mulliken charges:
               1
     1  C   -0.298656
     2  C   -0.300295
     3  C   -0.476077
     4  H    0.151645
     5  H    0.143779
     6  H    0.154389
     7  H    0.152617
     8  H    0.154218
     9  H    0.157205
    10  H    0.162601
    11  C   -0.297693
    12  C   -0.306308
    13  C   -0.475580
    14  H    0.154073
    15  H    0.151767
    16  H    0.151973
    17  H    0.143850
    18  H    0.157819
    19  H    0.159896
    20  H    0.161628
    21  C   -0.173787
    22  C   -0.226413
    23  C   -0.173519
    24  C    0.159121
    25  C   -0.171694
    26  C   -0.218298
    27  H    0.224315
    28  H    0.237411
    29  H    0.275390
    30  H    0.275185
    31  H    0.222852
    32  N    0.487995
    33  O   -0.460740
    34  O   -0.460669
 Sum of Mulliken charges =  -0.00000

 Dipole moment (field-independent basis, Debye):
    X=             -4.3768    Y=             -0.5336    Z=              3.1185  Tot=              5.4005
 Quadrupole moment (field-independent basis, Debye-Ang):
   XX=           -119.3517   YY=            -94.1660   ZZ=            -92.5109
   XY=             -3.4018   XZ=             12.4909   YZ=             -2.7608

 Normal termination of Gaussian 16 at Thu May  6 10:37:33 2021.
