 Gaussian 16, Revision A.03,
 Gaussian 16:  EM64L-G16RevA.03 25-Dec-2016

 -------------
 #p 6-31g* mp2
 -------------

 ------------------------------------------------------
 Input file generated by CHIRIPA (05-May-2021 14:51:12)
 ------------------------------------------------------
 Symbolic Z-matrix:
 Charge =  0 Multiplicity = 1

                         Standard orientation:
 ---------------------------------------------------------------------
 Center     Atomic      Atomic             Coordinates (Angstroms)
 Number     Number       Type             X           Y           Z
 ---------------------------------------------------------------------
      1          6           0       -2.639385   -0.438047    0.155212
      2          6           0       -1.997047   -1.219518    1.301811
      3          6           0       -0.471720   -1.263465    1.205683
      4          1           0       -2.343726   -0.892179   -0.800452
      5          1           0       -2.241678    0.586259    0.150825
      6          1           0       -2.396880   -2.241643    1.304886
      7          1           0       -2.294425   -0.763589    2.254865
      8          1           0       -0.055152   -0.251199    1.225405
      9          1           0       -0.158189   -1.737651    0.270029
     10          1           0       -0.033253   -1.826988    2.035169
     11          6           0       -4.163911   -0.385200    0.237407
     12          6           0       -4.806250    0.396271   -0.909192
     13          6           0       -6.331577    0.440218   -0.813063
     14          1           0       -4.561619   -1.409506    0.241795
     15          1           0       -4.459571    0.068932    1.193072
     16          1           0       -4.508872   -0.059658   -1.862246
     17          1           0       -4.406417    1.418396   -0.912267
     18          1           0       -6.645108    0.914404    0.122590
     19          1           0       -6.748145   -0.572048   -0.832786
     20          1           0       -6.770044    1.003741   -1.642550
     21          6           0        2.834447    0.923106   -0.186335
     22          6           0        3.282970    2.317452    0.252538
     23          6           0        2.137075    3.329627    0.267436
     24          1           0        2.386809    0.987101   -1.187570
     25          1           0        2.041880    0.571179    0.488484
     26          1           0        4.075420    2.666072   -0.422075
     27          1           0        3.729765    2.250099    1.252765
     28          1           0        1.347867    3.007975    0.954670
     29          1           0        1.695485    3.426310   -0.729686
     30          1           0        2.479954    4.319594    0.584073
     31          6           0        3.968850   -0.099859   -0.206285
     32          6           0        3.520327   -1.494206   -0.645158
     33          6           0        4.666222   -2.506380   -0.660055
     34          1           0        4.761417    0.252067   -0.881103
     35          1           0        4.416488   -0.163854    0.794950
     36          1           0        3.073532   -1.426853   -1.645384
     37          1           0        2.727877   -1.842824    0.029456
     38          1           0        5.107811   -2.603063    0.337068
     39          1           0        5.455430   -2.184728   -1.347290
     40          1           0        4.323344   -3.496347   -0.976691
 ---------------------------------------------------------------------

 SCF Done:  E(RHF) =  -470.733101074     A.U. after   11 cycles
 E2 =    -0.1583098663D+01 EUMP2 =    -0.47231619973689D+03

 The electronic state is 1-A.
 Alpha  occ. eigenvalues --  -11.21623 -11.21600 -11.21561 -11.21518 -11.21408
 Alpha  occ. eigenvalues --  -11.21349 -11.21323 -11.21252 -11.21098 -11.21074
 Alpha  occ. eigenvalues --  -11.21070 -11.21020  -1.08441  -1.08364  -1.03544
 Alpha  occ. eigenvalues --   -1.03482  -0.96005  -0.95926  -0.87023  -0.86948
 Alpha  occ. eigenvalues --   -0.79625  -0.79543  -0.78290  -0.78126  -0.65085
 Alpha  occ. eigenvalues --   -0.64990  -0.60991  -0.60839  -0.59367  -0.59296
 Alpha  occ. eigenvalues --   -0.57652  -0.57508  -0.55364  -0.55155  -0.52714
 Alpha  occ. eigenvalues --   -0.52637  -0.52469  -0.52314  -0.50042  -0.49791
 Alpha  occ. eigenvalues --   -0.47990  -0.47859  -0.46739  -0.46474  -0.45950
 Alpha  occ. eigenvalues --   -0.45720  -0.45688  -0.45350  -0.43795  -0.43726
 Alpha virt. eigenvalues --    0.21681   0.22967   0.23787   0.24247   0.25359
 Alpha virt. eigenvalues --    0.26532   0.27069   0.27535   0.28026   0.29496
 Alpha virt. eigenvalues --    0.29726   0.31458   0.31783   0.32048   0.32302

 Mulliken charges:
               1
     1  C   -0.298395
     2  C   -0.300223
     3  C   -0.480578
     4  H    0.149860
     5  H    0.149914
     6  H    0.152005
     7  H    0.151796
     8  H    0.158618
     9  H    0.157604
    10  H    0.159574
    11  C   -0.298301
    12  C   -0.299682
    13  C   -0.475710
    14  H    0.149501
    15  H    0.149622
    16  H    0.151935
    17  H    0.152107
    18  H    0.155187
    19  H    0.155153
    20  H    0.160276
    21  C   -0.306398
    22  C   -0.299129
    23  C   -0.475656
    24  H    0.149025
    25  H    0.159118
    26  H    0.151782
    27  H    0.151642
    28  H    0.153817
    29  H    0.155299
    30  H    0.160301
    31  C   -0.297490
    32  C   -0.303513
    33  C   -0.475574
    34  H    0.149071
    35  H    0.149197
    36  H    0.151168
    37  H    0.157263
    38  H    0.155011
    39  H    0.154942
    40  H    0.159864
 Sum of Mulliken charges =  -0.00000

 Dipole moment (field-independent basis, Debye):
    X=             -0.0288    Y=             -0.0128    Z=              0.0044  Tot=              0.0318
 Quadrupole moment (field-independent basis, Debye-Ang):
   XX=            -86.6645   YY=            -84.7813   ZZ=            -83.5558
   XY=              0.8289   XZ=             -0.1377   YZ=              0.1959

 Normal termination of Gaussian 16 at Thu May  6 03:54:15 2021.
