 Gaussian 16, Revision A.03,
 Gaussian 16:  EM64L-G16RevA.03 25-Dec-2016

 -------------
 #p 6-31g* mp2
 -------------

 ------------------------------------------------------
 Input file generated by CHIRIPA (05-May-2021 14:57:21)
 ------------------------------------------------------
 Symbolic Z-matrix:
 Charge =  0 Multiplicity = 1

                         Standard orientation:
 ---------------------------------------------------------------------
 Center     Atomic      Atomic             Coordinates (Angstroms)
 Number     Number       Type             X           Y           Z
 ---------------------------------------------------------------------
      1          6           0       -5.353915    0.057346   -1.143174
      2          6           0       -4.360513   -0.823512   -1.583358
      3          6           0       -3.144217   -0.920332   -0.900864
      4          6           0       -2.954130   -0.117878    0.223068
      5          6           0       -3.924474    0.769307    0.686346
      6          6           0       -5.133114    0.849548   -0.011722
      7          1           0       -6.295789    0.126119   -1.679401
      8          1           0       -4.529224   -1.439964   -2.461748
      9          1           0       -2.358035   -1.593825   -1.219836
     10          1           0       -3.727152    1.370987    1.565245
     11          1           0       -5.902808    1.534519    0.332416
     12          7           0       -1.670545   -0.211601    0.953838
     13          8           0       -1.527681    0.506193    1.941258
     14          8           0       -0.831639   -1.001081    0.525358
     15          6           0        3.288130   -2.390786    0.264512
     16          6           0        3.964692   -1.807692   -0.811956
     17          6           0        3.903887   -0.427313   -1.025040
     18          6           0        3.153842    0.343466   -0.138123
     19          6           0        2.468734   -0.207919    0.943492
     20          6           0        2.543622   -1.590451    1.137262
     21          1           0        3.340835   -3.463934    0.422540
     22          1           0        4.543652   -2.426782   -1.491351
     23          1           0        4.417925    0.050188   -1.850374
     24          1           0        1.899660    0.435159    1.603813
     25          1           0        2.017174   -2.040555    1.974103
     26          7           0        3.082016    1.805951   -0.353482
     27          8           0        2.414420    2.463109    0.442191
     28          8           0        3.694674    2.267396   -1.313875
 ---------------------------------------------------------------------

 SCF Done:  E(RHF) =  -868.339526510     A.U. after   16 cycles
 E2 =    -0.2599905588D+01 EUMP2 =    -0.87093943209843D+03

 The electronic state is 1-A.
 Alpha  occ. eigenvalues --  -20.61283 -20.61247 -20.59666 -20.59641 -15.86265
 Alpha  occ. eigenvalues --  -15.84697 -11.31414 -11.29784 -11.27975 -11.27941
 Alpha  occ. eigenvalues --  -11.27673 -11.26940 -11.26915 -11.26452 -11.26176
 Alpha  occ. eigenvalues --  -11.26130 -11.25468 -11.25188  -1.60325  -1.58740
 Alpha  occ. eigenvalues --   -1.39881  -1.38297  -1.19569  -1.17961  -1.09012
 Alpha  occ. eigenvalues --   -1.07438  -1.04941  -1.03299  -0.95883  -0.94303
 Alpha  occ. eigenvalues --   -0.86350  -0.84747  -0.82722  -0.81126  -0.77792
 Alpha  occ. eigenvalues --   -0.76187  -0.72506  -0.71610  -0.70928  -0.70682
 Alpha  occ. eigenvalues --   -0.70059  -0.69121  -0.65229  -0.64950  -0.63623
 Alpha  occ. eigenvalues --   -0.63337  -0.62292  -0.60655  -0.55461  -0.53915
 Alpha  occ. eigenvalues --   -0.53279  -0.53035  -0.51714  -0.51411  -0.49273
 Alpha  occ. eigenvalues --   -0.49235  -0.47692  -0.47661  -0.45323  -0.43762
 Alpha  occ. eigenvalues --   -0.37538  -0.36531  -0.36001  -0.34788
 Alpha virt. eigenvalues --    0.04714   0.06334   0.11128   0.12763   0.16273
 Alpha virt. eigenvalues --    0.17845   0.21271   0.22753   0.27191   0.28144
 Alpha virt. eigenvalues --    0.28737   0.29628   0.30856   0.32198   0.32389

 Mulliken charges:
               1
     1  C   -0.169866
     2  C   -0.218484
     3  C   -0.170380
     4  C    0.158811
     5  C   -0.169328
     6  C   -0.218512
     7  H    0.226686
     8  H    0.223838
     9  H    0.274610
    10  H    0.277243
    11  H    0.224916
    12  N    0.490322
    13  O   -0.459830
    14  O   -0.466386
    15  C   -0.173932
    16  C   -0.220348
    17  C   -0.174079
    18  C    0.152408
    19  C   -0.158004
    20  C   -0.206796
    21  H    0.219615
    22  H    0.216481
    23  H    0.269625
    24  H    0.284611
    25  H    0.226093
    26  N    0.487667
    27  O   -0.459759
    28  O   -0.467221
 Sum of Mulliken charges =  -0.00000

 Dipole moment (field-independent basis, Debye):
    X=             -4.8115    Y=             -4.7841    Z=             -1.5682  Tot=              6.9640
 Quadrupole moment (field-independent basis, Debye-Ang):
   XX=            -76.4901   YY=           -107.5953   ZZ=           -101.5452
   XY=            -18.4073   XZ=              6.0451   YZ=              4.3993

 Normal termination of Gaussian 16 at Wed May  5 16:12:00 2021.
