 Gaussian 16, Revision A.03,
 Gaussian 16:  EM64L-G16RevA.03 25-Dec-2016

 -------------
 #p 6-31g* mp2
 -------------

 ------------------------------------------------------
 Input file generated by CHIRIPA (05-May-2021 14:55:25)
 ------------------------------------------------------
 Symbolic Z-matrix:
 Charge =  0 Multiplicity = 1

                         Standard orientation:
 ---------------------------------------------------------------------
 Center     Atomic      Atomic             Coordinates (Angstroms)
 Number     Number       Type             X           Y           Z
 ---------------------------------------------------------------------
      1          6           0        5.588522   -0.610500   -0.990626
      2          6           0        5.522743   -0.424161    0.394103
      3          6           0        4.295295   -0.191761    1.021725
      4          6           0        3.148271   -0.151901    0.230501
      5          6           0        3.181245   -0.333799   -1.151207
      6          6           0        4.419624   -0.564805   -1.757509
      7          1           0        6.546279   -0.790493   -1.469897
      8          1           0        6.428899   -0.459124    0.992186
      9          1           0        4.215639   -0.044189    2.091910
     10          1           0        2.260813   -0.293423   -1.720937
     11          1           0        4.467697   -0.709171   -2.833098
     12          7           0        1.843041    0.093393    0.883651
     13          8           0        0.846974    0.123848    0.164235
     14          8           0        1.840783    0.250555    2.102639
     15          6           0       -4.545213   -0.422271    0.123761
     16          6           0       -5.932117   -0.827394   -0.376598
     17          6           0       -6.398589   -2.166859    0.194394
     18          1           0       -3.823216   -1.206804   -0.141145
     19          1           0       -4.560142   -0.368863    1.221176
     20          1           0       -5.914942   -0.878676   -1.472814
     21          1           0       -6.650860   -0.041717   -0.110638
     22          1           0       -6.444078   -2.124810    1.287446
     23          1           0       -5.703979   -2.966523   -0.082470
     24          1           0       -7.392243   -2.437132   -0.176366
     25          6           0       -4.065062    0.914631   -0.438267
     26          6           0       -2.678158    1.319753    0.062092
     27          6           0       -2.211686    2.659218   -0.508899
     28          1           0       -4.050133    0.861223   -1.535682
     29          1           0       -4.787058    1.699164   -0.173361
     30          1           0       -1.959414    0.534076   -0.203867
     31          1           0       -2.695332    1.371035    1.158309
     32          1           0       -2.906296    3.458884   -0.232036
     33          1           0       -2.166197    2.617169   -1.601952
     34          1           0       -1.218032    2.929492   -0.138140
 ---------------------------------------------------------------------

 SCF Done:  E(RHF) =  -669.536016891     A.U. after   15 cycles
 E2 =    -0.2090962785D+01 EUMP2 =    -0.67162697967544D+03

 The electronic state is 1-A.
 Alpha  occ. eigenvalues --  -20.60952 -20.60946 -15.85990 -11.31306 -11.27870
 Alpha  occ. eigenvalues --  -11.27866 -11.27606 -11.26876 -11.26866 -11.20851
 Alpha  occ. eigenvalues --  -11.20443 -11.20407 -11.20230 -11.19938 -11.19739
 Alpha  occ. eigenvalues --   -1.60013  -1.39569  -1.19474  -1.08879  -1.07353
 Alpha  occ. eigenvalues --   -1.04871  -1.02424  -0.95722  -0.94935  -0.86271
 Alpha  occ. eigenvalues --   -0.85966  -0.82558  -0.78518  -0.77611  -0.77086
 Alpha  occ. eigenvalues --   -0.72212  -0.71328  -0.70583  -0.65132  -0.64874
 Alpha  occ. eigenvalues --   -0.63994  -0.62218  -0.59828  -0.58318  -0.56492
 Alpha  occ. eigenvalues --   -0.55373  -0.54257  -0.53202  -0.52962  -0.51638
 Alpha  occ. eigenvalues --   -0.51354  -0.49020  -0.48961  -0.48882  -0.46814
 Alpha  occ. eigenvalues --   -0.45553  -0.44979  -0.44648  -0.44502  -0.42693
 Alpha  occ. eigenvalues --   -0.37453  -0.36472
 Alpha virt. eigenvalues --    0.04918   0.11183   0.16415   0.21308   0.23855
 Alpha virt. eigenvalues --    0.25360   0.27236   0.27671   0.28143   0.28675
 Alpha virt. eigenvalues --    0.28990   0.30883   0.32306   0.32481   0.32826

 Mulliken charges:
               1
     1  C   -0.170587
     2  C   -0.218591
     3  C   -0.170463
     4  C    0.157429
     5  C   -0.170737
     6  C   -0.218517
     7  H    0.226036
     8  H    0.223858
     9  H    0.275908
    10  H    0.275544
    11  H    0.223850
    12  N    0.493037
    13  O   -0.464347
    14  O   -0.458855
    15  C   -0.297275
    16  C   -0.298665
    17  C   -0.475004
    18  H    0.150546
    19  H    0.149846
    20  H    0.149529
    21  H    0.150268
    22  H    0.154941
    23  H    0.154287
    24  H    0.157370
    25  C   -0.298212
    26  C   -0.302900
    27  C   -0.474744
    28  H    0.144403
    29  H    0.144812
    30  H    0.174098
    31  H    0.152200
    32  H    0.147904
    33  H    0.147616
    34  H    0.165414
 Sum of Mulliken charges =  -0.00000

 Dipole moment (field-independent basis, Debye):
    X=              4.9737    Y=             -0.9430    Z=             -2.2150  Tot=              5.5257
 Quadrupole moment (field-independent basis, Debye-Ang):
   XX=            -66.7072   YY=            -96.5902   ZZ=            -91.5370
   XY=             -3.8154   XZ=             -4.4745   YZ=              1.3503

 Normal termination of Gaussian 16 at Thu May  6 09:34:09 2021.
