 Gaussian 16, Revision A.03,
 Gaussian 16:  EM64L-G16RevA.03 25-Dec-2016

 -------------
 #p 6-31g* mp2
 -------------

 ------------------------------------------------------
 Input file generated by CHIRIPA (05-May-2021 14:51:09)
 ------------------------------------------------------
 Symbolic Z-matrix:
 Charge =  0 Multiplicity = 1

                         Standard orientation:
 ---------------------------------------------------------------------
 Center     Atomic      Atomic             Coordinates (Angstroms)
 Number     Number       Type             X           Y           Z
 ---------------------------------------------------------------------
      1          6           0        2.473285   -0.646093    0.323138
      2          6           0        2.515585   -2.146583    0.032060
      3          6           0        1.283502   -2.885279    0.555599
      4          1           0        2.384585   -0.491707    1.407224
      5          1           0        1.568070   -0.217384   -0.128736
      6          1           0        3.421159   -2.572084    0.483170
      7          1           0        2.604387   -2.297412   -1.051444
      8          1           0        0.372316   -2.488138    0.096666
      9          1           0        1.193728   -2.764371    1.639999
     10          1           0        1.334501   -3.956427    0.336736
     11          6           0        3.698158    0.106126   -0.194144
     12          6           0        3.655858    1.606616    0.096934
     13          6           0        4.887941    2.345312   -0.426606
     14          1           0        4.603373   -0.322583    0.257730
     15          1           0        3.786858   -0.048260   -1.278230
     16          1           0        3.567056    1.757445    1.180438
     17          1           0        2.750284    2.032117   -0.354176
     18          1           0        4.977715    2.224404   -1.511005
     19          1           0        5.799127    1.948171    0.032328
     20          1           0        4.836942    3.416460   -0.207743
     21          6           0       -2.785504    0.957747    0.077920
     22          6           0       -3.809920    2.091196    0.015852
     23          6           0       -3.194148    3.460932    0.302975
     24          1           0       -2.316825    0.949659    1.071509
     25          1           0       -1.982558    1.158604   -0.644804
     26          1           0       -4.611406    1.887565    0.737497
     27          1           0       -4.276353    2.096466   -0.977641
     28          1           0       -2.407929    3.689834   -0.423705
     29          1           0       -2.744886    3.479747    1.301179
     30          1           0       -3.944042    4.256584    0.253393
     31          6           0       -3.385939   -0.417780   -0.206913
     32          6           0       -2.361523   -1.551228   -0.144845
     33          6           0       -2.977295   -2.920966   -0.431969
     34          1           0       -4.188884   -0.618636    0.515811
     35          1           0       -3.854618   -0.409692   -1.200502
     36          1           0       -1.895090   -1.556499    0.848648
     37          1           0       -1.560038   -1.347598   -0.866490
     38          1           0       -3.426556   -2.939779   -1.430172
     39          1           0       -3.763514   -3.149868    0.294711
     40          1           0       -2.227401   -3.716617   -0.382386
 ---------------------------------------------------------------------

 SCF Done:  E(RHF) =  -470.732871589     A.U. after   11 cycles
 E2 =    -0.1583259847D+01 EUMP2 =    -0.47231613143680D+03

 The electronic state is 1-A.
 Alpha  occ. eigenvalues --  -11.21626 -11.21617 -11.21580 -11.21546 -11.21424
 Alpha  occ. eigenvalues --  -11.21372 -11.21365 -11.21311 -11.21082 -11.21073
 Alpha  occ. eigenvalues --  -11.21056 -11.20924  -1.08459  -1.08388  -1.03576
 Alpha  occ. eigenvalues --   -1.03464  -0.96019  -0.95910  -0.87010  -0.86952
 Alpha  occ. eigenvalues --   -0.79716  -0.79478  -0.78323  -0.78150  -0.65095
 Alpha  occ. eigenvalues --   -0.65015  -0.60979  -0.60882  -0.59399  -0.59287
 Alpha  occ. eigenvalues --   -0.57750  -0.57430  -0.55284  -0.55187  -0.52707
 Alpha  occ. eigenvalues --   -0.52619  -0.52409  -0.52346  -0.49944  -0.49876
 Alpha  occ. eigenvalues --   -0.48120  -0.47696  -0.46692  -0.46564  -0.45947
 Alpha  occ. eigenvalues --   -0.45762  -0.45687  -0.45444  -0.43808  -0.43732
 Alpha virt. eigenvalues --    0.21575   0.23200   0.23418   0.24818   0.25650
 Alpha virt. eigenvalues --    0.26548   0.26970   0.27148   0.28594   0.29180
 Alpha virt. eigenvalues --    0.30662   0.31025   0.31588   0.31835   0.32195

 Mulliken charges:
               1
     1  C   -0.298775
     2  C   -0.299056
     3  C   -0.486164
     4  H    0.149428
     5  H    0.149964
     6  H    0.151487
     7  H    0.151206
     8  H    0.169338
     9  H    0.153909
    10  H    0.158910
    11  C   -0.298254
    12  C   -0.299547
    13  C   -0.475690
    14  H    0.149508
    15  H    0.149379
    16  H    0.151934
    17  H    0.151887
    18  H    0.155048
    19  H    0.155149
    20  H    0.160224
    21  C   -0.298435
    22  C   -0.299678
    23  C   -0.475675
    24  H    0.150222
    25  H    0.148803
    26  H    0.152059
    27  H    0.151919
    28  H    0.155051
    29  H    0.155373
    30  H    0.160301
    31  C   -0.297044
    32  C   -0.303955
    33  C   -0.477699
    34  H    0.149750
    35  H    0.149519
    36  H    0.155247
    37  H    0.151057
    38  H    0.155038
    39  H    0.155575
    40  H    0.162688
 Sum of Mulliken charges =  -0.00000

 Dipole moment (field-independent basis, Debye):
    X=             -0.0506    Y=              0.0049    Z=              0.0099  Tot=              0.0518
 Quadrupole moment (field-independent basis, Debye-Ang):
   XX=            -85.3832   YY=            -86.4002   ZZ=            -83.1112
   XY=             -0.8057   XZ=              0.3983   YZ=             -0.2253

 Normal termination of Gaussian 16 at Wed May  5 18:10:20 2021.
