 Gaussian 16, Revision A.03,
 Gaussian 16:  EM64L-G16RevA.03 25-Dec-2016

 -------------
 #p 6-31g* mp2
 -------------

 ------------------------------------------------------
 Input file generated by CHIRIPA (05-May-2021 14:53:11)
 ------------------------------------------------------
 Symbolic Z-matrix:
 Charge =  0 Multiplicity = 1

                         Standard orientation:
 ---------------------------------------------------------------------
 Center     Atomic      Atomic             Coordinates (Angstroms)
 Number     Number       Type             X           Y           Z
 ---------------------------------------------------------------------
      1          6           0       -3.222140   -0.999132    0.253193
      2          6           0       -1.753993   -0.770184    0.613903
      3          6           0       -1.015566   -2.069044    0.938682
      4          1           0       -3.723038   -1.508513    1.087804
      5          1           0       -3.279157   -1.679539   -0.607732
      6          1           0       -1.699720   -0.089316    1.473025
      7          1           0       -1.256578   -0.261117   -0.221587
      8          1           0       -1.040016   -2.750588    0.082235
      9          1           0       -1.485676   -2.577811    1.786476
     10          1           0        0.032234   -1.882168    1.193737
     11          6           0       -3.973713    0.289972   -0.074035
     12          6           0       -5.441860    0.061024   -0.434746
     13          6           0       -6.180287    1.359884   -0.759524
     14          1           0       -3.916695    0.970378    0.786890
     15          1           0       -3.472815    0.799353   -0.908646
     16          1           0       -5.939275   -0.448044    0.400745
     17          1           0       -5.496132   -0.619844   -1.293867
     18          1           0       -5.710176    1.868651   -1.607318
     19          1           0       -6.155837    2.041428    0.096923
     20          1           0       -7.228086    1.173008   -1.014579
     21          6           0        2.513483    2.687744    0.612560
     22          6           0        2.198769    1.662165    1.510148
     23          6           0        2.359617    0.322881    1.142732
     24          6           0        2.839631    0.043955   -0.135969
     25          6           0        3.161935    1.043450   -1.052714
     26          6           0        2.993215    2.375664   -0.663756
     27          1           0        2.385475    3.725386    0.906345
     28          1           0        1.826013    1.901571    2.502007
     29          1           0        2.123694   -0.490778    1.817800
     30          1           0        3.531523    0.773605   -2.034552
     31          1           0        3.238435    3.170077   -1.362912
     32          7           0        3.014080   -1.370142   -0.536340
     33          8           0        3.438656   -1.589540   -1.668698
     34          8           0        2.722933   -2.232337    0.289791
 ---------------------------------------------------------------------

 SCF Done:  E(RHF) =  -669.535739970     A.U. after   15 cycles
 E2 =    -0.2092163731D+01 EUMP2 =    -0.67162790370155D+03

 The electronic state is 1-A.
 Alpha  occ. eigenvalues --  -20.60883 -20.60872 -15.85906 -11.31254 -11.27822
 Alpha  occ. eigenvalues --  -11.27811 -11.27548 -11.26828 -11.26818 -11.21587
 Alpha  occ. eigenvalues --  -11.21443 -11.21363 -11.21241 -11.21107 -11.20563
 Alpha  occ. eigenvalues --   -1.59938  -1.39495  -1.19421  -1.08819  -1.08341
 Alpha  occ. eigenvalues --   -1.04821  -1.03401  -0.95836  -0.95650  -0.86836
 Alpha  occ. eigenvalues --   -0.86220  -0.82492  -0.79467  -0.78161  -0.77548
 Alpha  occ. eigenvalues --   -0.72133  -0.71255  -0.70534  -0.65078  -0.64975
 Alpha  occ. eigenvalues --   -0.64831  -0.62194  -0.60800  -0.59199  -0.57454
 Alpha  occ. eigenvalues --   -0.55322  -0.55109  -0.53146  -0.52954  -0.52463
 Alpha  occ. eigenvalues --   -0.52232  -0.49762  -0.48896  -0.48886  -0.47773
 Alpha  occ. eigenvalues --   -0.46518  -0.45694  -0.45634  -0.44905  -0.43588
 Alpha  occ. eigenvalues --   -0.37392  -0.36408
 Alpha virt. eigenvalues --    0.04953   0.11157   0.16454   0.21097   0.22939
 Alpha virt. eigenvalues --    0.24249   0.26639   0.26771   0.27593   0.27732
 Alpha virt. eigenvalues --    0.28779   0.30271   0.31561   0.31612   0.31916

 Mulliken charges:
               1
     1  C   -0.297995
     2  C   -0.299807
     3  C   -0.482752
     4  H    0.149382
     5  H    0.151616
     6  H    0.144281
     7  H    0.150912
     8  H    0.161276
     9  H    0.152159
    10  H    0.168841
    11  C   -0.297621
    12  C   -0.299588
    13  C   -0.475519
    14  H    0.146882
    15  H    0.148828
    16  H    0.152030
    17  H    0.152987
    18  H    0.154617
    19  H    0.153943
    20  H    0.160472
    21  C   -0.170554
    22  C   -0.218503
    23  C   -0.170061
    24  C    0.158900
    25  C   -0.171147
    26  C   -0.218372
    27  H    0.225918
    28  H    0.223921
    29  H    0.276160
    30  H    0.275656
    31  H    0.223671
    32  N    0.488546
    33  O   -0.459381
    34  O   -0.459697
 Sum of Mulliken charges =  -0.00000

 Dipole moment (field-independent basis, Debye):
    X=             -0.4902    Y=              4.9316    Z=              1.3571  Tot=              5.1383
 Quadrupole moment (field-independent basis, Debye-Ang):
   XX=            -99.0505   YY=            -94.9254   ZZ=            -90.4006
   XY=             15.4857   XZ=              2.0649   YZ=             -1.7213

 Normal termination of Gaussian 16 at Wed May  5 20:04:08 2021.
