 Gaussian 16, Revision A.03,
 Gaussian 16:  EM64L-G16RevA.03 25-Dec-2016

 -------------
 #p 6-31g* mp2
 -------------

 ------------------------------------------------------
 Input file generated by CHIRIPA (05-May-2021 14:57:21)
 ------------------------------------------------------
 Symbolic Z-matrix:
 Charge =  0 Multiplicity = 1

                         Standard orientation:
 ---------------------------------------------------------------------
 Center     Atomic      Atomic             Coordinates (Angstroms)
 Number     Number       Type             X           Y           Z
 ---------------------------------------------------------------------
      1          6           0        3.467874   -2.229711   -0.929250
      2          6           0        4.544529   -1.448255   -0.497207
      3          6           0        4.336954   -0.142319   -0.043343
      4          6           0        3.033759    0.352557   -0.034974
      5          6           0        1.940483   -0.401239   -0.459038
      6          6           0        2.171572   -1.704634   -0.908822
      7          1           0        3.638256   -3.243206   -1.280238
      8          1           0        5.552332   -1.853422   -0.511963
      9          1           0        5.152308    0.484530    0.296770
     10          1           0        0.947216    0.030203   -0.432650
     11          1           0        1.333524   -2.309230   -1.243761
     12          7           0        2.801561    1.733748    0.443351
     13          8           0        1.643853    2.146473    0.440865
     14          8           0        3.781670    2.377447    0.811693
     15          6           0       -3.791487    2.077825   -0.884299
     16          6           0       -4.622339    0.957409   -0.988568
     17          6           0       -4.233909   -0.268146   -0.439309
     18          6           0       -3.002473   -0.337873    0.210302
     19          6           0       -2.152569    0.760526    0.330611
     20          6           0       -2.561422    1.975987   -0.226202
     21          1           0       -4.101161    3.025946   -1.313910
     22          1           0       -5.578169    1.033562   -1.499093
     23          1           0       -4.857623   -1.151328   -0.505539
     24          1           0       -1.205494    0.653683    0.845442
     25          1           0       -1.914127    2.844461   -0.143706
     26          7           0       -2.580449   -1.629971    0.795776
     27          8           0       -1.490704   -1.665287    1.363092
     28          8           0       -3.347402   -2.582933    0.676269
 ---------------------------------------------------------------------

 SCF Done:  E(RHF) =  -868.340576664     A.U. after   16 cycles
 E2 =    -0.2599631977D+01 EUMP2 =    -0.87094020864174D+03

 The electronic state is 1-A.
 Alpha  occ. eigenvalues --  -20.61055 -20.61019 -20.60995 -20.60994 -15.86059
 Alpha  occ. eigenvalues --  -15.86039 -11.31170 -11.31060 -11.27712 -11.27594
 Alpha  occ. eigenvalues --  -11.27584 -11.27578 -11.27341 -11.27243 -11.26701
 Alpha  occ. eigenvalues --  -11.26553 -11.26510 -11.26454  -1.60088  -1.60082
 Alpha  occ. eigenvalues --   -1.39655  -1.39646  -1.19299  -1.19192  -1.08739
 Alpha  occ. eigenvalues --   -1.08653  -1.04634  -1.04532  -0.95622  -0.95546
 Alpha  occ. eigenvalues --   -0.86064  -0.85949  -0.82460  -0.82372  -0.77616
 Alpha  occ. eigenvalues --   -0.77397  -0.72320  -0.72241  -0.71417  -0.71378
 Alpha  occ. eigenvalues --   -0.70427  -0.70277  -0.64934  -0.64846  -0.64669
 Alpha  occ. eigenvalues --   -0.64474  -0.62097  -0.61751  -0.55162  -0.55047
 Alpha  occ. eigenvalues --   -0.53027  -0.52880  -0.52765  -0.52523  -0.49084
 Alpha  occ. eigenvalues --   -0.49014  -0.48997  -0.48991  -0.45136  -0.45099
 Alpha  occ. eigenvalues --   -0.37281  -0.37150  -0.36233  -0.36099
 Alpha virt. eigenvalues --    0.04888   0.05024   0.11290   0.11523   0.16493
 Alpha virt. eigenvalues --    0.16622   0.20920   0.22167   0.26201   0.27832
 Alpha virt. eigenvalues --    0.28210   0.29441   0.31153   0.31388   0.31899

 Mulliken charges:
               1
     1  C   -0.170080
     2  C   -0.218677
     3  C   -0.170845
     4  C    0.156683
     5  C   -0.166359
     6  C   -0.216317
     7  H    0.226929
     8  H    0.223060
     9  H    0.274255
    10  H    0.272098
    11  H    0.229718
    12  N    0.490766
    13  O   -0.474802
    14  O   -0.457275
    15  C   -0.171352
    16  C   -0.218106
    17  C   -0.172484
    18  C    0.157661
    19  C   -0.183510
    20  C   -0.221110
    21  H    0.226966
    22  H    0.223032
    23  H    0.273992
    24  H    0.284927
    25  H    0.238776
    26  N    0.487207
    27  O   -0.464901
    28  O   -0.460252
 Sum of Mulliken charges =  -0.00000

 Dipole moment (field-independent basis, Debye):
    X=             -0.6142    Y=             -0.2933    Z=             -3.7715  Tot=              3.8325
 Quadrupole moment (field-independent basis, Debye-Ang):
   XX=            -82.4846   YY=           -111.0379   ZZ=           -106.5189
   XY=            -26.0617   XZ=              3.2895   YZ=              2.2182

 Normal termination of Gaussian 16 at Thu May  6 22:37:14 2021.
