 Gaussian 16, Revision A.03,
 Gaussian 16:  EM64L-G16RevA.03 25-Dec-2016

 -------------
 #p 6-31g* mp2
 -------------

 ------------------------------------------------------
 Input file generated by CHIRIPA (05-May-2021 14:55:23)
 ------------------------------------------------------
 Symbolic Z-matrix:
 Charge =  0 Multiplicity = 1

                         Standard orientation:
 ---------------------------------------------------------------------
 Center     Atomic      Atomic             Coordinates (Angstroms)
 Number     Number       Type             X           Y           Z
 ---------------------------------------------------------------------
      1          6           0        0.350160   -0.271064    1.231504
      2          6           0        0.938233    0.940577    0.853855
      3          6           0        2.212881    0.962715    0.279982
      4          6           0        2.874004   -0.250910    0.097442
      5          6           0        2.314707   -1.474280    0.463285
      6          6           0        1.039060   -1.472507    1.035360
      7          1           0       -0.640405   -0.278974    1.676604
      8          1           0        0.405559    1.875168    1.004991
      9          1           0        2.691630    1.886447   -0.021574
     10          1           0        2.870305   -2.389752    0.300069
     11          1           0        0.584817   -2.414980    1.327684
     12          7           0        4.223946   -0.240129   -0.509139
     13          8           0        4.785625   -1.322990   -0.659356
     14          8           0        4.694789    0.850977   -0.822876
     15          6           0       -3.509617   -0.342498   -0.608471
     16          6           0       -4.489142   -1.259550    0.124696
     17          6           0       -4.710241   -2.587937   -0.599387
     18          1           0       -3.885819   -0.150722   -1.622689
     19          1           0       -2.548486   -0.862227   -0.724679
     20          1           0       -5.447711   -0.737724    0.240709
     21          1           0       -4.110661   -1.449009    1.137352
     22          1           0       -3.766039   -3.132473   -0.702177
     23          1           0       -5.110687   -2.417145   -1.603914
     24          1           0       -5.413826   -3.228028   -0.057989
     25          6           0       -3.278268    0.989375    0.103091
     26          6           0       -2.298743    1.906426   -0.630076
     27          6           0       -2.077644    3.234814    0.094007
     28          1           0       -4.239398    1.509104    0.219298
     29          1           0       -2.902065    0.797600    1.117309
     30          1           0       -2.677224    2.095886   -1.642732
     31          1           0       -1.340173    1.384600   -0.746089
     32          1           0       -1.677198    3.064022    1.098533
     33          1           0       -3.021845    3.779350    0.196796
     34          1           0       -1.374058    3.874905   -0.447392
 ---------------------------------------------------------------------

 SCF Done:  E(RHF) =  -669.534060415     A.U. after   15 cycles
 E2 =    -0.2094378401D+01 EUMP2 =    -0.67162843881580D+03

 The electronic state is 1-A.
 Alpha  occ. eigenvalues --  -20.60787 -20.60781 -15.85839 -11.31225 -11.27789
 Alpha  occ. eigenvalues --  -11.27770 -11.27516 -11.26818 -11.26737 -11.22475
 Alpha  occ. eigenvalues --  -11.22429 -11.22416 -11.22231 -11.22212 -11.21763
 Alpha  occ. eigenvalues --   -1.59861  -1.39414  -1.19400  -1.09394  -1.08782
 Alpha  occ. eigenvalues --   -1.04823  -1.04432  -0.96924  -0.95623  -0.87926
 Alpha  occ. eigenvalues --   -0.86207  -0.82450  -0.80496  -0.79167  -0.77501
 Alpha  occ. eigenvalues --   -0.72060  -0.71184  -0.70546  -0.66188  -0.65041
 Alpha  occ. eigenvalues --   -0.64753  -0.62388  -0.61550  -0.60270  -0.58501
 Alpha  occ. eigenvalues --   -0.56389  -0.55170  -0.53580  -0.53321  -0.53151
 Alpha  occ. eigenvalues --   -0.52841  -0.50847  -0.48843  -0.48812  -0.48765
 Alpha  occ. eigenvalues --   -0.47556  -0.46714  -0.46629  -0.44815  -0.44697
 Alpha  occ. eigenvalues --   -0.37331  -0.36367
 Alpha virt. eigenvalues --    0.05006   0.11130   0.16391   0.18686   0.22580
 Alpha virt. eigenvalues --    0.23873   0.24942   0.26024   0.26559   0.28605
 Alpha virt. eigenvalues --    0.29729   0.30700   0.31136   0.31189   0.31561

 Mulliken charges:
               1
     1  C   -0.174730
     2  C   -0.224866
     3  C   -0.174048
     4  C    0.158922
     5  C   -0.170835
     6  C   -0.219856
     7  H    0.230493
     8  H    0.235663
     9  H    0.276298
    10  H    0.275734
    11  H    0.223749
    12  N    0.488000
    13  O   -0.460343
    14  O   -0.460150
    15  C   -0.301430
    16  C   -0.299554
    17  C   -0.475834
    18  H    0.154453
    19  H    0.150233
    20  H    0.154794
    21  H    0.146644
    22  H    0.154166
    23  H    0.158141
    24  H    0.162281
    25  C   -0.299275
    26  C   -0.311064
    27  C   -0.481784
    28  H    0.154549
    29  H    0.138945
    30  H    0.158152
    31  H    0.160287
    32  H    0.145493
    33  H    0.162996
    34  H    0.163777
 Sum of Mulliken charges =  -0.00000

 Dipole moment (field-independent basis, Debye):
    X=             -4.8833    Y=             -0.0192    Z=              1.9916  Tot=              5.2738
 Quadrupole moment (field-independent basis, Debye-Ang):
   XX=           -121.6043   YY=            -90.3438   ZZ=            -95.0312
   XY=              0.2108   XZ=              6.4793   YZ=             -1.7433

 Normal termination of Gaussian 16 at Thu May  6 04:42:55 2021.
