 Gaussian 16, Revision A.03,
 Gaussian 16:  EM64L-G16RevA.03 25-Dec-2016

 -------------
 #p 6-31g* mp2
 -------------

 ------------------------------------------------------
 Input file generated by CHIRIPA (05-May-2021 14:55:20)
 ------------------------------------------------------
 Symbolic Z-matrix:
 Charge =  0 Multiplicity = 1

                         Standard orientation:
 ---------------------------------------------------------------------
 Center     Atomic      Atomic             Coordinates (Angstroms)
 Number     Number       Type             X           Y           Z
 ---------------------------------------------------------------------
      1          6           0        1.253163    1.701509   -0.746379
      2          6           0        0.837895    0.499841   -0.163226
      3          6           0        1.773765   -0.471131    0.205432
      4          6           0        3.122912   -0.206190   -0.024566
      5          6           0        3.567930    0.981230   -0.603602
      6          6           0        2.614455    1.937951   -0.964322
      7          1           0        0.519318    2.450248   -1.029678
      8          1           0       -0.218642    0.313500    0.007220
      9          1           0        1.479875   -1.410096    0.658632
     10          1           0        4.628099    1.138364   -0.760981
     11          1           0        2.939851    2.870273   -1.417024
     12          7           0        4.122995   -1.226571    0.361514
     13          8           0        5.305718   -0.968995    0.148306
     14          8           0        3.705199   -2.264600    0.870020
     15          6           0       -4.377592   -0.431256    0.053378
     16          6           0       -3.980912   -1.824249   -0.436724
     17          6           0       -5.174541   -2.772967   -0.550640
     18          1           0       -4.871635   -0.520238    1.030593
     19          1           0       -5.120878   -0.005847   -0.635060
     20          1           0       -3.237566   -2.246341    0.251674
     21          1           0       -3.487584   -1.731921   -1.412797
     22          1           0       -5.915453   -2.377328   -1.252866
     23          1           0       -5.664014   -2.894671    0.421062
     24          1           0       -4.868303   -3.763010   -0.902622
     25          6           0       -3.195108    0.528584    0.172406
     26          6           0       -3.591789    1.921577    0.662507
     27          6           0       -2.398160    2.870295    0.776424
     28          1           0       -2.451821    0.103175    0.860844
     29          1           0       -2.701064    0.617566   -0.804809
     30          1           0       -4.085117    1.829250    1.638581
     31          1           0       -4.335135    2.343669   -0.025890
     32          1           0       -1.908687    2.991999   -0.195278
     33          1           0       -1.657248    2.474657    1.478650
     34          1           0       -2.704398    3.860338    1.128406
 ---------------------------------------------------------------------

 SCF Done:  E(RHF) =  -669.535217748     A.U. after   15 cycles
 E2 =    -0.2092528772D+01 EUMP2 =    -0.67162774652083D+03

 The electronic state is 1-A.
 Alpha  occ. eigenvalues --  -20.60667 -20.60662 -15.85718 -11.31050 -11.27618
 Alpha  occ. eigenvalues --  -11.27593 -11.27314 -11.26626 -11.26503 -11.22706
 Alpha  occ. eigenvalues --  -11.22628 -11.22344 -11.22328 -11.22253 -11.21618
 Alpha  occ. eigenvalues --   -1.59744  -1.39298  -1.19210  -1.09452  -1.08607
 Alpha  occ. eigenvalues --   -1.04612  -1.04457  -0.96942  -0.95453  -0.87954
 Alpha  occ. eigenvalues --   -0.86011  -0.82288  -0.80565  -0.79295  -0.77328
 Alpha  occ. eigenvalues --   -0.71937  -0.71066  -0.70328  -0.66068  -0.64857
 Alpha  occ. eigenvalues --   -0.64617  -0.61986  -0.61840  -0.60293  -0.58561
 Alpha  occ. eigenvalues --   -0.56253  -0.55121  -0.53586  -0.53388  -0.52931
 Alpha  occ. eigenvalues --   -0.52673  -0.50873  -0.48857  -0.48696  -0.48676
 Alpha  occ. eigenvalues --   -0.47585  -0.46740  -0.46690  -0.44737  -0.44711
 Alpha  occ. eigenvalues --   -0.37183  -0.36209
 Alpha virt. eigenvalues --    0.05184   0.11371   0.16678   0.19625   0.22401
 Alpha virt. eigenvalues --    0.23752   0.24301   0.25707   0.26379   0.28322
 Alpha virt. eigenvalues --    0.29068   0.30131   0.30811   0.31428   0.31863

 Mulliken charges:
               1
     1  C   -0.176104
     2  C   -0.228879
     3  C   -0.174386
     4  C    0.158812
     5  C   -0.171474
     6  C   -0.218952
     7  H    0.228659
     8  H    0.239421
     9  H    0.275063
    10  H    0.274935
    11  H    0.222862
    12  N    0.488059
    13  O   -0.460938
    14  O   -0.460891
    15  C   -0.296933
    16  C   -0.301294
    17  C   -0.476348
    18  H    0.153220
    19  H    0.152601
    20  H    0.151381
    21  H    0.152411
    22  H    0.156379
    23  H    0.156868
    24  H    0.163428
    25  C   -0.307621
    26  C   -0.298836
    27  C   -0.482004
    28  H    0.147246
    29  H    0.147359
    30  H    0.157310
    31  H    0.155913
    32  H    0.147119
    33  H    0.158542
    34  H    0.167073
 Sum of Mulliken charges =  -0.00000

 Dipole moment (field-independent basis, Debye):
    X=             -3.8867    Y=              3.5928    Z=             -1.3045  Tot=              5.4512
 Quadrupole moment (field-independent basis, Debye-Ang):
   XX=           -113.7932   YY=            -95.1413   ZZ=            -93.9210
   XY=             13.9076   XZ=             -5.7235   YZ=             -1.1672

 Normal termination of Gaussian 16 at Wed May  5 22:08:32 2021.
