 Gaussian 16, Revision A.03,
 Gaussian 16:  EM64L-G16RevA.03 25-Dec-2016

 -------------
 #p 6-31g* mp2
 -------------

 ------------------------------------------------------
 Input file generated by CHIRIPA (05-May-2021 14:53:18)
 ------------------------------------------------------
 Symbolic Z-matrix:
 Charge =  0 Multiplicity = 1

                         Standard orientation:
 ---------------------------------------------------------------------
 Center     Atomic      Atomic             Coordinates (Angstroms)
 Number     Number       Type             X           Y           Z
 ---------------------------------------------------------------------
      1          6           0        4.491895   -0.010606    0.467672
      2          6           0        4.964908    0.975754   -0.600662
      3          6           0        6.426257    1.387435   -0.419628
      4          1           0        4.626876    0.440943    1.460057
      5          1           0        5.131407   -0.903753    0.441057
      6          1           0        4.323830    1.866185   -0.572965
      7          1           0        4.828608    0.521878   -1.590629
      8          1           0        7.081989    0.512099   -0.468643
      9          1           0        6.574343    1.864043    0.554803
     10          1           0        6.743527    2.092791   -1.194014
     11          6           0        3.032979   -0.431580    0.300119
     12          6           0        2.559966   -1.417940    1.368453
     13          6           0        1.098618   -1.829621    1.187419
     14          1           0        2.393467    0.461567    0.326735
     15          1           0        2.897999   -0.883129   -0.692266
     16          1           0        2.696267   -0.964064    2.358420
     17          1           0        3.201045   -2.308371    1.340757
     18          1           0        0.950532   -2.306229    0.212988
     19          1           0        0.442886   -0.954285    1.236434
     20          1           0        0.781348   -2.534977    1.961805
     21          6           0       -4.945472    1.100367    0.917087
     22          6           0       -3.764199    1.845940    0.844726
     23          6           0       -2.646476    1.341888    0.173030
     24          6           0       -2.745465    0.083048   -0.417574
     25          6           0       -3.908280   -0.683861   -0.362794
     26          6           0       -5.013622   -0.159933    0.314159
     27          1           0       -5.808937    1.499647    1.440919
     28          1           0       -3.708398    2.824999    1.312034
     29          1           0       -1.719519    1.897842    0.101732
     30          1           0       -3.933608   -1.656743   -0.838481
     31          1           0       -5.929709   -0.741181    0.368754
     32          7           0       -1.568736   -0.461090   -1.131452
     33          8           0       -1.681524   -1.572740   -1.643458
     34          8           0       -0.555908    0.234368   -1.165465
 ---------------------------------------------------------------------

 SCF Done:  E(RHF) =  -669.535961700     A.U. after   15 cycles
 E2 =    -0.2092179504D+01 EUMP2 =    -0.67162814120431D+03

 The electronic state is 1-A.
 Alpha  occ. eigenvalues --  -20.60912 -20.60901 -15.85909 -11.31265 -11.27833
 Alpha  occ. eigenvalues --  -11.27821 -11.27567 -11.26841 -11.26830 -11.20819
 Alpha  occ. eigenvalues --  -11.20590 -11.20495 -11.20462 -11.20143 -11.19872
 Alpha  occ. eigenvalues --   -1.59950  -1.39510  -1.19432  -1.08832  -1.07451
 Alpha  occ. eigenvalues --   -1.04832  -1.02604  -0.95672  -0.95044  -0.86232
 Alpha  occ. eigenvalues --   -0.86065  -0.82509  -0.78696  -0.77564  -0.77207
 Alpha  occ. eigenvalues --   -0.72146  -0.71259  -0.70542  -0.65089  -0.64837
 Alpha  occ. eigenvalues --   -0.64095  -0.62181  -0.60017  -0.58424  -0.56643
 Alpha  occ. eigenvalues --   -0.55336  -0.54334  -0.53161  -0.52925  -0.51787
 Alpha  occ. eigenvalues --   -0.51446  -0.49036  -0.48912  -0.48881  -0.46992
 Alpha  occ. eigenvalues --   -0.45781  -0.45061  -0.44698  -0.44451  -0.42843
 Alpha  occ. eigenvalues --   -0.37408  -0.36433
 Alpha virt. eigenvalues --    0.04947   0.11204   0.16405   0.21322   0.23777
 Alpha virt. eigenvalues --    0.25224   0.27177   0.27558   0.28064   0.28661
 Alpha virt. eigenvalues --    0.28834   0.30909   0.31950   0.32557   0.32720

 Mulliken charges:
               1
     1  C   -0.298335
     2  C   -0.298509
     3  C   -0.475108
     4  H    0.144985
     5  H    0.146861
     6  H    0.151190
     7  H    0.154025
     8  H    0.154079
     9  H    0.152789
    10  H    0.158244
    11  C   -0.296648
    12  C   -0.299829
    13  C   -0.476663
    14  H    0.154547
    15  H    0.158062
    16  H    0.145109
    17  H    0.148461
    18  H    0.170079
    19  H    0.150782
    20  H    0.150613
    21  C   -0.170632
    22  C   -0.218423
    23  C   -0.171614
    24  C    0.158806
    25  C   -0.170571
    26  C   -0.218511
    27  H    0.225883
    28  H    0.223659
    29  H    0.275276
    30  H    0.275886
    31  H    0.223759
    32  N    0.489962
    33  O   -0.459413
    34  O   -0.458800
 Sum of Mulliken charges =  -0.00000

 Dipole moment (field-independent basis, Debye):
    X=             -4.3930    Y=              1.9172    Z=              2.3024  Tot=              5.3174
 Quadrupole moment (field-independent basis, Debye-Ang):
   XX=            -73.0439   YY=            -90.9288   ZZ=            -97.4488
   XY=             -3.9841   XZ=             -5.3182   YZ=              1.3513

 Normal termination of Gaussian 16 at Wed May  5 18:50:39 2021.
