 Gaussian 16, Revision A.03,
 Gaussian 16:  EM64L-G16RevA.03 25-Dec-2016

 -------------
 #p 6-31g* mp2
 -------------

 ------------------------------------------------------
 Input file generated by CHIRIPA (05-May-2021 14:55:20)
 ------------------------------------------------------
 Symbolic Z-matrix:
 Charge =  0 Multiplicity = 1

                         Standard orientation:
 ---------------------------------------------------------------------
 Center     Atomic      Atomic             Coordinates (Angstroms)
 Number     Number       Type             X           Y           Z
 ---------------------------------------------------------------------
      1          6           0       -2.934609   -0.877219   -2.169103
      2          6           0       -2.470610    0.415612   -1.904878
      3          6           0       -2.086113    0.781459   -0.611485
      4          6           0       -2.178942   -0.174985    0.398410
      5          6           0       -2.637178   -1.470999    0.166768
      6          6           0       -3.016268   -1.814745   -1.134261
      7          1           0       -3.231196   -1.152834   -3.176807
      8          1           0       -2.406132    1.145775   -2.706594
      9          1           0       -1.723320    1.775324   -0.379037
     10          1           0       -2.690275   -2.177067    0.986565
     11          1           0       -3.376240   -2.819508   -1.336538
     12          7           0       -1.774754    0.200623    1.771710
     13          8           0       -1.865973   -0.660406    2.644031
     14          8           0       -1.374385    1.348941    1.949776
     15          6           0        2.919104   -0.424329    0.007999
     16          6           0        4.271574   -1.071663   -0.291616
     17          6           0        4.345745   -2.527121    0.170916
     18          1           0        2.725494   -0.477633    1.088100
     19          1           0        2.125567   -1.006293   -0.480889
     20          1           0        5.062450   -0.487858    0.196547
     21          1           0        4.462074   -1.016641   -1.371106
     22          1           0        3.577487   -3.128732   -0.325517
     23          1           0        4.181274   -2.596945    1.251044
     24          1           0        5.321051   -2.970355   -0.053097
     25          6           0        2.829521    1.030766   -0.448509
     26          6           0        1.477051    1.678100   -0.148894
     27          6           0        1.402880    3.133558   -0.611426
     28          1           0        3.623058    1.612730    0.040380
     29          1           0        3.023129    1.084071   -1.528610
     30          1           0        1.286551    1.623078    0.930597
     31          1           0        0.686175    1.094296   -0.637057
     32          1           0        1.567351    3.203382   -1.691553
     33          1           0        2.171138    3.735169   -0.114993
     34          1           0        0.427574    3.576793   -0.387412
 ---------------------------------------------------------------------

 SCF Done:  E(RHF) =  -669.534865274     A.U. after   15 cycles
 E2 =    -0.2093912050D+01 EUMP2 =    -0.67162877732430D+03

 The electronic state is 1-A.
 Alpha  occ. eigenvalues --  -20.60875 -20.60856 -15.85892 -11.31223 -11.27814
 Alpha  occ. eigenvalues --  -11.27784 -11.27556 -11.26811 -11.26801 -11.21393
 Alpha  occ. eigenvalues --  -11.21123 -11.21089 -11.21037 -11.20924 -11.20888
 Alpha  occ. eigenvalues --   -1.59924  -1.39481  -1.19418  -1.08810  -1.08146
 Alpha  occ. eigenvalues --   -1.04823  -1.03275  -0.95778  -0.95634  -0.86773
 Alpha  occ. eigenvalues --   -0.86216  -0.82488  -0.79353  -0.78014  -0.77476
 Alpha  occ. eigenvalues --   -0.72124  -0.71229  -0.70536  -0.65071  -0.64879
 Alpha  occ. eigenvalues --   -0.64726  -0.62201  -0.60668  -0.59109  -0.57358
 Alpha  occ. eigenvalues --   -0.55319  -0.55048  -0.53174  -0.52904  -0.52449
 Alpha  occ. eigenvalues --   -0.52171  -0.49693  -0.48897  -0.48878  -0.47686
 Alpha  occ. eigenvalues --   -0.46359  -0.45628  -0.45435  -0.44644  -0.43520
 Alpha  occ. eigenvalues --   -0.37376  -0.36354
 Alpha virt. eigenvalues --    0.04958   0.11193   0.16428   0.20819   0.23163
 Alpha virt. eigenvalues --    0.24047   0.26492   0.26989   0.27695   0.27888
 Alpha virt. eigenvalues --    0.29319   0.30288   0.31542   0.31676   0.32215

 Mulliken charges:
               1
     1  C   -0.170247
     2  C   -0.221160
     3  C   -0.173051
     4  C    0.159536
     5  C   -0.170394
     6  C   -0.219004
     7  H    0.225848
     8  H    0.224239
     9  H    0.282342
    10  H    0.275781
    11  H    0.223599
    12  N    0.488414
    13  O   -0.459712
    14  O   -0.459597
    15  C   -0.299425
    16  C   -0.299228
    17  C   -0.475580
    18  H    0.155063
    19  H    0.146476
    20  H    0.152544
    21  H    0.149735
    22  H    0.153120
    23  H    0.157471
    24  H    0.159180
    25  C   -0.297100
    26  C   -0.311001
    27  C   -0.478346
    28  H    0.149953
    29  H    0.144981
    30  H    0.173988
    31  H    0.145483
    32  H    0.149288
    33  H    0.159016
    34  H    0.157788
 Sum of Mulliken charges =  -0.00000

 Dipole moment (field-independent basis, Debye):
    X=             -1.5074    Y=             -1.3285    Z=             -4.6499  Tot=              5.0654
 Quadrupole moment (field-independent basis, Debye-Ang):
   XX=            -89.1156   YY=            -91.3301   ZZ=            -97.9722
   XY=              4.8408   XZ=             10.3885   YZ=             -0.4986

 Normal termination of Gaussian 16 at Thu May  6 15:46:22 2021.
