 Gaussian 16, Revision A.03,
 Gaussian 16:  EM64L-G16RevA.03 25-Dec-2016

 -------------
 #p 6-31g* mp2
 -------------

 ------------------------------------------------------
 Input file generated by CHIRIPA (05-May-2021 14:55:20)
 ------------------------------------------------------
 Symbolic Z-matrix:
 Charge =  0 Multiplicity = 1

                         Standard orientation:
 ---------------------------------------------------------------------
 Center     Atomic      Atomic             Coordinates (Angstroms)
 Number     Number       Type             X           Y           Z
 ---------------------------------------------------------------------
      1          6           0        2.425036    2.629139    0.195381
      2          6           0        3.071397    1.699469    1.016632
      3          6           0        3.036918    0.335989    0.709578
      4          6           0        2.343713   -0.064669   -0.431575
      5          6           0        1.689833    0.837280   -1.269560
      6          6           0        1.737530    2.195841   -0.943087
      7          1           0        2.456954    3.686412    0.441450
      8          1           0        3.606084    2.033102    1.901416
      9          1           0        3.528577   -0.405175    1.327934
     10          1           0        1.164846    0.474441   -2.144862
     11          1           0        1.234643    2.915587   -1.582708
     12          7           0        2.300216   -1.505520   -0.766919
     13          8           0        1.682735   -1.832956   -1.777928
     14          8           0        2.884426   -2.280142   -0.012401
     15          6           0       -2.429781   -0.070183    0.956000
     16          6           0       -1.396380   -1.194836    1.028277
     17          6           0       -0.243486   -0.877954    1.981279
     18          1           0       -1.932559    0.856091    0.637048
     19          1           0       -2.826680    0.118908    1.963030
     20          1           0       -1.002557   -1.382691    0.021187
     21          1           0       -1.896156   -2.118586    1.346909
     22          1           0       -0.617663   -0.711173    2.996552
     23          1           0        0.281013    0.028903    1.663297
     24          1           0        0.483528   -1.695260    2.017643
     25          6           0       -3.588477   -0.372186    0.007345
     26          6           0       -4.621879    0.752467   -0.064932
     27          6           0       -5.774772    0.435584   -1.017934
     28          1           0       -3.191579   -0.561278   -0.999685
     29          1           0       -4.085700   -1.298460    0.326297
     30          1           0       -4.122102    1.676216   -0.383564
     31          1           0       -5.015701    0.940321    0.942159
     32          1           0       -6.299271   -0.471272   -0.699952
     33          1           0       -5.400595    0.268804   -2.033207
     34          1           0       -6.501786    1.252890   -1.054298
 ---------------------------------------------------------------------

 SCF Done:  E(RHF) =  -669.535212892     A.U. after   15 cycles
 E2 =    -0.2094383228D+01 EUMP2 =    -0.67162959611958D+03

 The electronic state is 1-A.
 Alpha  occ. eigenvalues --  -20.60911 -20.60905 -15.85924 -11.31216 -11.27844
 Alpha  occ. eigenvalues --  -11.27792 -11.27596 -11.26866 -11.26836 -11.21583
 Alpha  occ. eigenvalues --  -11.21282 -11.21245 -11.21197 -11.21044 -11.20699
 Alpha  occ. eigenvalues --   -1.59958  -1.39517  -1.19449  -1.08844  -1.08280
 Alpha  occ. eigenvalues --   -1.04845  -1.03368  -0.95839  -0.95675  -0.86858
 Alpha  occ. eigenvalues --   -0.86233  -0.82515  -0.79433  -0.78083  -0.77565
 Alpha  occ. eigenvalues --   -0.72156  -0.71288  -0.70552  -0.65095  -0.64923
 Alpha  occ. eigenvalues --   -0.64843  -0.62188  -0.60805  -0.59182  -0.57425
 Alpha  occ. eigenvalues --   -0.55362  -0.55284  -0.53185  -0.52931  -0.52498
 Alpha  occ. eigenvalues --   -0.52166  -0.49724  -0.48920  -0.48911  -0.47733
 Alpha  occ. eigenvalues --   -0.46475  -0.45632  -0.45578  -0.44849  -0.43596
 Alpha  occ. eigenvalues --   -0.37379  -0.36423
 Alpha virt. eigenvalues --    0.04935   0.11167   0.16425   0.21281   0.22894
 Alpha virt. eigenvalues --    0.24315   0.26645   0.27211   0.27476   0.28162
 Alpha virt. eigenvalues --    0.28351   0.30772   0.31274   0.31727   0.32154

 Mulliken charges:
               1
     1  C   -0.170992
     2  C   -0.217889
     3  C   -0.170764
     4  C    0.161823
     5  C   -0.172372
     6  C   -0.218866
     7  H    0.226244
     8  H    0.224189
     9  H    0.275932
    10  H    0.275595
    11  H    0.223859
    12  N    0.489995
    13  O   -0.460174
    14  O   -0.459507
    15  C   -0.297632
    16  C   -0.302733
    17  C   -0.490904
    18  H    0.144905
    19  H    0.148142
    20  H    0.158046
    21  H    0.154315
    22  H    0.152508
    23  H    0.157908
    24  H    0.168745
    25  C   -0.298429
    26  C   -0.298923
    27  C   -0.475552
    28  H    0.150661
    29  H    0.151343
    30  H    0.148278
    31  H    0.151539
    32  H    0.156346
    33  H    0.155258
    34  H    0.159107
 Sum of Mulliken charges =  -0.00000

 Dipole moment (field-independent basis, Debye):
    X=              0.2820    Y=              5.0054    Z=              1.1472  Tot=              5.1429
 Quadrupole moment (field-independent basis, Debye-Ang):
   XX=            -93.6230   YY=            -95.4917   ZZ=            -92.7623
   XY=             11.7394   XZ=              4.4787   YZ=             -3.6108

 Normal termination of Gaussian 16 at Thu May  6 01:23:36 2021.
