 Gaussian 16, Revision A.03,
 Gaussian 16:  EM64L-G16RevA.03 25-Dec-2016

 -------------
 #p 6-31g* mp2
 -------------

 ------------------------------------------------------
 Input file generated by CHIRIPA (05-May-2021 14:51:13)
 ------------------------------------------------------
 Symbolic Z-matrix:
 Charge =  0 Multiplicity = 1

                         Standard orientation:
 ---------------------------------------------------------------------
 Center     Atomic      Atomic             Coordinates (Angstroms)
 Number     Number       Type             X           Y           Z
 ---------------------------------------------------------------------
      1          6           0        2.526337    1.586672    0.150504
      2          6           0        1.147837    1.909960   -0.426739
      3          6           0        0.661179    3.308807   -0.047021
      4          1           0        2.489577    1.679227    1.244592
      5          1           0        3.248780    2.335605   -0.202440
      6          1           0        0.428489    1.159843   -0.073924
      7          1           0        1.187833    1.816438   -1.519565
      8          1           0        1.356543    4.071137   -0.412974
      9          1           0        0.592885    3.410811    1.040881
     10          1           0       -0.326072    3.519007   -0.470119
     11          6           0        3.026464    0.191668   -0.220393
     12          6           0        4.404964   -0.131619    0.356850
     13          6           0        4.891622   -1.530466   -0.022867
     14          1           0        2.304021   -0.557265    0.132551
     15          1           0        3.063224    0.099114   -1.314480
     16          1           0        4.364968   -0.038098    1.449677
     17          1           0        5.124312    0.618498    0.004035
     18          1           0        4.959916   -1.632471   -1.110770
     19          1           0        4.196258   -2.292797    0.343085
     20          1           0        5.878873   -1.740666    0.400230
     21          6           0       -2.115622   -1.156586    0.309341
     22          6           0       -1.606695   -2.392694   -0.432963
     23          6           0       -0.283882   -2.915921    0.127566
     24          1           0       -1.354871   -0.365773    0.256259
     25          1           0       -2.238440   -1.401233    1.373511
     26          1           0       -1.486192   -2.146184   -1.495661
     27          1           0       -2.368825   -3.180591   -0.378272
     28          1           0       -0.393488   -3.189097    1.182062
     29          1           0        0.494161   -2.148812    0.058325
     30          1           0        0.061620   -3.799753   -0.417714
     31          6           0       -3.437179   -0.621754   -0.239452
     32          6           0       -3.946106    0.614353    0.502852
     33          6           0       -5.268919    1.137581   -0.057678
     34          1           0       -3.314361   -0.377107   -1.303623
     35          1           0       -4.197930   -1.412567   -0.186371
     36          1           0       -3.183976    1.402251    0.448160
     37          1           0       -4.066609    0.367843    1.565549
     38          1           0       -6.046962    0.370472    0.011564
     39          1           0       -5.159314    1.410756   -1.112174
     40          1           0       -5.614422    2.021413    0.487602
 ---------------------------------------------------------------------

 SCF Done:  E(RHF) =  -470.732977126     A.U. after   11 cycles
 E2 =    -0.1584187964D+01 EUMP2 =    -0.47231716508994D+03

 The electronic state is 1-A.
 Alpha  occ. eigenvalues --  -11.21657 -11.21614 -11.21604 -11.21604 -11.21441
 Alpha  occ. eigenvalues --  -11.21406 -11.21381 -11.21346 -11.21129 -11.21072
 Alpha  occ. eigenvalues --  -11.21070 -11.21060  -1.08483  -1.08426  -1.03564
 Alpha  occ. eigenvalues --   -1.03534  -0.96022  -0.95975  -0.87047  -0.86984
 Alpha  occ. eigenvalues --   -0.79638  -0.79602  -0.78381  -0.78166  -0.65257
 Alpha  occ. eigenvalues --   -0.64933  -0.60971  -0.60930  -0.59385  -0.59351
 Alpha  occ. eigenvalues --   -0.57687  -0.57546  -0.55416  -0.55168  -0.52706
 Alpha  occ. eigenvalues --   -0.52675  -0.52521  -0.52339  -0.50098  -0.49797
 Alpha  occ. eigenvalues --   -0.47979  -0.47927  -0.46858  -0.46659  -0.46091
 Alpha  occ. eigenvalues --   -0.45793  -0.45747  -0.45110  -0.43816  -0.43787
 Alpha virt. eigenvalues --    0.20216   0.22658   0.23684   0.24214   0.25423
 Alpha virt. eigenvalues --    0.26879   0.27112   0.27188   0.28039   0.29469
 Alpha virt. eigenvalues --    0.30864   0.31587   0.31707   0.31878   0.32060

 Mulliken charges:
               1
     1  C   -0.296895
     2  C   -0.310209
     3  C   -0.475401
     4  H    0.149813
     5  H    0.149869
     6  H    0.160144
     7  H    0.151894
     8  H    0.155684
     9  H    0.155610
    10  H    0.159930
    11  C   -0.307768
    12  C   -0.298991
    13  C   -0.476140
    14  H    0.158037
    15  H    0.149576
    16  H    0.152043
    17  H    0.152005
    18  H    0.155094
    19  H    0.156070
    20  H    0.160268
    21  C   -0.308780
    22  C   -0.298389
    23  C   -0.484206
    24  H    0.158920
    25  H    0.149323
    26  H    0.152250
    27  H    0.152019
    28  H    0.154839
    29  H    0.161978
    30  H    0.160734
    31  C   -0.297546
    32  C   -0.300183
    33  C   -0.475723
    34  H    0.149643
    35  H    0.149733
    36  H    0.152172
    37  H    0.151873
    38  H    0.155206
    39  H    0.155187
    40  H    0.160317
 Sum of Mulliken charges =  -0.00000

 Dipole moment (field-independent basis, Debye):
    X=              0.0174    Y=              0.0068    Z=              0.0001  Tot=              0.0187
 Quadrupole moment (field-independent basis, Debye-Ang):
   XX=            -85.4447   YY=            -85.4985   ZZ=            -83.7625
   XY=              1.4302   XZ=             -0.8725   YZ=             -0.7380

 Normal termination of Gaussian 16 at Thu May  6 07:08:21 2021.
