 Gaussian 16, Revision A.03,
 Gaussian 16:  EM64L-G16RevA.03 25-Dec-2016

 -------------
 #p 6-31g* mp2
 -------------

 ------------------------------------------------------
 Input file generated by CHIRIPA (05-May-2021 14:57:27)
 ------------------------------------------------------
 Symbolic Z-matrix:
 Charge =  0 Multiplicity = 1

                         Standard orientation:
 ---------------------------------------------------------------------
 Center     Atomic      Atomic             Coordinates (Angstroms)
 Number     Number       Type             X           Y           Z
 ---------------------------------------------------------------------
      1          6           0        2.701262    2.061468   -0.138133
      2          6           0        2.285463    0.768295    0.195533
      3          6           0        3.213290   -0.272994    0.292500
      4          6           0        4.555022    0.015703    0.048170
      5          6           0        5.000358    1.293643   -0.286249
      6          6           0        4.054996    2.319560   -0.377538
      7          1           0        1.973693    2.864396   -0.211254
      8          1           0        1.234785    0.564939    0.381995
      9          1           0        2.918801   -1.283374    0.549068
     10          1           0        6.054572    1.465607   -0.466464
     11          1           0        4.380785    3.322887   -0.636851
     12          7           0        5.546552   -1.078526    0.147818
     13          8           0        6.722839   -0.798221   -0.072215
     14          8           0        5.128652   -2.195769    0.444070
     15          6           0       -6.769552    0.608712    0.220565
     16          6           0       -5.706186    1.498857    0.403362
     17          6           0       -4.384602    1.063986    0.266066
     18          6           0       -4.161715   -0.273846   -0.056138
     19          6           0       -5.199864   -1.184912   -0.244541
     20          6           0       -6.513448   -0.727975   -0.102235
     21          1           0       -7.793083    0.955101    0.329167
     22          1           0       -5.902093    2.537506    0.654107
     23          1           0       -3.542576    1.731760    0.402043
     24          1           0       -4.973119   -2.214386   -0.493920
     25          1           0       -7.337302   -1.421511   -0.244778
     26          7           0       -2.766847   -0.745905   -0.204141
     27          8           0       -2.597039   -1.929522   -0.488490
     28          8           0       -1.869770    0.076650   -0.032993
 ---------------------------------------------------------------------

 SCF Done:  E(RHF) =  -868.340025119     A.U. after   16 cycles
 E2 =    -0.2598257885D+01 EUMP2 =    -0.87093828300351D+03

 The electronic state is 1-A.
 Alpha  occ. eigenvalues --  -20.61688 -20.61646 -20.59985 -20.59970 -15.86701
 Alpha  occ. eigenvalues --  -15.85023 -11.31835 -11.30244 -11.28400 -11.28349
 Alpha  occ. eigenvalues --  -11.28065 -11.27346 -11.27314 -11.26832 -11.26673
 Alpha  occ. eigenvalues --  -11.26478 -11.25862 -11.25535  -1.60723  -1.59058
 Alpha  occ. eigenvalues --   -1.40286  -1.38615  -1.19982  -1.18381  -1.09417
 Alpha  occ. eigenvalues --   -1.07809  -1.05352  -1.03735  -0.96293  -0.94675
 Alpha  occ. eigenvalues --   -0.86760  -0.85141  -0.83138  -0.81491  -0.78211
 Alpha  occ. eigenvalues --   -0.76555  -0.72937  -0.72022  -0.71247  -0.71087
 Alpha  occ. eigenvalues --   -0.70378  -0.69508  -0.65640  -0.65351  -0.64022
 Alpha  occ. eigenvalues --   -0.63692  -0.62704  -0.61058  -0.55855  -0.54269
 Alpha  occ. eigenvalues --   -0.53690  -0.53441  -0.52110  -0.51791  -0.49697
 Alpha  occ. eigenvalues --   -0.49647  -0.48010  -0.47987  -0.45739  -0.44053
 Alpha  occ. eigenvalues --   -0.37943  -0.36943  -0.36379  -0.35336
 Alpha virt. eigenvalues --    0.04317   0.05931   0.10715   0.12309   0.15859
 Alpha virt. eigenvalues --    0.17471   0.20862   0.22506   0.26796   0.27656
 Alpha virt. eigenvalues --    0.28570   0.29244   0.30460   0.31815   0.32165

 Mulliken charges:
               1
     1  C   -0.172896
     2  C   -0.226597
     3  C   -0.173210
     4  C    0.158200
     5  C   -0.173349
     6  C   -0.218679
     7  H    0.222957
     8  H    0.248327
     9  H    0.277772
    10  H    0.272074
    11  H    0.218974
    12  N    0.488029
    13  O   -0.463829
    14  O   -0.460601
    15  C   -0.169890
    16  C   -0.218341
    17  C   -0.170400
    18  C    0.157928
    19  C   -0.170018
    20  C   -0.218452
    21  H    0.227756
    22  H    0.224506
    23  H    0.272563
    24  H    0.277322
    25  H    0.225813
    26  N    0.492283
    27  O   -0.454988
    28  O   -0.473254
 Sum of Mulliken charges =  -0.00000

 Dipole moment (field-independent basis, Debye):
    X=             -9.0104    Y=              5.3785    Z=              0.1816  Tot=             10.4951
 Quadrupole moment (field-independent basis, Debye-Ang):
   XX=            -93.5332   YY=            -99.8970   ZZ=           -106.1400
   XY=             16.2124   XZ=             -4.1986   YZ=              0.2775

 Normal termination of Gaussian 16 at Thu May  6 22:57:20 2021.
