 Gaussian 16, Revision A.03,
 Gaussian 16:  EM64L-G16RevA.03 25-Dec-2016

 -------------
 #p 6-31g* mp2
 -------------

 ------------------------------------------------------
 Input file generated by CHIRIPA (05-May-2021 14:53:13)
 ------------------------------------------------------
 Symbolic Z-matrix:
 Charge =  0 Multiplicity = 1

                         Standard orientation:
 ---------------------------------------------------------------------
 Center     Atomic      Atomic             Coordinates (Angstroms)
 Number     Number       Type             X           Y           Z
 ---------------------------------------------------------------------
      1          6           0        2.978241    1.267061   -0.272037
      2          6           0        2.102860    2.165613    0.602203
      3          6           0        1.689497    3.456753   -0.104821
      4          1           0        3.875293    1.823649   -0.576097
      5          1           0        2.434173    1.022809   -1.194928
      6          1           0        2.647877    2.406966    1.523789
      7          1           0        1.207880    1.606758    0.904374
      8          1           0        1.123446    3.233364   -1.014922
      9          1           0        2.571625    4.038119   -0.391988
     10          1           0        1.064301    4.084106    0.538155
     11          6           0        3.399589   -0.027552    0.420908
     12          6           0        4.274970   -0.926104   -0.453332
     13          6           0        4.688333   -2.217244    0.253691
     14          1           0        3.943657    0.216699    1.343798
     15          1           0        2.502537   -0.584140    0.724968
     16          1           0        5.169950   -0.367249   -0.755504
     17          1           0        3.729953   -1.167457   -1.374918
     18          1           0        3.806205   -2.798610    0.540859
     19          1           0        5.254384   -1.993855    1.163792
     20          1           0        5.313529   -2.844597   -0.389285
     21          6           0       -4.407619    1.151542    0.076762
     22          6           0       -4.636646   -0.213276    0.280086
     23          6           0       -3.582402   -1.128634    0.207717
     24          6           0       -2.306081   -0.642319   -0.071196
     25          6           0       -2.045972    0.711428   -0.278562
     26          6           0       -3.115291    1.608732   -0.201422
     27          1           0       -5.232436    1.855602    0.134833
     28          1           0       -5.639244   -0.571185    0.496289
     29          1           0       -3.731539   -2.190572    0.360895
     30          1           0       -1.035562    1.038188   -0.492379
     31          1           0       -2.934472    2.668107   -0.359769
     32          7           0       -1.182020   -1.601811   -0.150334
     33          8           0       -0.066842   -1.148021   -0.397498
     34          8           0       -1.437445   -2.789483    0.036297
 ---------------------------------------------------------------------

 SCF Done:  E(RHF) =  -669.536439478     A.U. after   15 cycles
 E2 =    -0.2092393712D+01 EUMP2 =    -0.67162883318988D+03

 The electronic state is 1-A.
 Alpha  occ. eigenvalues --  -20.61042 -20.61029 -15.86062 -11.31326 -11.27882
 Alpha  occ. eigenvalues --  -11.27868 -11.27608 -11.26881 -11.26864 -11.21268
 Alpha  occ. eigenvalues --  -11.21136 -11.20631 -11.20510 -11.20179 -11.20010
 Alpha  occ. eigenvalues --   -1.60094  -1.39652  -1.19489  -1.08905  -1.07618
 Alpha  occ. eigenvalues --   -1.04875  -1.02857  -0.95757  -0.95309  -0.86341
 Alpha  occ. eigenvalues --   -0.86277  -0.82592  -0.78960  -0.77667  -0.77331
 Alpha  occ. eigenvalues --   -0.72301  -0.71402  -0.70601  -0.65157  -0.64893
 Alpha  occ. eigenvalues --   -0.64195  -0.62229  -0.60236  -0.58760  -0.56901
 Alpha  occ. eigenvalues --   -0.55385  -0.54586  -0.53210  -0.52961  -0.52088
 Alpha  occ. eigenvalues --   -0.51740  -0.49343  -0.49038  -0.48961  -0.47267
 Alpha  occ. eigenvalues --   -0.45985  -0.45257  -0.44898  -0.44520  -0.43041
 Alpha  occ. eigenvalues --   -0.37465  -0.36472
 Alpha virt. eigenvalues --    0.04826   0.11141   0.16335   0.19758   0.23018
 Alpha virt. eigenvalues --    0.24724   0.26916   0.27458   0.28328   0.28566
 Alpha virt. eigenvalues --    0.29451   0.30718   0.31497   0.32048   0.32545

 Mulliken charges:
               1
     1  C   -0.296112
     2  C   -0.303734
     3  C   -0.477285
     4  H    0.144860
     5  H    0.153828
     6  H    0.152112
     7  H    0.152833
     8  H    0.148189
     9  H    0.158270
    10  H    0.155095
    11  C   -0.305459
    12  C   -0.298547
    13  C   -0.477049
    14  H    0.141842
    15  H    0.173977
    16  H    0.145149
    17  H    0.157290
    18  H    0.163523
    19  H    0.150375
    20  H    0.156550
    21  C   -0.170304
    22  C   -0.218704
    23  C   -0.170188
    24  C    0.156949
    25  C   -0.175448
    26  C   -0.219910
    27  H    0.226211
    28  H    0.223929
    29  H    0.275784
    30  H    0.283019
    31  H    0.224967
    32  N    0.491531
    33  O   -0.465351
    34  O   -0.458192
 Sum of Mulliken charges =  -0.00000

 Dipole moment (field-independent basis, Debye):
    X=             -4.1788    Y=              3.1615    Z=              0.2707  Tot=              5.2470
 Quadrupole moment (field-independent basis, Debye-Ang):
   XX=            -75.0407   YY=            -97.6608   ZZ=            -95.5907
   XY=             -2.1232   XZ=             -1.0498   YZ=             -0.7751

 Normal termination of Gaussian 16 at Thu May  6 08:54:19 2021.
