 Gaussian 16, Revision A.03,
 Gaussian 16:  EM64L-G16RevA.03 25-Dec-2016

 -------------
 #p 6-31g* mp2
 -------------

 ------------------------------------------------------
 Input file generated by CHIRIPA (05-May-2021 14:53:14)
 ------------------------------------------------------
 Symbolic Z-matrix:
 Charge =  0 Multiplicity = 1

                         Standard orientation:
 ---------------------------------------------------------------------
 Center     Atomic      Atomic             Coordinates (Angstroms)
 Number     Number       Type             X           Y           Z
 ---------------------------------------------------------------------
      1          6           0        2.434440    1.421008   -0.252907
      2          6           0        1.261301    1.436641   -1.233461
      3          6           0        0.583241    2.804174   -1.322250
      4          1           0        2.076563    1.719699    0.741906
      5          1           0        3.170315    2.176905   -0.560319
      6          1           0        0.528505    0.679986   -0.925080
      7          1           0        1.621975    1.137693   -2.226014
      8          1           0        1.296030    3.566897   -1.652077
      9          1           0        0.196348    3.106589   -0.343751
     10          1           0       -0.252553    2.792754   -2.028775
     11          6           0        3.122524    0.060746   -0.153134
     12          6           0        4.295663    0.045114    0.827420
     13          6           0        4.973723   -1.322419    0.916209
     14          1           0        2.386649   -0.695150    0.154278
     15          1           0        3.480401   -0.237945   -1.147947
     16          1           0        3.934989    0.344062    1.819973
     17          1           0        5.028459    0.801769    0.519039
     18          1           0        5.360616   -1.624834   -0.062290
     19          1           0        4.260934   -2.085142    1.246036
     20          1           0        5.809517   -1.311000    1.622734
     21          6           0       -3.498918    1.142070    1.439352
     22          6           0       -2.374326    0.549424    2.022948
     23          6           0       -1.630883   -0.405233    1.322612
     24          6           0       -2.042281   -0.745179    0.034792
     25          6           0       -3.158045   -0.172534   -0.573843
     26          6           0       -3.886505    0.779839    0.145100
     27          1           0       -4.070623    1.882783    1.990618
     28          1           0       -2.070987    0.828799    3.027925
     29          1           0       -0.756119   -0.879768    1.750425
     30          1           0       -3.435833   -0.471450   -1.577287
     31          1           0       -4.759443    1.238448   -0.310642
     32          7           0       -1.263161   -1.754622   -0.716472
     33          8           0       -1.646368   -2.036874   -1.849664
     34          8           0       -0.284034   -2.244458   -0.157895
 ---------------------------------------------------------------------

 SCF Done:  E(RHF) =  -669.535856295     A.U. after   15 cycles
 E2 =    -0.2093365487D+01 EUMP2 =    -0.67162922178187D+03

 The electronic state is 1-A.
 Alpha  occ. eigenvalues --  -20.60953 -20.60945 -15.85969 -11.31296 -11.27870
 Alpha  occ. eigenvalues --  -11.27856 -11.27595 -11.26874 -11.26859 -11.21269
 Alpha  occ. eigenvalues --  -11.21141 -11.21031 -11.20923 -11.20685 -11.20549
 Alpha  occ. eigenvalues --   -1.60005  -1.39561  -1.19472  -1.08875  -1.07985
 Alpha  occ. eigenvalues --   -1.04866  -1.03144  -0.95714  -0.95585  -0.86605
 Alpha  occ. eigenvalues --   -0.86267  -0.82546  -0.79215  -0.77783  -0.77582
 Alpha  occ. eigenvalues --   -0.72196  -0.71333  -0.70575  -0.65129  -0.64870
 Alpha  occ. eigenvalues --   -0.64616  -0.62213  -0.60559  -0.58964  -0.57191
 Alpha  occ. eigenvalues --   -0.55366  -0.54887  -0.53180  -0.52957  -0.52310
 Alpha  occ. eigenvalues --   -0.52002  -0.49530  -0.48962  -0.48953  -0.47526
 Alpha  occ. eigenvalues --   -0.46272  -0.45479  -0.45306  -0.44670  -0.43372
 Alpha  occ. eigenvalues --   -0.37418  -0.36459
 Alpha virt. eigenvalues --    0.04890   0.11144   0.16365   0.21147   0.23050
 Alpha virt. eigenvalues --    0.24586   0.26414   0.27374   0.27619   0.28110
 Alpha virt. eigenvalues --    0.28723   0.31114   0.31583   0.31978   0.32235

 Mulliken charges:
               1
     1  C   -0.297243
     2  C   -0.300017
     3  C   -0.474601
     4  H    0.142692
     5  H    0.147860
     6  H    0.149778
     7  H    0.156219
     8  H    0.154644
     9  H    0.151141
    10  H    0.158399
    11  C   -0.305941
    12  C   -0.298783
    13  C   -0.475676
    14  H    0.165954
    15  H    0.151569
    16  H    0.146608
    17  H    0.149411
    18  H    0.156361
    19  H    0.159031
    20  H    0.156966
    21  C   -0.170369
    22  C   -0.218078
    23  C   -0.172296
    24  C    0.156128
    25  C   -0.171239
    26  C   -0.218036
    27  H    0.226174
    28  H    0.223908
    29  H    0.275442
    30  H    0.276034
    31  H    0.223997
    32  N    0.492162
    33  O   -0.457806
    34  O   -0.460395
 Sum of Mulliken charges =  -0.00000

 Dipole moment (field-independent basis, Debye):
    X=             -2.8809    Y=              3.3956    Z=              2.5749  Tot=              5.1439
 Quadrupole moment (field-independent basis, Debye-Ang):
   XX=            -82.1163   YY=           -101.8036   ZZ=            -91.2594
   XY=             -5.3389   XZ=             -3.6676   YZ=             -2.1846

 Normal termination of Gaussian 16 at Wed May  5 20:14:25 2021.
