 Gaussian 16, Revision A.03,
 Gaussian 16:  EM64L-G16RevA.03 25-Dec-2016

 -------------
 #p 6-31g* mp2
 -------------

 ------------------------------------------------------
 Input file generated by CHIRIPA (05-May-2021 14:51:11)
 ------------------------------------------------------
 Symbolic Z-matrix:
 Charge =  0 Multiplicity = 1

                         Standard orientation:
 ---------------------------------------------------------------------
 Center     Atomic      Atomic             Coordinates (Angstroms)
 Number     Number       Type             X           Y           Z
 ---------------------------------------------------------------------
      1          6           0       -3.184228    0.098229    0.222535
      2          6           0       -3.863827    0.195524   -1.143724
      3          6           0       -4.845205    1.364522   -1.233911
      4          1           0       -3.952768   -0.005489    1.000695
      5          1           0       -2.655309    1.038976    0.429018
      6          1           0       -4.390157   -0.745642   -1.348176
      7          1           0       -3.093570    0.298830   -1.918740
      8          1           0       -4.330513    2.314224   -1.055702
      9          1           0       -5.634466    1.263818   -0.481896
     10          1           0       -5.319608    1.415362   -2.218907
     11          6           0       -2.200250   -1.065535    0.328209
     12          6           0       -1.520651   -1.162829    1.694468
     13          6           0       -0.539272   -2.331827    1.784655
     14          1           0       -2.729168   -2.006282    0.121726
     15          1           0       -1.431709   -0.961817   -0.449951
     16          1           0       -2.290907   -1.266135    2.469484
     17          1           0       -0.994320   -0.221664    1.898920
     18          1           0        0.249989   -2.231124    1.032640
     19          1           0       -1.053964   -3.281530    1.606446
     20          1           0       -0.064869   -2.382667    2.769651
     21          6           0        2.940562    1.135398    0.036069
     22          6           0        1.834421    2.171966    0.235978
     23          6           0        2.346796    3.470410    0.859924
     24          1           0        3.409980    0.917890    1.005234
     25          1           0        3.725254    1.565158   -0.601865
     26          1           0        1.051391    1.739894    0.872212
     27          1           0        1.367453    2.386890   -0.733746
     28          1           0        3.112712    3.927039    0.224736
     29          1           0        2.794854    3.276367    1.839818
     30          1           0        1.539611    4.197295    0.993907
     31          6           0        2.443915   -0.168092   -0.586813
     32          6           0        3.550056   -1.204661   -0.786723
     33          6           0        3.037681   -2.503105   -1.410669
     34          1           0        1.659223   -0.597852    0.051120
     35          1           0        1.974497    0.049416   -1.555979
     36          1           0        4.017023   -1.419584    0.183001
     37          1           0        4.333087   -0.772588   -1.422956
     38          1           0        2.589623   -2.309062   -2.390563
     39          1           0        2.271765   -2.959733   -0.775481
     40          1           0        3.844866   -3.229989   -1.544651
 ---------------------------------------------------------------------

 SCF Done:  E(RHF) =  -470.733258246     A.U. after   11 cycles
 E2 =    -0.1583815184D+01 EUMP2 =    -0.47231707342939D+03

 The electronic state is 1-A.
 Alpha  occ. eigenvalues --  -11.21671 -11.21642 -11.21633 -11.21588 -11.21450
 Alpha  occ. eigenvalues --  -11.21393 -11.21390 -11.21333 -11.21119 -11.21113
 Alpha  occ. eigenvalues --  -11.21094 -11.21061  -1.08491  -1.08422  -1.03580
 Alpha  occ. eigenvalues --   -1.03540  -0.96023  -0.95991  -0.87041  -0.87008
 Alpha  occ. eigenvalues --   -0.79673  -0.79574  -0.78322  -0.78222  -0.65265
 Alpha  occ. eigenvalues --   -0.64933  -0.61045  -0.60883  -0.59412  -0.59340
 Alpha  occ. eigenvalues --   -0.57635  -0.57598  -0.55366  -0.55234  -0.52713
 Alpha  occ. eigenvalues --   -0.52690  -0.52448  -0.52422  -0.50029  -0.49903
 Alpha  occ. eigenvalues --   -0.48028  -0.47899  -0.46842  -0.46491  -0.46007
 Alpha  occ. eigenvalues --   -0.45795  -0.45688  -0.45435  -0.43829  -0.43791
 Alpha virt. eigenvalues --    0.19552   0.22542   0.23647   0.24137   0.25833
 Alpha virt. eigenvalues --    0.26454   0.26928   0.27623   0.28318   0.29489
 Alpha virt. eigenvalues --    0.30412   0.31486   0.31753   0.31814   0.32413

 Mulliken charges:
               1
     1  C   -0.298516
     2  C   -0.299649
     3  C   -0.475733
     4  H    0.149449
     5  H    0.149957
     6  H    0.151868
     7  H    0.152126
     8  H    0.155236
     9  H    0.155115
    10  H    0.160183
    11  C   -0.299521
    12  C   -0.301756
    13  C   -0.483739
    14  H    0.149505
    15  H    0.151649
    16  H    0.152449
    17  H    0.153145
    18  H    0.161487
    19  H    0.155992
    20  H    0.160159
    21  C   -0.297541
    22  C   -0.302220
    23  C   -0.475667
    24  H    0.149975
    25  H    0.149885
    26  H    0.153251
    27  H    0.151825
    28  H    0.155487
    29  H    0.155465
    30  H    0.160289
    31  C   -0.307490
    32  C   -0.299188
    33  C   -0.479063
    34  H    0.158024
    35  H    0.149284
    36  H    0.152239
    37  H    0.152170
    38  H    0.155184
    39  H    0.157964
    40  H    0.160722
 Sum of Mulliken charges =  -0.00000

 Dipole moment (field-independent basis, Debye):
    X=              0.0150    Y=             -0.0027    Z=             -0.0048  Tot=              0.0159
 Quadrupole moment (field-independent basis, Debye-Ang):
   XX=            -84.7233   YY=            -85.8871   ZZ=            -84.0626
   XY=              0.9188   XZ=             -0.6724   YZ=             -0.8108

 Normal termination of Gaussian 16 at Thu May  6 05:26:50 2021.
