 Gaussian 16, Revision A.03,
 Gaussian 16:  EM64L-G16RevA.03 25-Dec-2016

 -------------
 #p 6-31g* mp2
 -------------

 ------------------------------------------------------
 Input file generated by CHIRIPA (05-May-2021 14:57:21)
 ------------------------------------------------------
 Symbolic Z-matrix:
 Charge =  0 Multiplicity = 1

                         Standard orientation:
 ---------------------------------------------------------------------
 Center     Atomic      Atomic             Coordinates (Angstroms)
 Number     Number       Type             X           Y           Z
 ---------------------------------------------------------------------
      1          6           0       -2.463258   -1.921593    1.195020
      2          6           0       -1.794788   -0.804549    0.683277
      3          6           0       -2.502124    0.207187    0.027066
      4          6           0       -3.883415    0.068861   -0.100178
      5          6           0       -4.577980   -1.031962    0.398878
      6          6           0       -3.850276   -2.031541    1.051441
      7          1           0       -1.905871   -2.702812    1.703363
      8          1           0       -0.717670   -0.716500    0.793321
      9          1           0       -2.009809    1.082656   -0.378643
     10          1           0       -5.652318   -1.091683    0.273776
     11          1           0       -4.372059   -2.897931    1.447868
     12          7           0       -4.643021    1.133505   -0.792948
     13          8           0       -5.859423    0.987956   -0.892045
     14          8           0       -4.007616    2.093363   -1.223726
     15          6           0        3.411890    2.329304    1.128623
     16          6           0        4.592487    2.082887    0.420111
     17          6           0        4.795131    0.854991   -0.216879
     18          6           0        3.791704   -0.108277   -0.124463
     19          6           0        2.604617    0.107163    0.573891
     20          6           0        2.423465    1.342397    1.203121
     21          1           0        3.262819    3.286014    1.620438
     22          1           0        5.361833    2.847482    0.360573
     23          1           0        5.699553    0.637688   -0.772052
     24          1           0        1.855854   -0.674528    0.615511
     25          1           0        1.505596    1.530987    1.752662
     26          7           0        3.994858   -1.412079   -0.794708
     27          8           0        3.095505   -2.244252   -0.698321
     28          8           0        5.049595   -1.577138   -1.403742
 ---------------------------------------------------------------------

 SCF Done:  E(RHF) =  -868.337144657     A.U. after   16 cycles
 E2 =    -0.2599518653D+01 EUMP2 =    -0.87093666330993D+03

 The electronic state is 1-A.
 Alpha  occ. eigenvalues --  -20.61359 -20.61337 -20.60977 -20.60968 -15.86406
 Alpha  occ. eigenvalues --  -15.86033 -11.31828 -11.31428 -11.28514 -11.28330
 Alpha  occ. eigenvalues --  -11.28081 -11.28064 -11.27989 -11.27749 -11.27461
 Alpha  occ. eigenvalues --  -11.27336 -11.27136 -11.26978  -1.60421  -1.60050
 Alpha  occ. eigenvalues --   -1.39976  -1.39603  -1.19989  -1.19615  -1.09355
 Alpha  occ. eigenvalues --   -1.08996  -1.05420  -1.05039  -0.96194  -0.95822
 Alpha  occ. eigenvalues --   -0.86801  -0.86434  -0.83041  -0.82667  -0.78104
 Alpha  occ. eigenvalues --   -0.77710  -0.72624  -0.72250  -0.71742  -0.71374
 Alpha  occ. eigenvalues --   -0.71094  -0.70700  -0.65649  -0.65436  -0.65272
 Alpha  occ. eigenvalues --   -0.65065  -0.62844  -0.62330  -0.55869  -0.55502
 Alpha  occ. eigenvalues --   -0.53713  -0.53543  -0.53341  -0.53114  -0.49389
 Alpha  occ. eigenvalues --   -0.49371  -0.49012  -0.49002  -0.45371  -0.45003
 Alpha  occ. eigenvalues --   -0.37928  -0.37573  -0.37018  -0.36642
 Alpha virt. eigenvalues --    0.04460   0.04847   0.10641   0.11011   0.15938
 Alpha virt. eigenvalues --    0.16320   0.18024   0.22056   0.24458   0.27210
 Alpha virt. eigenvalues --    0.28080   0.29121   0.30175   0.31044   0.31941

 Mulliken charges:
               1
     1  C   -0.170724
     2  C   -0.219894
     3  C   -0.172452
     4  C    0.158903
     5  C   -0.170027
     6  C   -0.218502
     7  H    0.229213
     8  H    0.218620
     9  H    0.274445
    10  H    0.276740
    11  H    0.225364
    12  N    0.488202
    13  O   -0.459324
    14  O   -0.461088
    15  C   -0.169856
    16  C   -0.217873
    17  C   -0.169541
    18  C    0.162006
    19  C   -0.178805
    20  C   -0.219616
    21  H    0.229002
    22  H    0.226598
    23  H    0.277884
    24  H    0.271282
    25  H    0.221359
    26  N    0.488052
    27  O   -0.462924
    28  O   -0.457044
 Sum of Mulliken charges =  -0.00000

 Dipole moment (field-independent basis, Debye):
    X=              2.0620    Y=              0.8778    Z=              4.7774  Tot=              5.2769
 Quadrupole moment (field-independent basis, Debye-Ang):
   XX=           -122.0022   YY=           -105.1936   ZZ=           -106.7739
   XY=             37.2826   XZ=             -3.2640   YZ=             -1.2741

 Normal termination of Gaussian 16 at Thu May  6 03:19:16 2021.
