 Gaussian 16, Revision A.03,
 Gaussian 16:  EM64L-G16RevA.03 25-Dec-2016

 -------------
 #p 6-31g* mp2
 -------------

 ------------------------------------------------------
 Input file generated by CHIRIPA (05-May-2021 14:55:19)
 ------------------------------------------------------
 Symbolic Z-matrix:
 Charge =  0 Multiplicity = 1

                         Standard orientation:
 ---------------------------------------------------------------------
 Center     Atomic      Atomic             Coordinates (Angstroms)
 Number     Number       Type             X           Y           Z
 ---------------------------------------------------------------------
      1          6           0       -0.439525   -1.568392    0.247393
      2          6           0       -1.307741   -1.482454    1.340707
      3          6           0       -2.546295   -0.846170    1.215508
      4          6           0       -2.886051   -0.304437   -0.023193
      5          6           0       -2.042774   -0.373898   -1.131051
      6          6           0       -0.809161   -1.014816   -0.982828
      7          1           0        0.520694   -2.064473    0.353593
      8          1           0       -1.023315   -1.911461    2.297315
      9          1           0       -3.237629   -0.765378    2.045537
     10          1           0       -2.354100    0.063318   -2.071975
     11          1           0       -0.136904   -1.080062   -1.833627
     12          7           0       -4.194637    0.371621   -0.167923
     13          8           0       -4.470495    0.840818   -1.269919
     14          8           0       -4.919671    0.419519    0.823373
     15          6           0        3.473886    1.238522    0.284760
     16          6           0        2.341816    2.164329   -0.161652
     17          6           0        2.467339    3.573625    0.417936
     18          1           0        3.484633    1.185644    1.382045
     19          1           0        4.435973    1.675556   -0.016548
     20          1           0        1.382076    1.724997    0.139190
     21          1           0        2.333642    2.214856   -1.258007
     22          1           0        3.410037    4.035456    0.107080
     23          1           0        2.453064    3.542815    1.512216
     24          1           0        1.647854    4.218693    0.085986
     25          6           0        3.362287   -0.173921   -0.286449
     26          6           0        4.494358   -1.099728    0.159963
     27          6           0        4.368834   -2.509024   -0.419625
     28          1           0        2.400201   -0.610955    0.014859
     29          1           0        3.351540   -0.121044   -1.383733
     30          1           0        4.502531   -1.150255    1.256319
     31          1           0        5.454097   -0.660397   -0.140879
     32          1           0        4.383108   -2.478213   -1.513906
     33          1           0        3.426136   -2.970855   -0.108769
     34          1           0        5.188319   -3.154093   -0.087675
 ---------------------------------------------------------------------

 SCF Done:  E(RHF) =  -669.535396326     A.U. after   15 cycles
 E2 =    -0.2092448960D+01 EUMP2 =    -0.67162784528642D+03

 The electronic state is 1-A.
 Alpha  occ. eigenvalues --  -20.60784 -20.60778 -15.85837 -11.31219 -11.27783
 Alpha  occ. eigenvalues --  -11.27775 -11.27520 -11.26809 -11.26796 -11.22473
 Alpha  occ. eigenvalues --  -11.22302 -11.22078 -11.22072 -11.22009 -11.21413
 Alpha  occ. eigenvalues --   -1.59859  -1.39412  -1.19393  -1.09187  -1.08783
 Alpha  occ. eigenvalues --   -1.04792  -1.04218  -0.96685  -0.95620  -0.87696
 Alpha  occ. eigenvalues --   -0.86187  -0.82450  -0.80298  -0.78997  -0.77486
 Alpha  occ. eigenvalues --   -0.72055  -0.71182  -0.70529  -0.65824  -0.65040
 Alpha  occ. eigenvalues --   -0.64782  -0.62134  -0.61614  -0.60062  -0.58285
 Alpha  occ. eigenvalues --   -0.56015  -0.55302  -0.53356  -0.53144  -0.53079
 Alpha  occ. eigenvalues --   -0.52878  -0.50635  -0.48817  -0.48809  -0.48603
 Alpha  occ. eigenvalues --   -0.47336  -0.46516  -0.46424  -0.44814  -0.44482
 Alpha  occ. eigenvalues --   -0.37337  -0.36386
 Alpha virt. eigenvalues --    0.05003   0.11212   0.16387   0.19286   0.22750
 Alpha virt. eigenvalues --    0.23441   0.25211   0.26103   0.26944   0.27873
 Alpha virt. eigenvalues --    0.29063   0.30181   0.31034   0.31506   0.32278

 Mulliken charges:
               1
     1  C   -0.172907
     2  C   -0.220182
     3  C   -0.170943
     4  C    0.158656
     5  C   -0.171332
     6  C   -0.217584
     7  H    0.228694
     8  H    0.223654
     9  H    0.275686
    10  H    0.275861
    11  H    0.225602
    12  N    0.488050
    13  O   -0.460243
    14  O   -0.460340
    15  C   -0.297659
    16  C   -0.302885
    17  C   -0.476155
    18  H    0.150333
    19  H    0.151910
    20  H    0.155726
    21  H    0.150561
    22  H    0.155621
    23  H    0.155776
    24  H    0.163464
    25  C   -0.303455
    26  C   -0.300275
    27  C   -0.476065
    28  H    0.143942
    29  H    0.149065
    30  H    0.152805
    31  H    0.156294
    32  H    0.157002
    33  H    0.146300
    34  H    0.165023
 Sum of Mulliken charges =  -0.00000

 Dipole moment (field-independent basis, Debye):
    X=              4.6976    Y=             -2.2996    Z=              0.5093  Tot=              5.2550
 Quadrupole moment (field-independent basis, Debye-Ang):
   XX=           -121.0072   YY=            -94.7772   ZZ=            -89.6429
   XY=              5.9901   XZ=             -3.1419   YZ=             -1.7418

 Normal termination of Gaussian 16 at Wed May  5 22:06:47 2021.
