 Gaussian 16, Revision A.03,
 Gaussian 16:  EM64L-G16RevA.03 25-Dec-2016

 -------------
 #p 6-31g* mp2
 -------------

 ------------------------------------------------------
 Input file generated by CHIRIPA (05-May-2021 14:51:12)
 ------------------------------------------------------
 Symbolic Z-matrix:
 Charge =  0 Multiplicity = 1

                         Standard orientation:
 ---------------------------------------------------------------------
 Center     Atomic      Atomic             Coordinates (Angstroms)
 Number     Number       Type             X           Y           Z
 ---------------------------------------------------------------------
      1          6           0       -2.799487    0.984729    0.201429
      2          6           0       -2.370911    1.907903   -0.939649
      3          6           0       -2.759579    3.366710   -0.697545
      4          1           0       -3.887416    1.058453    0.335302
      5          1           0       -2.344798    1.335683    1.138170
      6          1           0       -2.825161    1.554500   -1.874196
      7          1           0       -1.283902    1.831828   -1.070947
      8          1           0       -2.294596    3.742126    0.219763
      9          1           0       -3.844612    3.463222   -0.588049
     10          1           0       -2.443677    4.009056   -1.525468
     11          6           0       -2.417950   -0.476924   -0.026011
     12          6           0       -2.846526   -1.400097    1.115067
     13          6           0       -2.457858   -2.858904    0.872963
     14          1           0       -2.872639   -0.827878   -0.962752
     15          1           0       -1.330022   -0.550647   -0.159884
     16          1           0       -3.933535   -1.324023    1.246365
     17          1           0       -2.392276   -1.046694    2.049614
     18          1           0       -1.372825   -2.955417    0.763467
     19          1           0       -2.922841   -3.234321   -0.044345
     20          1           0       -2.773761   -3.501250    1.700886
     21          6           0        2.480164    0.478416    0.087266
     22          6           0        3.740746    1.229413    0.517287
     23          6           0        3.467403    2.693244    0.864098
     24          1           0        2.036904    0.985721   -0.780552
     25          1           0        1.736428    0.532279    0.894329
     26          1           0        4.482395    1.172971   -0.289797
     27          1           0        4.181162    0.720151    1.384064
     28          1           0        2.746444    2.766577    1.684733
     29          1           0        3.049390    3.221969    0.001360
     30          1           0        4.382132    3.211190    1.168832
     31          6           0        2.737274   -0.986221   -0.262684
     32          6           0        1.476692   -1.737219   -0.692705
     33          6           0        1.750034   -3.201050   -1.039516
     34          1           0        3.481009   -1.040084   -1.069747
     35          1           0        3.180533   -1.493526    0.605134
     36          1           0        1.036275   -1.227957   -1.559482
     37          1           0        0.735042   -1.680776    0.114379
     38          1           0        2.168048   -3.729775   -0.176778
     39          1           0        2.470993   -3.274382   -1.860150
     40          1           0        0.835305   -3.718994   -1.344251
 ---------------------------------------------------------------------

 SCF Done:  E(RHF) =  -470.732794306     A.U. after   11 cycles
 E2 =    -0.1584153391D+01 EUMP2 =    -0.47231694769676D+03

 The electronic state is 1-A.
 Alpha  occ. eigenvalues --  -11.21668 -11.21660 -11.21562 -11.21550 -11.21491
 Alpha  occ. eigenvalues --  -11.21426 -11.21321 -11.21224 -11.21124 -11.21113
 Alpha  occ. eigenvalues --  -11.21042 -11.21031  -1.08519  -1.08360  -1.03609
 Alpha  occ. eigenvalues --   -1.03477  -0.96044  -0.95929  -0.87064  -0.86944
 Alpha  occ. eigenvalues --   -0.79728  -0.79514  -0.78441  -0.78062  -0.65209
 Alpha  occ. eigenvalues --   -0.64953  -0.61106  -0.60802  -0.59452  -0.59253
 Alpha  occ. eigenvalues --   -0.57668  -0.57526  -0.55360  -0.55195  -0.52735
 Alpha  occ. eigenvalues --   -0.52633  -0.52511  -0.52316  -0.49987  -0.49883
 Alpha  occ. eigenvalues --   -0.48148  -0.47802  -0.46843  -0.46504  -0.46232
 Alpha  occ. eigenvalues --   -0.45777  -0.45685  -0.45078  -0.43845  -0.43725
 Alpha virt. eigenvalues --    0.20723   0.22550   0.23504   0.24682   0.25267
 Alpha virt. eigenvalues --    0.26431   0.26809   0.27399   0.28743   0.30200
 Alpha virt. eigenvalues --    0.30904   0.31266   0.31684   0.31807   0.32122

 Mulliken charges:
               1
     1  C   -0.297294
     2  C   -0.300496
     3  C   -0.475598
     4  H    0.149176
     5  H    0.148809
     6  H    0.151539
     7  H    0.152810
     8  H    0.155276
     9  H    0.155038
    10  H    0.159895
    11  C   -0.307494
    12  C   -0.299174
    13  C   -0.480758
    14  H    0.148577
    15  H    0.160375
    16  H    0.151861
    17  H    0.150715
    18  H    0.159788
    19  H    0.155111
    20  H    0.160070
    21  C   -0.299771
    22  C   -0.299609
    23  C   -0.475797
    24  H    0.150137
    25  H    0.149063
    26  H    0.152327
    27  H    0.152211
    28  H    0.155053
    29  H    0.155382
    30  H    0.160586
    31  C   -0.297504
    32  C   -0.307583
    33  C   -0.476338
    34  H    0.149916
    35  H    0.149757
    36  H    0.153541
    37  H    0.157666
    38  H    0.155097
    39  H    0.155501
    40  H    0.162138
 Sum of Mulliken charges =  -0.00000

 Dipole moment (field-independent basis, Debye):
    X=              0.0692    Y=             -0.0192    Z=             -0.0212  Tot=              0.0749
 Quadrupole moment (field-independent basis, Debye-Ang):
   XX=            -84.0781   YY=            -87.0473   ZZ=            -83.6966
   XY=              0.4599   XZ=              0.2838   YZ=             -0.4672

 Normal termination of Gaussian 16 at Thu May  6 03:54:45 2021.
