 Gaussian 16, Revision A.03,
 Gaussian 16:  EM64L-G16RevA.03 25-Dec-2016

 -------------
 #p 6-31g* mp2
 -------------

 ------------------------------------------------------
 Input file generated by CHIRIPA (05-May-2021 14:51:11)
 ------------------------------------------------------
 Symbolic Z-matrix:
 Charge =  0 Multiplicity = 1

                         Standard orientation:
 ---------------------------------------------------------------------
 Center     Atomic      Atomic             Coordinates (Angstroms)
 Number     Number       Type             X           Y           Z
 ---------------------------------------------------------------------
      1          6           0       -2.001077   -1.041961    0.585065
      2          6           0       -0.918071   -2.024885    0.139036
      3          6           0        0.034540   -2.408853    1.271685
      4          1           0       -1.523680   -0.137792    0.986955
      5          1           0       -2.572735   -1.487106    1.411170
      6          1           0       -0.349515   -1.578581   -0.686902
      7          1           0       -1.398103   -2.926741   -0.262016
      8          1           0       -0.514584   -2.877748    2.094607
      9          1           0        0.539961   -1.521928    1.667307
     10          1           0        0.800697   -3.112188    0.930827
     11          6           0       -2.961162   -0.648591   -0.536195
     12          6           0       -4.044169    0.334333   -0.090165
     13          6           0       -4.996780    0.718300   -1.222815
     14          1           0       -2.389504   -0.203447   -1.362299
     15          1           0       -3.438560   -1.552760   -0.938084
     16          1           0       -3.564136    1.236188    0.310886
     17          1           0       -4.612724   -0.111972    0.735772
     18          1           0       -5.502201   -0.168624   -1.618436
     19          1           0       -4.447655    1.187196   -2.045736
     20          1           0       -5.762936    1.421635   -0.881957
     21          6           0        2.878484    0.507115   -0.582271
     22          6           0        4.155939   -0.173763   -0.089827
     23          6           0        4.940000   -0.845783   -1.217403
     24          1           0        2.242246   -0.237428   -1.080068
     25          1           0        3.139941    1.254371   -1.344271
     26          1           0        3.892281   -0.918541    0.672016
     27          1           0        4.789124    0.572450    0.407025
     28          1           0        5.231524   -0.111097   -1.974932
     29          1           0        4.329587   -1.610560   -1.708435
     30          1           0        5.849355   -1.326246   -0.843115
     31          6           0        2.083755    1.183437    0.533400
     32          6           0        0.806301    1.864315    0.040956
     33          6           0        0.022239    2.536336    1.168532
     34          1           0        1.822298    0.436182    1.295401
     35          1           0        2.719993    1.927980    1.031198
     36          1           0        0.173117    1.118103   -0.455895
     37          1           0        1.069958    2.609093   -0.720887
     38          1           0        0.632653    3.301112    1.659564
     39          1           0       -0.269285    1.801650    1.926061
     40          1           0       -0.887116    3.016799    0.794245
 ---------------------------------------------------------------------

 SCF Done:  E(RHF) =  -470.732328740     A.U. after   11 cycles
 E2 =    -0.1585872048D+01 EUMP2 =    -0.47231820078841D+03

 The electronic state is 1-A.
 Alpha  occ. eigenvalues --  -11.21671 -11.21664 -11.21610 -11.21603 -11.21446
 Alpha  occ. eigenvalues --  -11.21412 -11.21386 -11.21343 -11.21171 -11.21138
 Alpha  occ. eigenvalues --  -11.21079 -11.21073  -1.08548  -1.08398  -1.03616
 Alpha  occ. eigenvalues --   -1.03537  -0.96093  -0.95960  -0.87064  -0.87021
 Alpha  occ. eigenvalues --   -0.79662  -0.79620  -0.78346  -0.78223  -0.65669
 Alpha  occ. eigenvalues --   -0.64662  -0.61185  -0.60705  -0.59433  -0.59342
 Alpha  occ. eigenvalues --   -0.57690  -0.57589  -0.55725  -0.54951  -0.52738
 Alpha  occ. eigenvalues --   -0.52698  -0.52528  -0.52369  -0.50118  -0.49836
 Alpha  occ. eigenvalues --   -0.48066  -0.47871  -0.46822  -0.46622  -0.46007
 Alpha  occ. eigenvalues --   -0.45874  -0.45584  -0.45413  -0.43831  -0.43811
 Alpha virt. eigenvalues --    0.18645   0.22056   0.23449   0.24513   0.25332
 Alpha virt. eigenvalues --    0.25953   0.26753   0.28459   0.29121   0.29644
 Alpha virt. eigenvalues --    0.30462   0.31192   0.31485   0.32047   0.32200

 Mulliken charges:
               1
     1  C   -0.307543
     2  C   -0.302550
     3  C   -0.480905
     4  H    0.159743
     5  H    0.149993
     6  H    0.153264
     7  H    0.152673
     8  H    0.155881
     9  H    0.159176
    10  H    0.160239
    11  C   -0.299046
    12  C   -0.300801
    13  C   -0.475780
    14  H    0.149755
    15  H    0.149818
    16  H    0.153249
    17  H    0.151987
    18  H    0.155171
    19  H    0.155222
    20  H    0.160294
    21  C   -0.300383
    22  C   -0.300062
    23  C   -0.475786
    24  H    0.151567
    25  H    0.149652
    26  H    0.152896
    27  H    0.151935
    28  H    0.155105
    29  H    0.155229
    30  H    0.160378
    31  C   -0.303294
    32  C   -0.306373
    33  C   -0.478973
    34  H    0.154442
    35  H    0.150407
    36  H    0.157127
    37  H    0.152861
    38  H    0.156543
    39  H    0.156083
    40  H    0.160808
 Sum of Mulliken charges =  -0.00000

 Dipole moment (field-independent basis, Debye):
    X=              0.0081    Y=              0.0137    Z=              0.0144  Tot=              0.0215
 Quadrupole moment (field-independent basis, Debye-Ang):
   XX=            -85.1599   YY=            -83.8368   ZZ=            -85.7029
   XY=              1.5786   XZ=             -0.3045   YZ=             -0.4241

 Normal termination of Gaussian 16 at Thu May  6 02:14:58 2021.
