 Gaussian 16, Revision A.03,
 Gaussian 16:  EM64L-G16RevA.03 25-Dec-2016

 -------------
 #p 6-31g* mp2
 -------------

 ------------------------------------------------------
 Input file generated by CHIRIPA (05-May-2021 14:57:26)
 ------------------------------------------------------
 Symbolic Z-matrix:
 Charge =  0 Multiplicity = 1

                         Standard orientation:
 ---------------------------------------------------------------------
 Center     Atomic      Atomic             Coordinates (Angstroms)
 Number     Number       Type             X           Y           Z
 ---------------------------------------------------------------------
      1          6           0        4.292274    1.557238   -1.236008
      2          6           0        3.769550    1.899227    0.015520
      3          6           0        3.031026    0.970198    0.754462
      4          6           0        2.833560   -0.297459    0.209171
      5          6           0        3.341465   -0.668266   -1.034946
      6          6           0        4.076943    0.276840   -1.756329
      7          1           0        4.864795    2.285174   -1.803216
      8          1           0        3.935200    2.892858    0.422095
      9          1           0        2.614969    1.208418    1.725835
     10          1           0        3.159696   -1.666597   -1.414041
     11          1           0        4.481704    0.008464   -2.728023
     12          7           0        2.053330   -1.289491    0.982161
     13          8           0        1.893411   -2.399687    0.479640
     14          8           0        1.616478   -0.938064    2.075915
     15          6           0       -3.101145    2.593099    0.465259
     16          6           0       -3.948704    2.042031   -0.501432
     17          6           0       -3.880471    0.680760   -0.812609
     18          6           0       -2.948714   -0.103780   -0.134657
     19          6           0       -2.090667    0.415773    0.833387
     20          6           0       -2.176462    1.779645    1.128413
     21          1           0       -3.160971    3.651578    0.700716
     22          1           0       -4.667794    2.671373   -1.018040
     23          1           0       -4.524618    0.228122   -1.556658
     24          1           0       -1.384047   -0.236852    1.331573
     25          1           0       -1.516978    2.204883    1.879611
     26          7           0       -2.867182   -1.546274   -0.455538
     27          8           0       -2.037689   -2.216124    0.155918
     28          8           0       -3.634316   -1.979737   -1.312423
 ---------------------------------------------------------------------

 SCF Done:  E(RHF) =  -868.337473014     A.U. after   16 cycles
 E2 =    -0.2600016899D+01 EUMP2 =    -0.87093748991337D+03

 The electronic state is 1-A.
 Alpha  occ. eigenvalues --  -20.60874 -20.60750 -20.60065 -20.59990 -15.85846
 Alpha  occ. eigenvalues --  -15.85081 -11.31294 -11.30613 -11.27925 -11.27818
 Alpha  occ. eigenvalues --  -11.27622 -11.27269 -11.27091 -11.27061 -11.26935
 Alpha  occ. eigenvalues --  -11.26862 -11.26328 -11.26264  -1.59862  -1.59114
 Alpha  occ. eigenvalues --   -1.39419  -1.38654  -1.19471  -1.18826  -1.08849
 Alpha  occ. eigenvalues --   -1.08207  -1.04888  -1.04244  -0.95669  -0.94997
 Alpha  occ. eigenvalues --   -0.86282  -0.85641  -0.82503  -0.81814  -0.77543
 Alpha  occ. eigenvalues --   -0.76820  -0.72055  -0.71319  -0.71155  -0.70579
 Alpha  occ. eigenvalues --   -0.70452  -0.69928  -0.65124  -0.64890  -0.64472
 Alpha  occ. eigenvalues --   -0.64255  -0.62236  -0.61559  -0.55381  -0.54779
 Alpha  occ. eigenvalues --   -0.53210  -0.52981  -0.52592  -0.52330  -0.48833
 Alpha  occ. eigenvalues --   -0.48791  -0.48087  -0.48030  -0.44794  -0.44018
 Alpha  occ. eigenvalues --   -0.37453  -0.36857  -0.36495  -0.35865
 Alpha virt. eigenvalues --    0.04971   0.05693   0.11156   0.11774   0.16432
 Alpha virt. eigenvalues --    0.17133   0.21204   0.21941   0.27025   0.27605
 Alpha virt. eigenvalues --    0.28355   0.28896   0.30920   0.31383   0.32528

 Mulliken charges:
               1
     1  C   -0.170964
     2  C   -0.218357
     3  C   -0.172726
     4  C    0.158977
     5  C   -0.169933
     6  C   -0.218388
     7  H    0.225573
     8  H    0.221699
     9  H    0.270859
    10  H    0.279317
    11  H    0.224795
    12  N    0.487993
    13  O   -0.445451
    14  O   -0.469818
    15  C   -0.171667
    16  C   -0.219395
    17  C   -0.171516
    18  C    0.157535
    19  C   -0.179360
    20  C   -0.220906
    21  H    0.222080
    22  H    0.220716
    23  H    0.274017
    24  H    0.292031
    25  H    0.221662
    26  N    0.486138
    27  O   -0.449274
    28  O   -0.465635
 Sum of Mulliken charges =  -0.00000

 Dipole moment (field-independent basis, Debye):
    X=              2.6996    Y=              8.2316    Z=             -1.6324  Tot=              8.8155
 Quadrupole moment (field-independent basis, Debye-Ang):
   XX=            -86.5331   YY=           -106.5045   ZZ=           -102.3041
   XY=             -6.8460   XZ=             -8.8637   YZ=              3.0342

 Normal termination of Gaussian 16 at Thu May  6 01:59:35 2021.
