 Gaussian 16, Revision A.03,
 Gaussian 16:  EM64L-G16RevA.03 25-Dec-2016

 -------------
 #p 6-31g* mp2
 -------------

 ------------------------------------------------------
 Input file generated by CHIRIPA (05-May-2021 14:51:10)
 ------------------------------------------------------
 Symbolic Z-matrix:
 Charge =  0 Multiplicity = 1

                         Standard orientation:
 ---------------------------------------------------------------------
 Center     Atomic      Atomic             Coordinates (Angstroms)
 Number     Number       Type             X           Y           Z
 ---------------------------------------------------------------------
      1          6           0        2.675613    0.803525    0.163419
      2          6           0        3.722011    1.918433    0.159666
      3          6           0        3.287666    3.139557    0.970835
      4          1           0        1.730709    1.194839   -0.237798
      5          1           0        2.474000    0.502897    1.200901
      6          1           0        3.922607    2.215913   -0.877582
      7          1           0        4.664588    1.524367    0.560760
      8          1           0        3.106383    2.863972    2.014766
      9          1           0        2.360186    3.559447    0.568251
     10          1           0        4.050420    3.924289    0.954657
     11          6           0        3.095352   -0.423983   -0.643286
     12          6           0        2.048954   -1.538891   -0.639533
     13          6           0        2.483299   -2.760015   -1.450703
     14          1           0        3.296965   -0.123355   -1.680769
     15          1           0        4.040256   -0.815297   -0.242069
     16          1           0        1.106377   -1.144825   -1.040627
     17          1           0        1.848358   -1.836371    0.397715
     18          1           0        3.410779   -3.179905   -1.048119
     19          1           0        2.664582   -2.484429   -2.494633
     20          1           0        1.720545   -3.544747   -1.434524
     21          6           0       -3.251222    0.479724    0.277918
     22          6           0       -3.844610    0.923252   -1.059677
     23          6           0       -4.573118    2.264365   -0.967564
     24          1           0       -4.054961    0.411549    1.023772
     25          1           0       -2.556391    1.251598    0.636828
     26          1           0       -4.537066    0.150139   -1.416631
     27          1           0       -3.039393    0.990195   -1.802483
     28          1           0       -3.889364    3.052165   -0.635219
     29          1           0       -5.395547    2.207336   -0.247174
     30          1           0       -4.989472    2.562342   -1.934889
     31          6           0       -2.519743   -0.859267    0.201949
     32          6           0       -1.926355   -1.302794    1.539544
     33          6           0       -1.197846   -2.643908    1.447431
     34          1           0       -3.214575   -1.631140   -0.156960
     35          1           0       -1.716004   -0.791091   -0.543905
     36          1           0       -2.731572   -1.369736    2.282350
     37          1           0       -1.233899   -0.529681    1.896498
     38          1           0       -0.375419   -2.586877    0.727042
     39          1           0       -1.881601   -3.431707    1.115086
     40          1           0       -0.781492   -2.941884    2.414757
 ---------------------------------------------------------------------

 SCF Done:  E(RHF) =  -470.732926252     A.U. after   11 cycles
 E2 =    -0.1583525872D+01 EUMP2 =    -0.47231645212402D+03

 The electronic state is 1-A.
 Alpha  occ. eigenvalues --  -11.21669 -11.21652 -11.21599 -11.21538 -11.21470
 Alpha  occ. eigenvalues --  -11.21410 -11.21381 -11.21320 -11.21127 -11.21115
 Alpha  occ. eigenvalues --  -11.21070 -11.20927  -1.08502  -1.08394  -1.03611
 Alpha  occ. eigenvalues --   -1.03475  -0.96045  -0.95932  -0.87055  -0.86956
 Alpha  occ. eigenvalues --   -0.79732  -0.79506  -0.78349  -0.78182  -0.65129
 Alpha  occ. eigenvalues --   -0.65032  -0.61019  -0.60898  -0.59426  -0.59289
 Alpha  occ. eigenvalues --   -0.57727  -0.57489  -0.55341  -0.55199  -0.52731
 Alpha  occ. eigenvalues --   -0.52632  -0.52463  -0.52361  -0.50037  -0.49855
 Alpha  occ. eigenvalues --   -0.48103  -0.47778  -0.46711  -0.46564  -0.45987
 Alpha  occ. eigenvalues --   -0.45758  -0.45698  -0.45486  -0.43841  -0.43749
 Alpha virt. eigenvalues --    0.20739   0.23284   0.23437   0.24778   0.25217
 Alpha virt. eigenvalues --    0.26406   0.26701   0.27747   0.28652   0.29133
 Alpha virt. eigenvalues --    0.30669   0.30820   0.31691   0.31750   0.32046

 Mulliken charges:
               1
     1  C   -0.298548
     2  C   -0.299682
     3  C   -0.475748
     4  H    0.148939
     5  H    0.149693
     6  H    0.152092
     7  H    0.152216
     8  H    0.155289
     9  H    0.155009
    10  H    0.160520
    11  C   -0.297324
    12  C   -0.306984
    13  C   -0.477177
    14  H    0.149626
    15  H    0.150077
    16  H    0.153814
    17  H    0.155891
    18  H    0.155754
    19  H    0.155575
    20  H    0.161606
    21  C   -0.298313
    22  C   -0.299542
    23  C   -0.475673
    24  H    0.149735
    25  H    0.149585
    26  H    0.151978
    27  H    0.151357
    28  H    0.155103
    29  H    0.155279
    30  H    0.160166
    31  C   -0.300959
    32  C   -0.298878
    33  C   -0.484785
    34  H    0.149415
    35  H    0.151458
    36  H    0.151583
    37  H    0.152114
    38  H    0.166881
    39  H    0.154135
    40  H    0.158721
 Sum of Mulliken charges =  -0.00000

 Dipole moment (field-independent basis, Debye):
    X=              0.0552    Y=             -0.0031    Z=             -0.0127  Tot=              0.0567
 Quadrupole moment (field-independent basis, Debye-Ang):
   XX=            -84.1413   YY=            -86.2368   ZZ=            -84.3958
   XY=              0.8676   XZ=              0.2449   YZ=             -0.8125

 Normal termination of Gaussian 16 at Thu May  6 06:59:27 2021.
