 Gaussian 16, Revision A.03,
 Gaussian 16:  EM64L-G16RevA.03 25-Dec-2016

 -------------
 #p 6-31g* mp2
 -------------

 ------------------------------------------------------
 Input file generated by CHIRIPA (05-May-2021 14:51:10)
 ------------------------------------------------------
 Symbolic Z-matrix:
 Charge =  0 Multiplicity = 1

                         Standard orientation:
 ---------------------------------------------------------------------
 Center     Atomic      Atomic             Coordinates (Angstroms)
 Number     Number       Type             X           Y           Z
 ---------------------------------------------------------------------
      1          6           0        3.218911    0.906769    0.335960
      2          6           0        3.230097    2.218836   -0.449113
      3          6           0        2.533479    3.358718    0.294653
      4          1           0        2.179234    0.624590    0.551344
      5          1           0        3.707594    1.064640    1.307382
      6          1           0        2.742769    2.058188   -1.419329
      7          1           0        4.269861    2.497825   -0.662820
      8          1           0        3.023058    3.547718    1.255482
      9          1           0        1.487288    3.105583    0.494674
     10          1           0        2.553122    4.287156   -0.284551
     11          6           0        3.911602   -0.242245   -0.394571
     12          6           0        3.900416   -1.554312    0.390502
     13          6           0        4.597034   -2.694194   -0.353264
     14          1           0        3.422919   -0.400116   -1.365993
     15          1           0        4.951279    0.039934   -0.609956
     16          1           0        2.860652   -1.833301    0.604209
     17          1           0        4.387745   -1.393664    1.360718
     18          1           0        5.643225   -2.441059   -0.553285
     19          1           0        4.107455   -2.883194   -1.314093
     20          1           0        4.577391   -3.622632    0.225940
     21          6           0       -4.157131   -0.029553   -0.346838
     22          6           0       -5.493637   -0.220889    0.370884
     23          6           0       -6.668157    0.390097   -0.393966
     24          1           0       -3.979589    1.044074   -0.497663
     25          1           0       -4.218384   -0.479812   -1.347294
     26          1           0       -5.429427    0.228382    1.370209
     27          1           0       -5.667928   -1.294177    0.520189
     28          1           0       -6.760696   -0.064900   -1.385437
     29          1           0       -6.520840    1.466309   -0.530588
     30          1           0       -7.613666    0.241800    0.136958
     31          6           0       -2.973382   -0.634971    0.405449
     32          6           0       -1.636875   -0.443636   -0.312273
     33          6           0       -0.462357   -1.054621    0.452577
     34          1           0       -2.912129   -0.184713    1.405905
     35          1           0       -3.150924   -1.708598    0.556275
     36          1           0       -1.462586    0.629653   -0.461578
     37          1           0       -1.701086   -0.892906   -1.311598
     38          1           0       -0.609674   -2.130833    0.589199
     39          1           0       -0.369817   -0.599624    1.444048
     40          1           0        0.483153   -0.906324   -0.078347
 ---------------------------------------------------------------------

 SCF Done:  E(RHF) =  -470.732899898     A.U. after   11 cycles
 E2 =    -0.1583246488D+01 EUMP2 =    -0.47231614638672D+03

 The electronic state is 1-A.
 Alpha  occ. eigenvalues --  -11.21692 -11.21633 -11.21565 -11.21532 -11.21458
 Alpha  occ. eigenvalues --  -11.21396 -11.21351 -11.21263 -11.21163 -11.21095
 Alpha  occ. eigenvalues --  -11.21058 -11.21029  -1.08490  -1.08384  -1.03595
 Alpha  occ. eigenvalues --   -1.03488  -0.96058  -0.95933  -0.87071  -0.86957
 Alpha  occ. eigenvalues --   -0.79666  -0.79550  -0.78302  -0.78186  -0.65140
 Alpha  occ. eigenvalues --   -0.65046  -0.61011  -0.60871  -0.59430  -0.59299
 Alpha  occ. eigenvalues --   -0.57681  -0.57529  -0.55370  -0.55202  -0.52800
 Alpha  occ. eigenvalues --   -0.52604  -0.52472  -0.52353  -0.50027  -0.49848
 Alpha  occ. eigenvalues --   -0.47979  -0.47869  -0.46707  -0.46572  -0.45844
 Alpha  occ. eigenvalues --   -0.45772  -0.45721  -0.45648  -0.43786  -0.43703
 Alpha virt. eigenvalues --    0.20801   0.22972   0.23918   0.24680   0.26202
 Alpha virt. eigenvalues --    0.26606   0.27089   0.27489   0.27745   0.29334
 Alpha virt. eigenvalues --    0.30557   0.31488   0.31659   0.31904   0.32204

 Mulliken charges:
               1
     1  C   -0.305867
     2  C   -0.299145
     3  C   -0.475585
     4  H    0.157715
     5  H    0.149218
     6  H    0.151449
     7  H    0.151799
     8  H    0.155179
     9  H    0.154642
    10  H    0.160097
    11  C   -0.298298
    12  C   -0.304126
    13  C   -0.475414
    14  H    0.148495
    15  H    0.149727
    16  H    0.156821
    17  H    0.151844
    18  H    0.154969
    19  H    0.154838
    20  H    0.160155
    21  C   -0.298331
    22  C   -0.299694
    23  C   -0.475744
    24  H    0.149785
    25  H    0.149602
    26  H    0.152050
    27  H    0.152009
    28  H    0.155216
    29  H    0.155268
    30  H    0.160382
    31  C   -0.298682
    32  C   -0.300301
    33  C   -0.482089
    34  H    0.149823
    35  H    0.149929
    36  H    0.151894
    37  H    0.152197
    38  H    0.155790
    39  H    0.156092
    40  H    0.166293
 Sum of Mulliken charges =  -0.00000

 Dipole moment (field-independent basis, Debye):
    X=             -0.0508    Y=             -0.0186    Z=              0.0171  Tot=              0.0567
 Quadrupole moment (field-independent basis, Debye-Ang):
   XX=            -85.2101   YY=            -84.9801   ZZ=            -84.7182
   XY=              1.1499   XZ=              0.2856   YZ=              0.3433

 Normal termination of Gaussian 16 at Thu May  6 05:22:28 2021.
