 Gaussian 16, Revision A.03,
 Gaussian 16:  EM64L-G16RevA.03 25-Dec-2016

 -------------
 #p 6-31g* mp2
 -------------

 ------------------------------------------------------
 Input file generated by CHIRIPA (05-May-2021 14:57:20)
 ------------------------------------------------------
 Symbolic Z-matrix:
 Charge =  0 Multiplicity = 1

                         Standard orientation:
 ---------------------------------------------------------------------
 Center     Atomic      Atomic             Coordinates (Angstroms)
 Number     Number       Type             X           Y           Z
 ---------------------------------------------------------------------
      1          6           0       -5.933301    1.148016   -0.036036
      2          6           0       -4.828175    1.798383   -0.594821
      3          6           0       -3.594365    1.147737   -0.689269
      4          6           0       -3.500881   -0.159020   -0.212890
      5          6           0       -4.583608   -0.833752    0.349007
      6          6           0       -5.807711   -0.163663    0.433267
      7          1           0       -6.887984    1.661005    0.033376
      8          1           0       -4.922783    2.817041   -0.960103
      9          1           0       -2.722634    1.627622   -1.117304
     10          1           0       -4.458460   -1.849299    0.704562
     11          1           0       -6.664271   -0.671221    0.867705
     12          7           0       -2.199839   -0.858121   -0.307485
     13          8           0       -2.143515   -2.009292    0.119445
     14          8           0       -1.261042   -0.241668   -0.806768
     15          6           0        5.990700    0.566828   -0.759232
     16          6           0        5.297354   -0.571164   -1.184396
     17          6           0        4.035979   -0.870806   -0.661238
     18          6           0        3.495332   -0.006765    0.289774
     19          6           0        4.161335    1.134640    0.733533
     20          6           0        5.421481    1.414605    0.196690
     21          1           0        6.970090    0.791955   -1.170948
     22          1           0        5.736968   -1.231351   -1.926648
     23          1           0        3.477336   -1.745100   -0.972599
     24          1           0        3.697299    1.773860    1.474808
     25          1           0        5.957650    2.299088    0.528742
     26          7           0        2.160620   -0.313566    0.850861
     27          8           0        1.706097    0.463601    1.687555
     28          8           0        1.594270   -1.325395    0.443324
 ---------------------------------------------------------------------

 SCF Done:  E(RHF) =  -868.335191714     A.U. after   16 cycles
 E2 =    -0.2600675841D+01 EUMP2 =    -0.87093586755447D+03

 The electronic state is 1-A.
 Alpha  occ. eigenvalues --  -20.59497 -20.59489 -20.59486 -20.59321 -15.84581
 Alpha  occ. eigenvalues --  -15.84462 -11.30322 -11.30255 -11.26943 -11.26934
 Alpha  occ. eigenvalues --  -11.26904 -11.26844 -11.26766 -11.26717 -11.26053
 Alpha  occ. eigenvalues --  -11.26041 -11.26014 -11.25979  -1.58543  -1.58456
 Alpha  occ. eigenvalues --   -1.38103  -1.38006  -1.18530  -1.18471  -1.07856
 Alpha  occ. eigenvalues --   -1.07787  -1.03996  -1.03940  -0.94638  -0.94540
 Alpha  occ. eigenvalues --   -0.85378  -0.85319  -0.81474  -0.81384  -0.76446
 Alpha  occ. eigenvalues --   -0.76359  -0.70842  -0.70665  -0.69926  -0.69721
 Alpha  occ. eigenvalues --   -0.69648  -0.69586  -0.64183  -0.64118  -0.64010
 Alpha  occ. eigenvalues --   -0.63953  -0.61344  -0.61284  -0.54496  -0.54439
 Alpha  occ. eigenvalues --   -0.52300  -0.52245  -0.52101  -0.52043  -0.47807
 Alpha  occ. eigenvalues --   -0.47505  -0.47449  -0.47169  -0.43459  -0.43244
 Alpha  occ. eigenvalues --   -0.36536  -0.36475  -0.35616  -0.35564
 Alpha virt. eigenvalues --    0.06083   0.06230   0.12034   0.12085   0.17523
 Alpha virt. eigenvalues --    0.17618   0.22089   0.22146   0.27968   0.28024
 Alpha virt. eigenvalues --    0.29014   0.29085   0.31601   0.31658   0.33274

 Mulliken charges:
               1
     1  C   -0.172140
     2  C   -0.218516
     3  C   -0.170475
     4  C    0.160787
     5  C   -0.171168
     6  C   -0.218519
     7  H    0.222398
     8  H    0.220303
     9  H    0.274235
    10  H    0.275192
    11  H    0.220832
    12  N    0.489707
    13  O   -0.456483
    14  O   -0.455931
    15  C   -0.172407
    16  C   -0.218809
    17  C   -0.170581
    18  C    0.160492
    19  C   -0.172123
    20  C   -0.218720
    21  H    0.222040
    22  H    0.220991
    23  H    0.278210
    24  H    0.273174
    25  H    0.219756
    26  N    0.488707
    27  O   -0.469182
    28  O   -0.441770
 Sum of Mulliken charges =  -0.00000

 Dipole moment (field-independent basis, Debye):
    X=              0.0664    Y=              3.2730    Z=             -1.6644  Tot=              3.6724
 Quadrupole moment (field-independent basis, Debye-Ang):
   XX=            -43.3617   YY=            -99.5270   ZZ=           -105.1760
   XY=             -2.2166   XZ=             -6.9289   YZ=              0.4051

 Normal termination of Gaussian 16 at Wed May  5 16:11:01 2021.
