 Gaussian 16, Revision A.03,
 Gaussian 16:  EM64L-G16RevA.03 25-Dec-2016

 -------------
 #p 6-31g* mp2
 -------------

 ------------------------------------------------------
 Input file generated by CHIRIPA (05-May-2021 14:55:18)
 ------------------------------------------------------
 Symbolic Z-matrix:
 Charge =  0 Multiplicity = 1

                         Standard orientation:
 ---------------------------------------------------------------------
 Center     Atomic      Atomic             Coordinates (Angstroms)
 Number     Number       Type             X           Y           Z
 ---------------------------------------------------------------------
      1          6           0        3.556419    1.657133    1.166287
      2          6           0        4.304786    0.537914    0.787055
      3          6           0        3.698995   -0.525509    0.111262
      4          6           0        2.336674   -0.436088   -0.170476
      5          6           0        1.564168    0.665523    0.194187
      6          6           0        2.190907    1.717259    0.869167
      7          1           0        4.035149    2.478686    1.690944
      8          1           0        5.365430    0.488489    1.016481
      9          1           0        4.254629   -1.403878   -0.193953
     10          1           0        0.508646    0.686027   -0.048443
     11          1           0        1.607228    2.585211    1.162465
     12          7           0        1.684262   -1.555701   -0.885477
     13          8           0        0.482553   -1.452636   -1.121929
     14          8           0        2.386964   -2.515118   -1.195904
     15          6           0       -3.163023   -0.437277   -0.008413
     16          6           0       -3.731479   -1.144336    1.222405
     17          6           0       -3.794067   -2.662897    1.055532
     18          1           0       -3.778747   -0.686351   -0.883507
     19          1           0       -2.156109   -0.826327   -0.213746
     20          1           0       -4.736471   -0.753077    1.426176
     21          1           0       -3.114443   -0.893395    2.094707
     22          1           0       -2.794793   -3.072127    0.875025
     23          1           0       -4.426038   -2.931012    0.202695
     24          1           0       -4.203476   -3.148207    1.947001
     25          6           0       -3.094127    1.081278    0.143157
     26          6           0       -2.525671    1.788335   -1.087660
     27          6           0       -2.463083    3.306898   -0.920786
     28          1           0       -4.101040    1.470327    0.348491
     29          1           0       -2.478403    1.330352    1.018252
     30          1           0       -3.142707    1.537395   -1.959962
     31          1           0       -1.520678    1.397079   -1.291432
     32          1           0       -1.831112    3.575013   -0.067950
     33          1           0       -3.462357    3.716127   -0.740281
     34          1           0       -2.053674    3.792207   -1.812256
 ---------------------------------------------------------------------

 SCF Done:  E(RHF) =  -669.535900130     A.U. after   15 cycles
 E2 =    -0.2092566070D+01 EUMP2 =    -0.67162846619946D+03

 The electronic state is 1-A.
 Alpha  occ. eigenvalues --  -20.60963 -20.60946 -15.85993 -11.31290 -11.27851
 Alpha  occ. eigenvalues --  -11.27842 -11.27585 -11.26858 -11.26847 -11.21625
 Alpha  occ. eigenvalues --  -11.21303 -11.21264 -11.21111 -11.20707 -11.20434
 Alpha  occ. eigenvalues --   -1.60019  -1.39577  -1.19459  -1.08866  -1.08152
 Alpha  occ. eigenvalues --   -1.04853  -1.03289  -0.95739  -0.95703  -0.86744
 Alpha  occ. eigenvalues --   -0.86255  -0.82549  -0.79380  -0.77924  -0.77557
 Alpha  occ. eigenvalues --   -0.72220  -0.71332  -0.70577  -0.65123  -0.64998
 Alpha  occ. eigenvalues --   -0.64681  -0.62203  -0.60688  -0.59124  -0.57314
 Alpha  occ. eigenvalues --   -0.55357  -0.55032  -0.53184  -0.52954  -0.52454
 Alpha  occ. eigenvalues --   -0.52127  -0.49677  -0.48982  -0.48962  -0.47675
 Alpha  occ. eigenvalues --   -0.46449  -0.45449  -0.45314  -0.44905  -0.43505
 Alpha  occ. eigenvalues --   -0.37437  -0.36451
 Alpha virt. eigenvalues --    0.04894   0.11181   0.16403   0.19214   0.23014
 Alpha virt. eigenvalues --    0.24423   0.25980   0.26662   0.27915   0.28220
 Alpha virt. eigenvalues --    0.29447   0.31277   0.31806   0.31901   0.32363

 Mulliken charges:
               1
     1  C   -0.170225
     2  C   -0.218901
     3  C   -0.169986
     4  C    0.156396
     5  C   -0.177745
     6  C   -0.221872
     7  H    0.226137
     8  H    0.223859
     9  H    0.275796
    10  H    0.288475
    11  H    0.224541
    12  N    0.492490
    13  O   -0.467331
    14  O   -0.458568
    15  C   -0.312459
    16  C   -0.298386
    17  C   -0.476712
    18  H    0.150232
    19  H    0.176250
    20  H    0.148416
    21  H    0.147486
    22  H    0.163434
    23  H    0.155258
    24  H    0.156726
    25  C   -0.298217
    26  C   -0.305877
    27  C   -0.474429
    28  H    0.149415
    29  H    0.140337
    30  H    0.157724
    31  H    0.153623
    32  H    0.145465
    33  H    0.157616
    34  H    0.161031
 Sum of Mulliken charges =  -0.00000

 Dipole moment (field-independent basis, Debye):
    X=              2.4035    Y=              3.7791    Z=              2.3849  Tot=              5.0740
 Quadrupole moment (field-independent basis, Debye-Ang):
   XX=            -79.4484   YY=            -98.9022   ZZ=            -96.3810
   XY=              5.8677   XZ=              6.3637   YZ=             -1.5538

 Normal termination of Gaussian 16 at Thu May  6 02:52:10 2021.
