 Gaussian 16, Revision A.03,
 Gaussian 16:  EM64L-G16RevA.03 25-Dec-2016

 -------------
 #p 6-31g* mp2
 -------------

 ------------------------------------------------------
 Input file generated by CHIRIPA (05-May-2021 14:57:26)
 ------------------------------------------------------
 Symbolic Z-matrix:
 Charge =  0 Multiplicity = 1

                         Standard orientation:
 ---------------------------------------------------------------------
 Center     Atomic      Atomic             Coordinates (Angstroms)
 Number     Number       Type             X           Y           Z
 ---------------------------------------------------------------------
      1          6           0       -2.143595    1.454038   -0.335466
      2          6           0       -1.993261    0.069561   -0.204538
      3          6           0       -3.109625   -0.751535   -0.019925
      4          6           0       -4.367146   -0.151935    0.029171
      5          6           0       -4.549455    1.224243   -0.098056
      6          6           0       -3.418964    2.025953   -0.281902
      7          1           0       -1.270889    2.084355   -0.478580
      8          1           0       -1.004010   -0.377350   -0.245741
      9          1           0       -3.021942   -1.826184    0.084278
     10          1           0       -5.548415    1.640717   -0.052819
     11          1           0       -3.538724    3.100859   -0.383285
     12          7           0       -5.556468   -1.010930    0.224206
     13          8           0       -6.653518   -0.458173    0.263945
     14          8           0       -5.369090   -2.220703    0.333643
     15          6           0        2.757801    2.099803    0.054537
     16          6           0        4.080986    2.138398    0.506434
     17          6           0        4.873318    0.986796    0.482483
     18          6           0        4.307766   -0.191637   -0.002012
     19          6           0        2.992719   -0.262031   -0.459162
     20          6           0        2.218841    0.901824   -0.425971
     21          1           0        2.149465    2.999154    0.076733
     22          1           0        4.502192    3.067364    0.880136
     23          1           0        5.900575    0.988492    0.826226
     24          1           0        2.600685   -1.202828   -0.826080
     25          1           0        1.191540    0.868895   -0.777559
     26          7           0        5.136805   -1.417272   -0.032258
     27          8           0        4.615045   -2.443015   -0.463831
     28          8           0        6.292668   -1.328974    0.376180
 ---------------------------------------------------------------------

 SCF Done:  E(RHF) =  -868.335870973     A.U. after   16 cycles
 E2 =    -0.2600227442D+01 EUMP2 =    -0.87093609841579D+03

 The electronic state is 1-A.
 Alpha  occ. eigenvalues --  -20.61383 -20.61376 -20.61223 -20.61218 -15.86445
 Alpha  occ. eigenvalues --  -15.86283 -11.31985 -11.31817 -11.28654 -11.28550
 Alpha  occ. eigenvalues --  -11.28432 -11.28414 -11.28392 -11.28329 -11.27801
 Alpha  occ. eigenvalues --  -11.27589 -11.27567 -11.27483  -1.60454  -1.60295
 Alpha  occ. eigenvalues --   -1.40003  -1.39843  -1.20198  -1.20027  -1.09571
 Alpha  occ. eigenvalues --   -1.09421  -1.05646  -1.05451  -0.96366  -0.96219
 Alpha  occ. eigenvalues --   -0.87066  -0.86850  -0.83207  -0.83040  -0.78231
 Alpha  occ. eigenvalues --   -0.78019  -0.72661  -0.72501  -0.71780  -0.71619
 Alpha  occ. eigenvalues --   -0.71342  -0.71204  -0.65904  -0.65864  -0.65672
 Alpha  occ. eigenvalues --   -0.65336  -0.63055  -0.62712  -0.56163  -0.56062
 Alpha  occ. eigenvalues --   -0.53943  -0.53821  -0.53768  -0.53496  -0.49434
 Alpha  occ. eigenvalues --   -0.49402  -0.49274  -0.49241  -0.45370  -0.45210
 Alpha  occ. eigenvalues --   -0.38192  -0.38053  -0.37238  -0.37036
 Alpha virt. eigenvalues --    0.04345   0.04506   0.10365   0.10607   0.15718
 Alpha virt. eigenvalues --    0.15941   0.17183   0.22260   0.24479   0.24881
 Alpha virt. eigenvalues --    0.27911   0.29176   0.30033   0.30540   0.32373

 Mulliken charges:
               1
     1  C   -0.170886
     2  C   -0.219111
     3  C   -0.169307
     4  C    0.159401
     5  C   -0.169843
     6  C   -0.217688
     7  H    0.215629
     8  H    0.218592
     9  H    0.279010
    10  H    0.277911
    11  H    0.224492
    12  N    0.487851
    13  O   -0.458705
    14  O   -0.457973
    15  C   -0.170210
    16  C   -0.217954
    17  C   -0.169172
    18  C    0.159536
    19  C   -0.170853
    20  C   -0.222571
    21  H    0.222730
    22  H    0.226327
    23  H    0.278697
    24  H    0.275774
    25  H    0.217043
    26  N    0.488008
    27  O   -0.458954
    28  O   -0.457779
 Sum of Mulliken charges =  -0.00000

 Dipole moment (field-independent basis, Debye):
    X=              1.3092    Y=              7.2706    Z=             -0.4962  Tot=              7.4041
 Quadrupole moment (field-independent basis, Debye-Ang):
   XX=           -159.9972   YY=           -103.2933   ZZ=           -105.7925
   XY=              5.0351   XZ=              5.5431   YZ=              1.2575

 Normal termination of Gaussian 16 at Wed May  5 16:27:54 2021.
