 Gaussian 16, Revision A.03,
 Gaussian 16:  EM64L-G16RevA.03 25-Dec-2016

 -------------
 #p 6-31g* mp2
 -------------

 ------------------------------------------------------
 Input file generated by CHIRIPA (05-May-2021 14:51:08)
 ------------------------------------------------------
 Symbolic Z-matrix:
 Charge =  0 Multiplicity = 1

                         Standard orientation:
 ---------------------------------------------------------------------
 Center     Atomic      Atomic             Coordinates (Angstroms)
 Number     Number       Type             X           Y           Z
 ---------------------------------------------------------------------
      1          6           0        5.569810   -0.489957   -0.251414
      2          6           0        6.906058   -0.104107    0.383838
      3          6           0        8.083296   -0.892771   -0.190545
      4          1           0        5.398653   -1.565304   -0.105534
      5          1           0        5.626992   -0.326938   -1.336564
      6          1           0        6.845912   -0.266499    1.467640
      7          1           0        7.073964    0.970483    0.236596
      8          1           0        8.171746   -0.722585   -1.268419
      9          1           0        7.942399   -1.966594   -0.030381
     10          1           0        9.028574   -0.601077    0.277670
     11          6           0        4.383360    0.289895    0.312409
     12          6           0        3.047112   -0.095955   -0.322843
     13          6           0        1.869874    0.692708    0.251539
     14          1           0        4.326179    0.126875    1.397558
     15          1           0        4.554517    1.365241    0.166529
     16          1           0        2.879207   -1.170545   -0.175601
     17          1           0        3.107258    0.066436   -1.406645
     18          1           0        2.010771    1.766532    0.091375
     19          1           0        1.781424    0.522522    1.329414
     20          1           0        0.924596    0.401014   -0.216675
     21          6           0       -4.556954    0.737262   -0.066255
     22          6           0       -3.052190    0.470392   -0.115754
     23          6           0       -2.226024    1.754976   -0.187078
     24          1           0       -4.849920    1.314516   -0.953888
     25          1           0       -4.781981    1.367887    0.804992
     26          1           0       -2.830247   -0.160687   -0.985867
     27          1           0       -2.762804   -0.106459    0.772004
     28          1           0       -2.418271    2.385674    0.686913
     29          1           0       -2.486097    2.331139   -1.080946
     30          1           0       -1.153241    1.540955   -0.221634
     31          6           0       -5.396217   -0.537200    0.005260
     32          6           0       -6.900980   -0.270330    0.054759
     33          6           0       -7.727147   -1.554913    0.126084
     34          1           0       -5.171190   -1.167824   -0.865987
     35          1           0       -5.103250   -1.114454    0.892893
     36          1           0       -7.190366    0.306522   -0.832999
     37          1           0       -7.122923    0.360749    0.924872
     38          1           0       -7.467073   -2.131076    1.019950
     39          1           0       -7.534899   -2.185612   -0.747908
     40          1           0       -8.799928   -1.340893    0.160639
 ---------------------------------------------------------------------

 SCF Done:  E(RHF) =  -470.733241420     A.U. after   11 cycles
 E2 =    -0.1582149147D+01 EUMP2 =    -0.47231539056695D+03

 The electronic state is 1-A.
 Alpha  occ. eigenvalues --  -11.21622 -11.21607 -11.21582 -11.21557 -11.21416
 Alpha  occ. eigenvalues --  -11.21374 -11.21356 -11.21314 -11.21101 -11.21076
 Alpha  occ. eigenvalues --  -11.21056 -11.20955  -1.08443  -1.08396  -1.03551
 Alpha  occ. eigenvalues --   -1.03485  -0.96021  -0.95916  -0.87060  -0.86912
 Alpha  occ. eigenvalues --   -0.79628  -0.79535  -0.78254  -0.78210  -0.65072
 Alpha  occ. eigenvalues --   -0.65027  -0.60941  -0.60885  -0.59627  -0.59125
 Alpha  occ. eigenvalues --   -0.57704  -0.57444  -0.55282  -0.55220  -0.53010
 Alpha  occ. eigenvalues --   -0.52474  -0.52435  -0.52169  -0.49935  -0.49876
 Alpha  occ. eigenvalues --   -0.47949  -0.47842  -0.46639  -0.46589  -0.45796
 Alpha  occ. eigenvalues --   -0.45752  -0.45720  -0.45679  -0.43954  -0.43562
 Alpha virt. eigenvalues --    0.22271   0.22965   0.23476   0.24828   0.26632
 Alpha virt. eigenvalues --    0.26685   0.26821   0.27478   0.27599   0.28721
 Alpha virt. eigenvalues --    0.30356   0.31391   0.31453   0.31773   0.32039

 Mulliken charges:
               1
     1  C   -0.298274
     2  C   -0.299633
     3  C   -0.475709
     4  H    0.149672
     5  H    0.149566
     6  H    0.151941
     7  H    0.151985
     8  H    0.155199
     9  H    0.155184
    10  H    0.160282
    11  C   -0.298717
    12  C   -0.299524
    13  C   -0.479892
    14  H    0.149562
    15  H    0.149772
    16  H    0.152061
    17  H    0.152098
    18  H    0.155813
    19  H    0.155681
    20  H    0.163936
    21  C   -0.298104
    22  C   -0.299383
    23  C   -0.483729
    24  H    0.149570
    25  H    0.149539
    26  H    0.151174
    27  H    0.151895
    28  H    0.154997
    29  H    0.154491
    30  H    0.168861
    31  C   -0.298236
    32  C   -0.299628
    33  C   -0.475683
    34  H    0.149399
    35  H    0.149566
    36  H    0.151903
    37  H    0.151910
    38  H    0.155135
    39  H    0.155132
    40  H    0.160189
 Sum of Mulliken charges =  -0.00000

 Dipole moment (field-independent basis, Debye):
    X=              0.0395    Y=             -0.0002    Z=              0.0065  Tot=              0.0400
 Quadrupole moment (field-independent basis, Debye-Ang):
   XX=            -86.3285   YY=            -85.2274   ZZ=            -83.3058
   XY=             -0.0262   XZ=              0.2674   YZ=             -0.6008

 Normal termination of Gaussian 16 at Thu May  6 10:00:18 2021.
