 Gaussian 16, Revision A.03,
 Gaussian 16:  EM64L-G16RevA.03 25-Dec-2016

 -------------
 #p 6-31g* mp2
 -------------

 ------------------------------------------------------
 Input file generated by CHIRIPA (05-May-2021 14:57:26)
 ------------------------------------------------------
 Symbolic Z-matrix:
 Charge =  0 Multiplicity = 1

                         Standard orientation:
 ---------------------------------------------------------------------
 Center     Atomic      Atomic             Coordinates (Angstroms)
 Number     Number       Type             X           Y           Z
 ---------------------------------------------------------------------
      1          6           0       -5.957982    0.027700    0.953977
      2          6           0       -4.868576   -0.309230    1.764034
      3          6           0       -3.585165   -0.415445    1.219862
      4          6           0       -3.426590   -0.176933   -0.144417
      5          6           0       -4.492085    0.160530   -0.977560
      6          6           0       -5.766597    0.261094   -0.411827
      7          1           0       -6.951510    0.108015    1.385077
      8          1           0       -5.014238   -0.491039    2.825059
      9          1           0       -2.724218   -0.674723    1.823983
     10          1           0       -4.315592    0.335942   -2.031837
     11          1           0       -6.610803    0.522922   -1.043339
     12          7           0       -2.072611   -0.286387   -0.731920
     13          8           0       -1.959323   -0.071341   -1.936727
     14          8           0       -1.150288   -0.585150    0.023525
     15          6           0        4.616290   -2.171231    0.094770
     16          6           0        5.329271   -1.106174    0.654979
     17          6           0        4.803443    0.189061    0.634518
     18          6           0        3.556300    0.384162    0.043027
     19          6           0        2.821722   -0.656414   -0.523442
     20          6           0        3.366994   -1.943353   -0.491618
     21          1           0        5.032317   -3.174179    0.115078
     22          1           0        6.299716   -1.280193    1.111048
     23          1           0        5.334038    1.031740    1.060872
     24          1           0        1.856710   -0.451815   -0.971002
     25          1           0        2.811045   -2.768588   -0.927454
     26          7           0        2.989337    1.750979    0.015352
     27          8           0        1.888597    1.896583   -0.511722
     28          8           0        3.656429    2.650804    0.521258
 ---------------------------------------------------------------------

 SCF Done:  E(RHF) =  -868.339200433     A.U. after   16 cycles
 E2 =    -0.2599011978D+01 EUMP2 =    -0.87093821241031D+03

 The electronic state is 1-A.
 Alpha  occ. eigenvalues --  -20.60837 -20.60821 -20.59654 -20.59591 -15.85845
 Alpha  occ. eigenvalues --  -15.84675 -11.31134 -11.30006 -11.27695 -11.27688
 Alpha  occ. eigenvalues --  -11.27435 -11.26714 -11.26700 -11.26690 -11.26464
 Alpha  occ. eigenvalues --  -11.26406 -11.25736 -11.25575  -1.59871  -1.58709
 Alpha  occ. eigenvalues --   -1.39431  -1.38253  -1.19298  -1.18221  -1.08712
 Alpha  occ. eigenvalues --   -1.07648  -1.04693  -1.03607  -0.95562  -0.94465
 Alpha  occ. eigenvalues --   -0.86096  -0.85017  -0.82399  -0.81287  -0.77451
 Alpha  occ. eigenvalues --   -0.76305  -0.72083  -0.71163  -0.70897  -0.70415
 Alpha  occ. eigenvalues --   -0.70034  -0.69340  -0.64959  -0.64702  -0.63877
 Alpha  occ. eigenvalues --   -0.63627  -0.62042  -0.60917  -0.55207  -0.54179
 Alpha  occ. eigenvalues --   -0.53021  -0.52789  -0.51974  -0.51699  -0.48841
 Alpha  occ. eigenvalues --   -0.48823  -0.47683  -0.47627  -0.44845  -0.43664
 Alpha  occ. eigenvalues --   -0.37276  -0.36290  -0.36265  -0.35211
 Alpha virt. eigenvalues --    0.05094   0.06201   0.11366   0.12430   0.16596
 Alpha virt. eigenvalues --    0.17657   0.21484   0.22526   0.27401   0.28330
 Alpha virt. eigenvalues --    0.28481   0.29522   0.31045   0.32013   0.32606

 Mulliken charges:
               1
     1  C   -0.170466
     2  C   -0.218545
     3  C   -0.170014
     4  C    0.159124
     5  C   -0.170178
     6  C   -0.218589
     7  H    0.225591
     8  H    0.223367
     9  H    0.275419
    10  H    0.276095
    11  H    0.223587
    12  N    0.490852
    13  O   -0.458716
    14  O   -0.464180
    15  C   -0.171404
    16  C   -0.220244
    17  C   -0.172071
    18  C    0.154295
    19  C   -0.170826
    20  C   -0.221604
    21  H    0.221066
    22  H    0.218535
    23  H    0.271702
    24  H    0.297429
    25  H    0.223632
    26  N    0.487007
    27  O   -0.452676
    28  O   -0.468188
 Sum of Mulliken charges =  -0.00000

 Dipole moment (field-independent basis, Debye):
    X=             -3.2403    Y=             -4.4064    Z=              2.0339  Tot=              5.8355
 Quadrupole moment (field-independent basis, Debye-Ang):
   XX=            -56.5110   YY=           -109.6766   ZZ=           -100.9891
   XY=            -16.0621   XZ=             -2.2941   YZ=             -0.9388

 Normal termination of Gaussian 16 at Thu May  6 18:08:04 2021.
