 Gaussian 16, Revision A.03,
 Gaussian 16:  EM64L-G16RevA.03 25-Dec-2016

 -------------
 #p 6-31g* mp2
 -------------

 ------------------------------------------------------
 Input file generated by CHIRIPA (05-May-2021 14:55:23)
 ------------------------------------------------------
 Symbolic Z-matrix:
 Charge =  0 Multiplicity = 1

                         Standard orientation:
 ---------------------------------------------------------------------
 Center     Atomic      Atomic             Coordinates (Angstroms)
 Number     Number       Type             X           Y           Z
 ---------------------------------------------------------------------
      1          6           0        0.618832   -0.717884    0.117416
      2          6           0        1.086057    0.482266   -0.428351
      3          6           0        2.458121    0.736116   -0.515223
      4          6           0        3.338831   -0.236601   -0.044626
      5          6           0        2.904269   -1.442045    0.504328
      6          6           0        1.527826   -1.674523    0.581196
      7          1           0       -0.448721   -0.906779    0.181014
      8          1           0        0.382426    1.227017   -0.789317
      9          1           0        2.847136    1.656668   -0.933156
     10          1           0        3.629992   -2.165354    0.855852
     11          1           0        1.167835   -2.607473    1.005526
     12          7           0        4.793692    0.020825   -0.131298
     13          8           0        5.549075   -0.852261    0.290311
     14          8           0        5.151081    1.090808   -0.619198
     15          6           0       -4.567431   -0.036035   -0.222046
     16          6           0       -4.462817   -1.540632    0.029409
     17          6           0       -5.671917   -2.313631   -0.498171
     18          1           0       -5.482955    0.345454    0.250424
     19          1           0       -4.675111    0.141721   -1.301028
     20          1           0       -4.353976   -1.715421    1.107472
     21          1           0       -3.547337   -1.918550   -0.443551
     22          1           0       -5.780573   -2.168745   -1.577894
     23          1           0       -6.591795   -1.964462   -0.018060
     24          1           0       -5.576306   -3.387175   -0.307850
     25          6           0       -3.366144    0.750347    0.299719
     26          6           0       -3.470759    2.254944    0.048264
     27          6           0       -2.261657    3.027944    0.575844
     28          1           0       -3.258464    0.572591    1.378701
     29          1           0       -2.450620    0.368858   -0.172751
     30          1           0       -4.386238    2.632862    0.521224
     31          1           0       -3.579599    2.429733   -1.029799
     32          1           0       -1.341781    2.678775    0.095732
     33          1           0       -2.153002    2.883057    1.655567
     34          1           0       -2.357270    4.101487    0.385523
 ---------------------------------------------------------------------

 SCF Done:  E(RHF) =  -669.535013419     A.U. after   15 cycles
 E2 =    -0.2092257526D+01 EUMP2 =    -0.67162727094492D+03

 The electronic state is 1-A.
 Alpha  occ. eigenvalues --  -20.60709 -20.60704 -15.85763 -11.31115 -11.27692
 Alpha  occ. eigenvalues --  -11.27688 -11.27384 -11.26690 -11.26679 -11.22676
 Alpha  occ. eigenvalues --  -11.22616 -11.22610 -11.22378 -11.22126 -11.21860
 Alpha  occ. eigenvalues --   -1.59785  -1.39339  -1.19288  -1.09514  -1.08680
 Alpha  occ. eigenvalues --   -1.04697  -1.04529  -0.96981  -0.95519  -0.87991
 Alpha  occ. eigenvalues --   -0.86095  -0.82358  -0.80603  -0.79362  -0.77408
 Alpha  occ. eigenvalues --   -0.71981  -0.71108  -0.70406  -0.66166  -0.64937
 Alpha  occ. eigenvalues --   -0.64711  -0.62154  -0.61820  -0.60336  -0.58606
 Alpha  occ. eigenvalues --   -0.56329  -0.55176  -0.53629  -0.53409  -0.53016
 Alpha  occ. eigenvalues --   -0.52772  -0.50901  -0.48911  -0.48736  -0.48729
 Alpha  occ. eigenvalues --   -0.47633  -0.46869  -0.46779  -0.44805  -0.44747
 Alpha  occ. eigenvalues --   -0.37256  -0.36297
 Alpha virt. eigenvalues --    0.05134   0.11300   0.16606   0.18718   0.22416
 Alpha virt. eigenvalues --    0.22803   0.24825   0.25441   0.26210   0.28108
 Alpha virt. eigenvalues --    0.29403   0.30662   0.30985   0.31376   0.31624

 Mulliken charges:
               1
     1  C   -0.177183
     2  C   -0.223938
     3  C   -0.171812
     4  C    0.158275
     5  C   -0.170668
     6  C   -0.219311
     7  H    0.233279
     8  H    0.228334
     9  H    0.275636
    10  H    0.275288
    11  H    0.223545
    12  N    0.488030
    13  O   -0.460677
    14  O   -0.460603
    15  C   -0.298270
    16  C   -0.301139
    17  C   -0.476100
    18  H    0.154152
    19  H    0.152088
    20  H    0.152687
    21  H    0.146557
    22  H    0.157230
    23  H    0.157871
    24  H    0.162150
    25  C   -0.303324
    26  C   -0.300762
    27  C   -0.478580
    28  H    0.152468
    29  H    0.140580
    30  H    0.157186
    31  H    0.153871
    32  H    0.147418
    33  H    0.159762
    34  H    0.165960
 Sum of Mulliken charges =  -0.00000

 Dipole moment (field-independent basis, Debye):
    X=             -5.4411    Y=             -0.8415    Z=              0.3539  Tot=              5.5172
 Quadrupole moment (field-independent basis, Debye-Ang):
   XX=           -128.5708   YY=            -90.5536   ZZ=            -93.8781
   XY=             -3.5725   XZ=              0.9320   YZ=             -2.2165

 Normal termination of Gaussian 16 at Thu May  6 07:53:26 2021.
