 Gaussian 16, Revision A.03,
 Gaussian 16:  EM64L-G16RevA.03 25-Dec-2016

 -------------
 #p 6-31g* mp2
 -------------

 ------------------------------------------------------
 Input file generated by CHIRIPA (05-May-2021 14:55:19)
 ------------------------------------------------------
 Symbolic Z-matrix:
 Charge =  0 Multiplicity = 1

                         Standard orientation:
 ---------------------------------------------------------------------
 Center     Atomic      Atomic             Coordinates (Angstroms)
 Number     Number       Type             X           Y           Z
 ---------------------------------------------------------------------
      1          6           0       -1.856120    1.423435   -0.353298
      2          6           0       -1.722676    0.040931   -0.518815
      3          6           0       -2.825434   -0.803164   -0.357648
      4          6           0       -4.052275   -0.228327   -0.029454
      5          6           0       -4.217152    1.145231    0.142144
      6          6           0       -3.100738    1.970209   -0.023927
      7          1           0       -0.994167    2.071723   -0.480401
      8          1           0       -0.757310   -0.386482   -0.774612
      9          1           0       -2.750293   -1.876864   -0.479885
     10          1           0       -5.192344    1.541988    0.397102
     11          1           0       -3.207326    3.043522    0.105235
     12          7           0       -5.226945   -1.111813    0.143762
     13          8           0       -6.296930   -0.580636    0.432931
     14          8           0       -5.055422   -2.318738   -0.012919
     15          6           0        5.284723   -0.574943    0.095766
     16          6           0        6.807178   -0.485852   -0.014598
     17          6           0        7.484299   -1.856002    0.029982
     18          1           0        5.020584   -1.085782    1.031831
     19          1           0        4.900874   -1.201426   -0.721285
     20          1           0        7.187915    0.141411    0.801610
     21          1           0        7.067720    0.025005   -0.950418
     22          1           0        7.132550   -2.486508   -0.793022
     23          1           0        7.253428   -2.369441    0.968961
     24          1           0        8.572329   -1.768926   -0.050446
     25          6           0        4.593487    0.786698    0.052719
     26          6           0        3.071032    0.697609    0.163083
     27          6           0        2.393911    2.067759    0.118502
     28          1           0        4.977335    1.413183    0.869770
     29          1           0        4.857626    1.297539   -0.883346
     30          1           0        2.810490    0.186752    1.098903
     31          1           0        2.690295    0.070345   -0.653125
     32          1           0        2.624783    2.581197   -0.820476
     33          1           0        2.745660    2.698264    0.941507
     34          1           0        1.305881    1.980682    0.198930
 ---------------------------------------------------------------------

 SCF Done:  E(RHF) =  -669.535547041     A.U. after   15 cycles
 E2 =    -0.2090922095D+01 EUMP2 =    -0.67162646913572D+03

 The electronic state is 1-A.
 Alpha  occ. eigenvalues --  -20.60740 -20.60735 -15.85794 -11.31159 -11.27724
 Alpha  occ. eigenvalues --  -11.27721 -11.27443 -11.26739 -11.26728 -11.22601
 Alpha  occ. eigenvalues --  -11.22274 -11.22142 -11.22091 -11.21972 -11.21470
 Alpha  occ. eigenvalues --   -1.59816  -1.39369  -1.19328  -1.09152  -1.08723
 Alpha  occ. eigenvalues --   -1.04731  -1.04284  -0.96741  -0.95559  -0.87761
 Alpha  occ. eigenvalues --   -0.86127  -0.82393  -0.80361  -0.78922  -0.77438
 Alpha  occ. eigenvalues --   -0.72012  -0.71139  -0.70461  -0.65774  -0.64981
 Alpha  occ. eigenvalues --   -0.64739  -0.62081  -0.61667  -0.60178  -0.58345
 Alpha  occ. eigenvalues --   -0.56004  -0.55281  -0.53426  -0.53159  -0.53033
 Alpha  occ. eigenvalues --   -0.52819  -0.50662  -0.48776  -0.48767  -0.48663
 Alpha  occ. eigenvalues --   -0.47377  -0.46472  -0.46367  -0.44775  -0.44530
 Alpha  occ. eigenvalues --   -0.37304  -0.36335
 Alpha virt. eigenvalues --    0.05081   0.11303   0.16530   0.19465   0.22461
 Alpha virt. eigenvalues --    0.23896   0.25660   0.26067   0.26352   0.27571
 Alpha virt. eigenvalues --    0.28594   0.29818   0.30776   0.31532   0.32195

 Mulliken charges:
               1
     1  C   -0.175533
     2  C   -0.220847
     3  C   -0.171056
     4  C    0.158488
     5  C   -0.170939
     6  C   -0.218943
     7  H    0.231962
     8  H    0.224617
     9  H    0.275564
    10  H    0.275470
    11  H    0.223763
    12  N    0.488051
    13  O   -0.460479
    14  O   -0.460507
    15  C   -0.298929
    16  C   -0.300210
    17  C   -0.476128
    18  H    0.150948
    19  H    0.149604
    20  H    0.152856
    21  H    0.152525
    22  H    0.155663
    23  H    0.156033
    24  H    0.161792
    25  C   -0.299060
    26  C   -0.300049
    27  C   -0.480929
    28  H    0.151797
    29  H    0.150904
    30  H    0.155188
    31  H    0.148190
    32  H    0.157591
    33  H    0.161184
    34  H    0.151418
 Sum of Mulliken charges =  -0.00000

 Dipole moment (field-independent basis, Debye):
    X=              4.3733    Y=              3.1126    Z=             -0.5768  Tot=              5.3988
 Quadrupole moment (field-independent basis, Debye-Ang):
   XX=           -126.5207   YY=            -94.0021   ZZ=            -94.3134
   XY=            -15.6613   XZ=              1.8635   YZ=              1.1180

 Normal termination of Gaussian 16 at Thu May  6 01:17:45 2021.
