 Gaussian 16, Revision A.03,
 Gaussian 16:  EM64L-G16RevA.03 25-Dec-2016

 -------------
 #p 6-31g* mp2
 -------------

 ------------------------------------------------------
 Input file generated by CHIRIPA (05-May-2021 14:51:09)
 ------------------------------------------------------
 Symbolic Z-matrix:
 Charge =  0 Multiplicity = 1

                         Standard orientation:
 ---------------------------------------------------------------------
 Center     Atomic      Atomic             Coordinates (Angstroms)
 Number     Number       Type             X           Y           Z
 ---------------------------------------------------------------------
      1          6           0       -2.290993    1.008353    0.262993
      2          6           0       -2.255220    2.536042    0.209410
      3          6           0       -1.046034    3.124913    0.936661
      4          1           0       -2.299353    0.684722    1.312821
      5          1           0       -1.366810    0.611160   -0.179183
      6          1           0       -3.179810    2.930205    0.650301
      7          1           0       -2.247138    2.856078   -0.840413
      8          1           0       -0.114188    2.759673    0.492968
      9          1           0       -1.052159    2.834221    1.992152
     10          1           0       -1.040282    4.218188    0.885896
     11          6           0       -3.494007    0.404825   -0.459667
     12          6           0       -3.529780   -1.122865   -0.406084
     13          6           0       -4.738966   -1.711736   -1.133335
     14          1           0       -4.418189    0.802017   -0.017491
     15          1           0       -3.485647    0.728455   -1.509495
     16          1           0       -3.537862   -1.442901    0.643739
     17          1           0       -2.605190   -1.517027   -0.846975
     18          1           0       -4.732840   -1.421043   -2.188826
     19          1           0       -5.670812   -1.346495   -0.689642
     20          1           0       -4.744718   -2.805010   -1.082570
     21          6           0        2.571401   -1.387282    0.228659
     22          6           0        1.233051   -1.295883    0.962452
     23          6           0        0.603071   -2.665805    1.215896
     24          1           0        2.423133   -1.906893   -0.727880
     25          1           0        3.262624   -2.006590    0.816930
     26          1           0        0.545005   -0.675791    0.373643
     27          1           0        1.384486   -0.776259    1.917268
     28          1           0        1.267605   -3.289052    1.822986
     29          1           0        0.423355   -3.188013    0.270590
     30          1           0       -0.352810   -2.577065    1.741515
     31          6           0        3.213599   -0.025895   -0.031985
     32          6           0        4.551949   -0.117294   -0.765778
     33          6           0        5.181928    1.252628   -1.019221
     34          1           0        2.522375    0.593412   -0.620257
     35          1           0        3.361866    0.493715    0.924554
     36          1           0        4.400515   -0.636918   -1.720595
     37          1           0        5.239994   -0.737386   -0.176970
     38          1           0        5.361645    1.774835   -0.073916
     39          1           0        4.517394    1.875875   -1.626312
     40          1           0        6.137811    1.163887   -1.544841
 ---------------------------------------------------------------------

 SCF Done:  E(RHF) =  -470.733300410     A.U. after   11 cycles
 E2 =    -0.1583359346D+01 EUMP2 =    -0.47231665975576D+03

 The electronic state is 1-A.
 Alpha  occ. eigenvalues --  -11.21614 -11.21607 -11.21605 -11.21525 -11.21413
 Alpha  occ. eigenvalues --  -11.21402 -11.21352 -11.21336 -11.21079 -11.21072
 Alpha  occ. eigenvalues --  -11.21057 -11.21025  -1.08455  -1.08405  -1.03535
 Alpha  occ. eigenvalues --   -1.03506  -0.95987  -0.95955  -0.87008  -0.86966
 Alpha  occ. eigenvalues --   -0.79642  -0.79535  -0.78360  -0.78126  -0.65166
 Alpha  occ. eigenvalues --   -0.64969  -0.60947  -0.60897  -0.59352  -0.59326
 Alpha  occ. eigenvalues --   -0.57639  -0.57523  -0.55296  -0.55228  -0.52688
 Alpha  occ. eigenvalues --   -0.52637  -0.52433  -0.52362  -0.49985  -0.49854
 Alpha  occ. eigenvalues --   -0.48032  -0.47812  -0.46784  -0.46573  -0.46068
 Alpha  occ. eigenvalues --   -0.45767  -0.45726  -0.45212  -0.43790  -0.43761
 Alpha virt. eigenvalues --    0.20808   0.23155   0.23671   0.24088   0.25371
 Alpha virt. eigenvalues --    0.26484   0.26987   0.27446   0.28470   0.29524
 Alpha virt. eigenvalues --    0.30989   0.31424   0.31635   0.31866   0.32219

 Mulliken charges:
               1
     1  C   -0.304355
     2  C   -0.299243
     3  C   -0.476178
     4  H    0.149902
     5  H    0.155543
     6  H    0.151961
     7  H    0.151543
     8  H    0.155892
     9  H    0.155309
    10  H    0.160164
    11  C   -0.297824
    12  C   -0.300233
    13  C   -0.475762
    14  H    0.149640
    15  H    0.149325
    16  H    0.151972
    17  H    0.152471
    18  H    0.155072
    19  H    0.155249
    20  H    0.160479
    21  C   -0.297759
    22  C   -0.307002
    23  C   -0.475485
    24  H    0.149057
    25  H    0.149502
    26  H    0.159126
    27  H    0.151908
    28  H    0.154752
    29  H    0.154472
    30  H    0.161113
    31  C   -0.298386
    32  C   -0.299615
    33  C   -0.475708
    34  H    0.148319
    35  H    0.150183
    36  H    0.151822
    37  H    0.152116
    38  H    0.155365
    39  H    0.155031
    40  H    0.160260
 Sum of Mulliken charges =  -0.00000

 Dipole moment (field-independent basis, Debye):
    X=             -0.0159    Y=              0.0068    Z=              0.0116  Tot=              0.0208
 Quadrupole moment (field-independent basis, Debye-Ang):
   XX=            -85.2787   YY=            -86.0124   ZZ=            -83.4980
   XY=             -1.0212   XZ=             -0.2784   YZ=             -0.0446

 Normal termination of Gaussian 16 at Thu May  6 00:32:11 2021.
