 Gaussian 16, Revision A.03,
 Gaussian 16:  EM64L-G16RevA.03 25-Dec-2016

 -------------
 #p 6-31g* mp2
 -------------

 ------------------------------------------------------
 Input file generated by CHIRIPA (05-May-2021 14:55:24)
 ------------------------------------------------------
 Symbolic Z-matrix:
 Charge =  0 Multiplicity = 1

                         Standard orientation:
 ---------------------------------------------------------------------
 Center     Atomic      Atomic             Coordinates (Angstroms)
 Number     Number       Type             X           Y           Z
 ---------------------------------------------------------------------
      1          6           0       -1.466780    1.840187   -1.228668
      2          6           0       -2.773799    2.011091   -0.760679
      3          6           0       -3.467509    0.942160   -0.185614
      4          6           0       -2.820895   -0.289420   -0.094016
      5          6           0       -1.519490   -0.491216   -0.551086
      6          6           0       -0.844893    0.591780   -1.122564
      7          1           0       -0.935313    2.676021   -1.673999
      8          1           0       -3.259263    2.979488   -0.841775
      9          1           0       -4.480075    1.046657    0.184804
     10          1           0       -1.061881   -1.468489   -0.456489
     11          1           0        0.170081    0.456138   -1.485160
     12          7           0       -3.545178   -1.428494    0.512882
     13          8           0       -2.953283   -2.503448    0.581966
     14          8           0       -4.691051   -1.224778    0.907991
     15          6           0        3.698097   -0.572266    0.428260
     16          6           0        4.186761   -1.373687   -0.778770
     17          6           0        4.663938   -2.776812   -0.402828
     18          1           0        4.509626   -0.499927    1.165235
     19          1           0        2.880303   -1.120101    0.916609
     20          1           0        5.002464   -0.823842   -1.265510
     21          1           0        3.374036   -1.443962   -1.513041
     22          1           0        3.853876   -3.347294    0.062952
     23          1           0        5.491557   -2.723650    0.311891
     24          1           0        5.008849   -3.332172   -1.280593
     25          6           0        3.217805    0.832585    0.068483
     26          6           0        2.729141    1.634005    1.275512
     27          6           0        2.251964    3.037131    0.899570
     28          1           0        4.035599    1.380420   -0.419867
     29          1           0        2.406276    0.760246   -0.668493
     30          1           0        3.541868    1.704280    2.009784
     31          1           0        1.913439    1.084160    1.762252
     32          1           0        1.424346    2.983968    0.184852
     33          1           0        3.062027    3.607612    0.433790
     34          1           0        1.907053    3.592490    1.777336
 ---------------------------------------------------------------------

 SCF Done:  E(RHF) =  -669.535473894     A.U. after   15 cycles
 E2 =    -0.2092132585D+01 EUMP2 =    -0.67162760647962D+03

 The electronic state is 1-A.
 Alpha  occ. eigenvalues --  -20.60803 -20.60797 -15.85856 -11.31238 -11.27808
 Alpha  occ. eigenvalues --  -11.27801 -11.27552 -11.26820 -11.26810 -11.22248
 Alpha  occ. eigenvalues --  -11.22185 -11.22178 -11.21980 -11.21791 -11.21464
 Alpha  occ. eigenvalues --   -1.59878  -1.39431  -1.19411  -1.09098  -1.08801
 Alpha  occ. eigenvalues --   -1.04815  -1.04129  -0.96590  -0.95634  -0.87602
 Alpha  occ. eigenvalues --   -0.86215  -0.82466  -0.80198  -0.78923  -0.77510
 Alpha  occ. eigenvalues --   -0.72074  -0.71201  -0.70517  -0.65817  -0.65063
 Alpha  occ. eigenvalues --   -0.64770  -0.62174  -0.61507  -0.59950  -0.58199
 Alpha  occ. eigenvalues --   -0.55926  -0.55288  -0.53251  -0.53146  -0.53054
 Alpha  occ. eigenvalues --   -0.52863  -0.50524  -0.48838  -0.48829  -0.48509
 Alpha  occ. eigenvalues --   -0.47232  -0.46455  -0.46360  -0.44833  -0.44406
 Alpha  occ. eigenvalues --   -0.37376  -0.36408
 Alpha virt. eigenvalues --    0.05000   0.11122   0.16420   0.19084   0.22804
 Alpha virt. eigenvalues --    0.23743   0.24834   0.26224   0.26549   0.28538
 Alpha virt. eigenvalues --    0.29108   0.30946   0.31115   0.31452   0.31649

 Mulliken charges:
               1
     1  C   -0.172412
     2  C   -0.218710
     3  C   -0.170833
     4  C    0.158879
     5  C   -0.172892
     6  C   -0.221819
     7  H    0.226757
     8  H    0.223911
     9  H    0.275856
    10  H    0.275584
    11  H    0.230352
    12  N    0.488071
    13  O   -0.460406
    14  O   -0.460214
    15  C   -0.299569
    16  C   -0.299080
    17  C   -0.476319
    18  H    0.153366
    19  H    0.151014
    20  H    0.153184
    21  H    0.146238
    22  H    0.157433
    23  H    0.156977
    24  H    0.161884
    25  C   -0.300673
    26  C   -0.300266
    27  C   -0.475951
    28  H    0.151901
    29  H    0.139520
    30  H    0.155479
    31  H    0.156017
    32  H    0.147163
    33  H    0.155757
    34  H    0.163800
 Sum of Mulliken charges =  -0.00000

 Dipole moment (field-independent basis, Debye):
    X=              2.6484    Y=              3.9828    Z=             -2.0295  Tot=              5.1958
 Quadrupole moment (field-independent basis, Debye-Ang):
   XX=           -104.7698   YY=            -96.6104   ZZ=            -94.9706
   XY=            -14.3373   XZ=              5.5621   YZ=              0.9574

 Normal termination of Gaussian 16 at Thu May  6 20:54:56 2021.
