 Gaussian 16, Revision A.03,
 Gaussian 16:  EM64L-G16RevA.03 25-Dec-2016

 -------------
 #p 6-31g* mp2
 -------------

 ------------------------------------------------------
 Input file generated by CHIRIPA (05-May-2021 14:53:12)
 ------------------------------------------------------
 Symbolic Z-matrix:
 Charge =  0 Multiplicity = 1

                         Standard orientation:
 ---------------------------------------------------------------------
 Center     Atomic      Atomic             Coordinates (Angstroms)
 Number     Number       Type             X           Y           Z
 ---------------------------------------------------------------------
      1          6           0        4.122570   -0.164359   -0.079005
      2          6           0        3.930187   -1.430470   -0.914432
      3          6           0        4.998977   -2.488573   -0.638932
      4          1           0        5.117106    0.254948   -0.284003
      5          1           0        4.109500   -0.431224    0.986831
      6          1           0        3.942231   -1.161104   -1.978346
      7          1           0        2.935918   -1.846706   -0.707564
      8          1           0        4.984157   -2.785902    0.414622
      9          1           0        5.996187   -2.096405   -0.863380
     10          1           0        4.842322   -3.385186   -1.246718
     11          6           0        3.061855    0.902784   -0.343233
     12          6           0        3.254237    2.168895    0.492194
     13          6           0        2.185447    3.226998    0.216694
     14          1           0        3.074924    1.169649   -1.409069
     15          1           0        2.067318    0.483477   -0.138234
     16          1           0        4.248506    2.585131    0.285326
     17          1           0        3.242193    1.899530    1.556108
     18          1           0        1.188237    2.834831    0.441142
     19          1           0        2.200267    3.524328   -0.836860
     20          1           0        2.342102    4.123612    0.824480
     21          6           0       -0.744492   -1.112684    1.362862
     22          6           0       -1.786636   -1.999263    1.072293
     23          6           0       -2.933776   -1.553617    0.408954
     24          6           0       -3.005754   -0.208763    0.049125
     25          6           0       -1.984285    0.698994    0.324563
     26          6           0       -0.846462    0.231246    0.988729
     27          1           0        0.143016   -1.467457    1.878482
     28          1           0       -1.710185   -3.043519    1.361654
     29          1           0       -3.755435   -2.218415    0.171596
     30          1           0       -2.089361    1.734246    0.023513
     31          1           0       -0.038676    0.922036    1.213088
     32          7           0       -4.215249    0.274722   -0.653560
     33          8           0       -4.254293    1.464364   -0.959931
     34          8           0       -5.101305   -0.545121   -0.884648
 ---------------------------------------------------------------------

 SCF Done:  E(RHF) =  -669.535059584     A.U. after   15 cycles
 E2 =    -0.2092344172D+01 EUMP2 =    -0.67162740375615D+03

 The electronic state is 1-A.
 Alpha  occ. eigenvalues --  -20.60772 -20.60767 -15.85826 -11.31213 -11.27785
 Alpha  occ. eigenvalues --  -11.27776 -11.27541 -11.26801 -11.26776 -11.22485
 Alpha  occ. eigenvalues --  -11.22274 -11.22210 -11.22125 -11.22030 -11.21667
 Alpha  occ. eigenvalues --   -1.59847  -1.39400  -1.19389  -1.09239  -1.08780
 Alpha  occ. eigenvalues --   -1.04798  -1.04319  -0.96766  -0.95611  -0.87779
 Alpha  occ. eigenvalues --   -0.86198  -0.82447  -0.80372  -0.79035  -0.77485
 Alpha  occ. eigenvalues --   -0.72045  -0.71170  -0.70497  -0.65983  -0.65041
 Alpha  occ. eigenvalues --   -0.64761  -0.62254  -0.61613  -0.60117  -0.58362
 Alpha  occ. eigenvalues --   -0.56092  -0.55292  -0.53440  -0.53206  -0.53107
 Alpha  occ. eigenvalues --   -0.52889  -0.50732  -0.48824  -0.48798  -0.48658
 Alpha  occ. eigenvalues --   -0.47405  -0.46553  -0.46492  -0.44801  -0.44560
 Alpha  occ. eigenvalues --   -0.37360  -0.36378
 Alpha virt. eigenvalues --    0.05044   0.11107   0.16494   0.18991   0.22585
 Alpha virt. eigenvalues --    0.23417   0.25610   0.25859   0.26689   0.28389
 Alpha virt. eigenvalues --    0.29524   0.30102   0.30981   0.31324   0.31910

 Mulliken charges:
               1
     1  C   -0.298273
     2  C   -0.299840
     3  C   -0.476016
     4  H    0.152870
     5  H    0.145949
     6  H    0.155319
     7  H    0.149282
     8  H    0.153550
     9  H    0.157281
    10  H    0.162184
    11  C   -0.303528
    12  C   -0.301843
    13  C   -0.477040
    14  H    0.154535
    15  H    0.146162
    16  H    0.157036
    17  H    0.148884
    18  H    0.144614
    19  H    0.161664
    20  H    0.165164
    21  C   -0.172849
    22  C   -0.218359
    23  C   -0.170694
    24  C    0.158547
    25  C   -0.173262
    26  C   -0.222211
    27  H    0.226095
    28  H    0.223562
    29  H    0.275813
    30  H    0.275924
    31  H    0.231861
    32  N    0.488110
    33  O   -0.460038
    34  O   -0.460453
 Sum of Mulliken charges =  -0.00000

 Dipole moment (field-independent basis, Debye):
    X=              4.3979    Y=             -1.6632    Z=              2.3748  Tot=              5.2676
 Quadrupole moment (field-independent basis, Debye-Ang):
   XX=           -119.6857   YY=            -90.0885   ZZ=            -94.7565
   XY=              7.4153   XZ=             -8.1698   YZ=             -1.1315

 Normal termination of Gaussian 16 at Thu May  6 15:20:43 2021.
