 Gaussian 16, Revision A.03,
 Gaussian 16:  EM64L-G16RevA.03 25-Dec-2016

 -------------
 #p 6-31g* mp2
 -------------

 ------------------------------------------------------
 Input file generated by CHIRIPA (05-May-2021 14:51:10)
 ------------------------------------------------------
 Symbolic Z-matrix:
 Charge =  0 Multiplicity = 1

                         Standard orientation:
 ---------------------------------------------------------------------
 Center     Atomic      Atomic             Coordinates (Angstroms)
 Number     Number       Type             X           Y           Z
 ---------------------------------------------------------------------
      1          6           0        4.261911   -0.074713   -0.317488
      2          6           0        5.657773   -0.422155    0.201008
      3          6           0        6.765954    0.334245   -0.532197
      4          1           0        4.210892   -0.297527   -1.392056
      5          1           0        4.098865    1.007046   -0.214490
      6          1           0        5.817611   -1.503139    0.098341
      7          1           0        5.705415   -0.198667    1.274506
      8          1           0        6.634288    1.415232   -0.419364
      9          1           0        6.747121    0.103349   -1.602213
     10          1           0        7.755421    0.070819   -0.145648
     11          6           0        3.143445   -0.822927    0.405656
     12          6           0        1.747583   -0.475486   -0.112840
     13          6           0        0.639402   -1.231886    0.620364
     14          1           0        3.306490   -1.904686    0.302658
     15          1           0        3.194464   -0.600113    1.480224
     16          1           0        1.699941   -0.698973   -1.186339
     17          1           0        1.587745    0.605499   -0.010173
     18          1           0        0.658235   -1.000989    1.690380
     19          1           0        0.771068   -2.312873    0.507532
     20          1           0       -0.350066   -0.968459    0.233815
     21          6           0       -4.383909    0.150587   -0.218479
     22          6           0       -4.455589   -1.362122   -0.007393
     23          6           0       -5.824674   -1.944068   -0.360579
     24          1           0       -5.158593    0.636479    0.390387
     25          1           0       -4.621167    0.379161   -1.266744
     26          1           0       -4.216913   -1.587883    1.039832
     27          1           0       -3.680519   -1.844455   -0.616686
     28          1           0       -6.067597   -1.747879   -1.409911
     29          1           0       -6.607038   -1.489850    0.256019
     30          1           0       -5.853698   -3.026642   -0.202301
     31          6           0       -3.021448    0.747053    0.130312
     32          6           0       -2.949766    2.259762   -0.080774
     33          6           0       -1.580682    2.841709    0.272411
     34          1           0       -2.784189    0.518480    1.178576
     35          1           0       -2.246763    0.261161   -0.478554
     36          1           0       -3.724837    2.742095    0.528518
     37          1           0       -3.188443    2.485524   -1.128000
     38          1           0       -0.798318    2.387490   -0.344188
     39          1           0       -1.337758    2.645519    1.321744
     40          1           0       -1.551658    3.924282    0.114134
 ---------------------------------------------------------------------

 SCF Done:  E(RHF) =  -470.733183763     A.U. after   11 cycles
 E2 =    -0.1583056909D+01 EUMP2 =    -0.47231624067214D+03

 The electronic state is 1-A.
 Alpha  occ. eigenvalues --  -11.21624 -11.21604 -11.21579 -11.21554 -11.21420
 Alpha  occ. eigenvalues --  -11.21372 -11.21361 -11.21312 -11.21089 -11.21072
 Alpha  occ. eigenvalues --  -11.21053 -11.20942  -1.08454  -1.08390  -1.03547
 Alpha  occ. eigenvalues --   -1.03480  -0.95999  -0.95928  -0.87027  -0.86934
 Alpha  occ. eigenvalues --   -0.79606  -0.79553  -0.78273  -0.78209  -0.65088
 Alpha  occ. eigenvalues --   -0.65022  -0.60952  -0.60874  -0.59432  -0.59248
 Alpha  occ. eigenvalues --   -0.57649  -0.57510  -0.55290  -0.55211  -0.52769
 Alpha  occ. eigenvalues --   -0.52646  -0.52432  -0.52272  -0.49944  -0.49866
 Alpha  occ. eigenvalues --   -0.47923  -0.47867  -0.46666  -0.46555  -0.45790
 Alpha  occ. eigenvalues --   -0.45754  -0.45724  -0.45656  -0.43807  -0.43675
 Alpha virt. eigenvalues --    0.21262   0.23085   0.23577   0.24741   0.26031
 Alpha virt. eigenvalues --    0.26176   0.26745   0.27199   0.28154   0.29246
 Alpha virt. eigenvalues --    0.30483   0.31259   0.31714   0.31860   0.32349

 Mulliken charges:
               1
     1  C   -0.298298
     2  C   -0.299615
     3  C   -0.475690
     4  H    0.149413
     5  H    0.149624
     6  H    0.151852
     7  H    0.151938
     8  H    0.155205
     9  H    0.155092
    10  H    0.160173
    11  C   -0.298065
    12  C   -0.301638
    13  C   -0.482333
    14  H    0.149435
    15  H    0.149677
    16  H    0.150867
    17  H    0.153829
    18  H    0.154560
    19  H    0.154218
    20  H    0.168016
    21  C   -0.297687
    22  C   -0.300128
    23  C   -0.475671
    24  H    0.149743
    25  H    0.149372
    26  H    0.152418
    27  H    0.151959
    28  H    0.155125
    29  H    0.155208
    30  H    0.160407
    31  C   -0.303507
    32  C   -0.299174
    33  C   -0.478259
    34  H    0.150799
    35  H    0.153959
    36  H    0.152087
    37  H    0.151864
    38  H    0.157574
    39  H    0.155337
    40  H    0.160314
 Sum of Mulliken charges =  -0.00000

 Dipole moment (field-independent basis, Debye):
    X=             -0.0445    Y=              0.0156    Z=              0.0053  Tot=              0.0474
 Quadrupole moment (field-independent basis, Debye-Ang):
   XX=            -86.4054   YY=            -84.7574   ZZ=            -83.6042
   XY=             -1.0291   XZ=             -0.1660   YZ=              0.7700

 Normal termination of Gaussian 16 at Thu May  6 03:45:59 2021.
