 Gaussian 16, Revision A.03,
 Gaussian 16:  EM64L-G16RevA.03 25-Dec-2016

 -------------
 #p 6-31g* mp2
 -------------

 ------------------------------------------------------
 Input file generated by CHIRIPA (05-May-2021 14:53:12)
 ------------------------------------------------------
 Symbolic Z-matrix:
 Charge =  0 Multiplicity = 1

                         Standard orientation:
 ---------------------------------------------------------------------
 Center     Atomic      Atomic             Coordinates (Angstroms)
 Number     Number       Type             X           Y           Z
 ---------------------------------------------------------------------
      1          6           0       -4.559584    0.433466    0.520199
      2          6           0       -3.402109    1.128566   -0.197486
      3          6           0       -2.376471    1.720007    0.770015
      4          1           0       -5.054499    1.153075    1.186659
      5          1           0       -4.158399   -0.362691    1.162523
      6          1           0       -3.805470    1.922268   -0.839322
      7          1           0       -2.910012    0.407270   -0.862458
      8          1           0       -1.946591    0.936319    1.402183
      9          1           0       -2.847137    2.459925    1.425451
     10          1           0       -1.557758    2.212076    0.235753
     11          6           0       -5.593169   -0.162880   -0.433635
     12          6           0       -6.750645   -0.857980    0.284050
     13          6           0       -7.776282   -1.449421   -0.683451
     14          1           0       -5.994355    0.633277   -1.075959
     15          1           0       -5.098255   -0.882489   -1.100095
     16          1           0       -7.242742   -0.136684    0.949022
     17          1           0       -6.347284   -1.651682    0.925886
     18          1           0       -7.305617   -2.189339   -1.338887
     19          1           0       -8.206163   -0.665733   -1.315620
     20          1           0       -8.594996   -1.941490   -0.149189
     21          6           0        1.593355    0.748931    0.046620
     22          6           0        2.624058    1.585258   -0.394664
     23          6           0        3.942351    1.122357   -0.443383
     24          6           0        4.195290   -0.188320   -0.041591
     25          6           0        3.190048   -1.045784    0.402857
     26          6           0        1.879136   -0.561610    0.443273
     27          1           0        0.572140    1.116786    0.081241
     28          1           0        2.405057    2.603498   -0.703320
     29          1           0        4.759409    1.748449   -0.780788
     30          1           0        3.439341   -2.055990    0.704111
     31          1           0        1.080682   -1.213350    0.786422
     32          7           0        5.587001   -0.689632   -0.088771
     33          8           0        5.783684   -1.848416    0.270637
     34          8           0        6.454790    0.085714   -0.484267
 ---------------------------------------------------------------------

 SCF Done:  E(RHF) =  -669.535466690     A.U. after   15 cycles
 E2 =    -0.2090876692D+01 EUMP2 =    -0.67162634338125D+03

 The electronic state is 1-A.
 Alpha  occ. eigenvalues --  -20.60709 -20.60703 -15.85763 -11.31110 -11.27688
 Alpha  occ. eigenvalues --  -11.27684 -11.27354 -11.26687 -11.26676 -11.22661
 Alpha  occ. eigenvalues --  -11.22455 -11.22226 -11.22154 -11.22037 -11.21526
 Alpha  occ. eigenvalues --   -1.59785  -1.39339  -1.19282  -1.09232  -1.08673
 Alpha  occ. eigenvalues --   -1.04688  -1.04375  -0.96846  -0.95511  -0.87866
 Alpha  occ. eigenvalues --   -0.86083  -0.82351  -0.80443  -0.78989  -0.77404
 Alpha  occ. eigenvalues --   -0.71980  -0.71108  -0.70399  -0.65859  -0.64932
 Alpha  occ. eigenvalues --   -0.64698  -0.62042  -0.61767  -0.60290  -0.58433
 Alpha  occ. eigenvalues --   -0.56165  -0.55181  -0.53489  -0.53243  -0.53014
 Alpha  occ. eigenvalues --   -0.52779  -0.50764  -0.48763  -0.48737  -0.48726
 Alpha  occ. eigenvalues --   -0.47459  -0.46543  -0.46437  -0.44749  -0.44611
 Alpha  occ. eigenvalues --   -0.37250  -0.36299
 Alpha virt. eigenvalues --    0.05137   0.11355   0.16630   0.19752   0.22459
 Alpha virt. eigenvalues --    0.23839   0.25774   0.26189   0.26576   0.27162
 Alpha virt. eigenvalues --    0.29361   0.29947   0.30831   0.31338   0.32048

 Mulliken charges:
               1
     1  C   -0.299005
     2  C   -0.300566
     3  C   -0.481849
     4  H    0.152040
     5  H    0.149376
     6  H    0.155898
     7  H    0.151378
     8  H    0.153096
     9  H    0.163584
    10  H    0.153655
    11  C   -0.298946
    12  C   -0.300213
    13  C   -0.476136
    14  H    0.150991
    15  H    0.150194
    16  H    0.152936
    17  H    0.152296
    18  H    0.155774
    19  H    0.155980
    20  H    0.161929
    21  C   -0.177772
    22  C   -0.221587
    23  C   -0.170598
    24  C    0.157980
    25  C   -0.170628
    26  C   -0.222038
    27  H    0.239197
    28  H    0.223044
    29  H    0.275296
    30  H    0.275190
    31  H    0.222863
    32  N    0.488040
    33  O   -0.460728
    34  O   -0.460671
 Sum of Mulliken charges =  -0.00000

 Dipole moment (field-independent basis, Debye):
    X=             -5.2165    Y=              1.7884    Z=              0.1775  Tot=              5.5174
 Quadrupole moment (field-independent basis, Debye-Ang):
   XX=           -135.4386   YY=            -91.0068   ZZ=            -95.2781
   XY=              8.9982   XZ=             -0.2316   YZ=             -2.1146

 Normal termination of Gaussian 16 at Wed May  5 18:32:09 2021.
