 Gaussian 16, Revision A.03,
 Gaussian 16:  EM64L-G16RevA.03 25-Dec-2016

 -------------
 #p 6-31g* mp2
 -------------

 ------------------------------------------------------
 Input file generated by CHIRIPA (05-May-2021 14:55:21)
 ------------------------------------------------------
 Symbolic Z-matrix:
 Charge =  0 Multiplicity = 1

                         Standard orientation:
 ---------------------------------------------------------------------
 Center     Atomic      Atomic             Coordinates (Angstroms)
 Number     Number       Type             X           Y           Z
 ---------------------------------------------------------------------
      1          6           0        0.881696    0.687721    0.661769
      2          6           0        1.679932    1.442916   -0.203690
      3          6           0        2.971256    1.018446   -0.530579
      4          6           0        3.434568   -0.171488    0.028606
      5          6           0        2.663422   -0.945947    0.893961
      6          6           0        1.375119   -0.502203    1.206872
      7          1           0       -0.120262    1.024946    0.910275
      8          1           0        1.299350    2.367432   -0.628512
      9          1           0        3.610539    1.583647   -1.197875
     10          1           0        3.070383   -1.863278    1.301767
     11          1           0        0.757433   -1.090736    1.879283
     12          7           0        4.800035   -0.631058   -0.310058
     13          8           0        5.184930   -1.683000    0.195820
     14          8           0        5.459539    0.069374   -1.074967
     15          6           0       -3.828571    0.684853    0.326759
     16          6           0       -3.295480    1.868371   -0.481379
     17          6           0       -2.739451    2.985212    0.402527
     18          1           0       -4.613009    1.038908    1.009581
     19          1           0       -3.021394    0.287139    0.957380
     20          1           0       -4.103052    2.262864   -1.111316
     21          1           0       -2.512355    1.511424   -1.162494
     22          1           0       -1.916044    2.613323    1.020831
     23          1           0       -3.515780    3.369033    1.072299
     24          1           0       -2.363772    3.821215   -0.195658
     25          6           0       -4.387805   -0.439743   -0.542878
     26          6           0       -4.920895   -1.623262    0.265259
     27          6           0       -5.476925   -2.740103   -0.618646
     28          1           0       -5.194983   -0.042029   -1.173499
     29          1           0       -3.603367   -0.793799   -1.225701
     30          1           0       -5.704022   -1.266314    0.946374
     31          1           0       -4.113324   -2.017754    0.895197
     32          1           0       -4.700596   -3.123924   -1.288419
     33          1           0       -6.300331   -2.368214   -1.236951
     34          1           0       -5.852605   -3.576105   -0.020462
 ---------------------------------------------------------------------

 SCF Done:  E(RHF) =  -669.535463135     A.U. after   15 cycles
 E2 =    -0.2091354968D+01 EUMP2 =    -0.67162681810271D+03

 The electronic state is 1-A.
 Alpha  occ. eigenvalues --  -20.60753 -20.60747 -15.85806 -11.31173 -11.27743
 Alpha  occ. eigenvalues --  -11.27737 -11.27462 -11.26758 -11.26744 -11.22690
 Alpha  occ. eigenvalues --  -11.22420 -11.22355 -11.22287 -11.22157 -11.21611
 Alpha  occ. eigenvalues --   -1.59828  -1.39382  -1.19344  -1.09350  -1.08738
 Alpha  occ. eigenvalues --   -1.04748  -1.04438  -0.96892  -0.95574  -0.87902
 Alpha  occ. eigenvalues --   -0.86143  -0.82409  -0.80502  -0.79124  -0.77453
 Alpha  occ. eigenvalues --   -0.72024  -0.71151  -0.70491  -0.65989  -0.64996
 Alpha  occ. eigenvalues --   -0.64749  -0.62099  -0.61845  -0.60273  -0.58482
 Alpha  occ. eigenvalues --   -0.56264  -0.55186  -0.53570  -0.53294  -0.53077
 Alpha  occ. eigenvalues --   -0.52838  -0.50838  -0.48820  -0.48779  -0.48767
 Alpha  occ. eigenvalues --   -0.47547  -0.46666  -0.46579  -0.44787  -0.44678
 Alpha  occ. eigenvalues --   -0.37322  -0.36354
 Alpha virt. eigenvalues --    0.05072   0.11293   0.16529   0.18356   0.22705
 Alpha virt. eigenvalues --    0.23802   0.25195   0.26169   0.26550   0.27878
 Alpha virt. eigenvalues --    0.29069   0.30155   0.30843   0.31245   0.31813

 Mulliken charges:
               1
     1  C   -0.178400
     2  C   -0.221748
     3  C   -0.170746
     4  C    0.158302
     5  C   -0.170657
     6  C   -0.220514
     7  H    0.237112
     8  H    0.224155
     9  H    0.275587
    10  H    0.275479
    11  H    0.223532
    12  N    0.487997
    13  O   -0.460472
    14  O   -0.460445
    15  C   -0.297825
    16  C   -0.302848
    17  C   -0.479368
    18  H    0.153334
    19  H    0.140977
    20  H    0.157907
    21  H    0.151302
    22  H    0.145434
    23  H    0.162200
    24  H    0.163064
    25  C   -0.299201
    26  C   -0.299746
    27  C   -0.476324
    28  H    0.152367
    29  H    0.151234
    30  H    0.153245
    31  H    0.149904
    32  H    0.156431
    33  H    0.156639
    34  H    0.162090
 Sum of Mulliken charges =  -0.00000

 Dipole moment (field-independent basis, Debye):
    X=             -5.0636    Y=              1.6296    Z=              1.1214  Tot=              5.4363
 Quadrupole moment (field-independent basis, Debye-Ang):
   XX=           -126.6456   YY=            -92.6454   ZZ=            -93.8335
   XY=              6.0756   XZ=              3.4743   YZ=             -3.3744

 Normal termination of Gaussian 16 at Thu May  6 07:46:39 2021.
