 Gaussian 16, Revision A.03,
 Gaussian 16:  EM64L-G16RevA.03 25-Dec-2016

 -------------
 #p 6-31g* mp2
 -------------

 ------------------------------------------------------
 Input file generated by CHIRIPA (05-May-2021 14:51:10)
 ------------------------------------------------------
 Symbolic Z-matrix:
 Charge =  0 Multiplicity = 1

                         Standard orientation:
 ---------------------------------------------------------------------
 Center     Atomic      Atomic             Coordinates (Angstroms)
 Number     Number       Type             X           Y           Z
 ---------------------------------------------------------------------
      1          6           0        1.939407    0.923126    0.230232
      2          6           0        2.540585    2.034854    1.090832
      3          6           0        1.480446    2.969121    1.674821
      4          1           0        1.356580    1.373640   -0.584811
      5          1           0        1.231118    0.341873    0.836751
      6          1           0        3.248565    2.612980    0.483254
      7          1           0        3.122207    1.581642    1.903809
      8          1           0        0.779330    2.410926    2.303675
      9          1           0        0.906406    3.448124    0.875048
     10          1           0        1.932123    3.756320    2.286512
     11          6           0        2.986738   -0.019051   -0.360639
     12          6           0        2.385561   -1.130778   -1.221239
     13          6           0        3.445700   -2.065045   -1.805227
     14          1           0        3.695028    0.562203   -0.967157
     15          1           0        3.569565   -0.469565    0.454404
     16          1           0        1.803939   -0.677566   -2.034216
     17          1           0        1.677581   -1.708904   -0.613661
     18          1           0        4.019739   -2.544048   -1.005455
     19          1           0        4.146815   -1.506850   -2.434081
     20          1           0        2.994023   -2.852244   -2.416919
     21          6           0       -3.005706    0.049201   -0.129068
     22          6           0       -2.656531    0.869860   -1.371074
     23          6           0       -3.751851    1.868180   -1.747141
     24          1           0       -3.948145   -0.487299   -0.304912
     25          1           0       -3.186667    0.731007    0.713420
     26          1           0       -2.474929    0.186644   -2.210630
     27          1           0       -1.714714    1.404318   -1.192325
     28          1           0       -3.928673    2.572743   -0.928041
     29          1           0       -4.693206    1.348151   -1.952133
     30          1           0       -3.481545    2.444152   -2.637675
     31          6           0       -1.920440   -0.953276    0.259474
     32          6           0       -2.269615   -1.773936    1.501481
     33          6           0       -1.174295   -2.772255    1.877547
     34          1           0       -1.739479   -1.635083   -0.583015
     35          1           0       -0.978000   -0.416777    0.435319
     36          1           0       -3.211431   -2.308393    1.322731
     37          1           0       -2.451218   -1.090720    2.341037
     38          1           0       -0.232939   -2.252227    2.082538
     39          1           0       -0.997473   -3.476819    1.058446
     40          1           0       -1.444600   -3.348227    2.768081
 ---------------------------------------------------------------------

 SCF Done:  E(RHF) =  -470.733257855     A.U. after   11 cycles
 E2 =    -0.1584033129D+01 EUMP2 =    -0.47231729098361D+03

 The electronic state is 1-A.
 Alpha  occ. eigenvalues --  -11.21659 -11.21596 -11.21567 -11.21567 -11.21450
 Alpha  occ. eigenvalues --  -11.21379 -11.21347 -11.21267 -11.21144 -11.21122
 Alpha  occ. eigenvalues --  -11.21053 -11.21049  -1.08480  -1.08383  -1.03553
 Alpha  occ. eigenvalues --   -1.03519  -0.96015  -0.95963  -0.87028  -0.86982
 Alpha  occ. eigenvalues --   -0.79616  -0.79579  -0.78470  -0.78030  -0.65170
 Alpha  occ. eigenvalues --   -0.64967  -0.60966  -0.60900  -0.59385  -0.59327
 Alpha  occ. eigenvalues --   -0.57654  -0.57547  -0.55326  -0.55235  -0.52710
 Alpha  occ. eigenvalues --   -0.52662  -0.52460  -0.52373  -0.49992  -0.49880
 Alpha  occ. eigenvalues --   -0.47971  -0.47901  -0.46752  -0.46586  -0.46372
 Alpha  occ. eigenvalues --   -0.45729  -0.45687  -0.45016  -0.43811  -0.43757
 Alpha virt. eigenvalues --    0.20289   0.22563   0.23618   0.24252   0.25240
 Alpha virt. eigenvalues --    0.26390   0.26979   0.27874   0.27952   0.30403
 Alpha virt. eigenvalues --    0.31000   0.31537   0.31637   0.31830   0.31985

 Mulliken charges:
               1
     1  C   -0.305978
     2  C   -0.298950
     3  C   -0.476013
     4  H    0.151180
     5  H    0.154609
     6  H    0.152334
     7  H    0.152104
     8  H    0.154480
     9  H    0.155072
    10  H    0.160843
    11  C   -0.297859
    12  C   -0.302028
    13  C   -0.475700
    14  H    0.149603
    15  H    0.149519
    16  H    0.152237
    17  H    0.155055
    18  H    0.155149
    19  H    0.154991
    20  H    0.160184
    21  C   -0.297606
    22  C   -0.301206
    23  C   -0.475713
    24  H    0.149311
    25  H    0.149299
    26  H    0.151740
    27  H    0.153401
    28  H    0.155277
    29  H    0.155154
    30  H    0.159873
    31  C   -0.308034
    32  C   -0.299267
    33  C   -0.477033
    34  H    0.149519
    35  H    0.160345
    36  H    0.151997
    37  H    0.151457
    38  H    0.154452
    39  H    0.155605
    40  H    0.160599
 Sum of Mulliken charges =  -0.00000

 Dipole moment (field-independent basis, Debye):
    X=              0.0262    Y=              0.0061    Z=             -0.0017  Tot=              0.0269
 Quadrupole moment (field-independent basis, Debye-Ang):
   XX=            -85.5565   YY=            -85.0969   ZZ=            -84.1803
   XY=              1.4236   XZ=              0.2481   YZ=             -0.1245

 Normal termination of Gaussian 16 at Thu May  6 05:24:15 2021.
