 Gaussian 16, Revision A.03,
 Gaussian 16:  EM64L-G16RevA.03 25-Dec-2016

 -------------
 #p 6-31g* mp2
 -------------

 ------------------------------------------------------
 Input file generated by CHIRIPA (05-May-2021 14:51:09)
 ------------------------------------------------------
 Symbolic Z-matrix:
 Charge =  0 Multiplicity = 1

                         Standard orientation:
 ---------------------------------------------------------------------
 Center     Atomic      Atomic             Coordinates (Angstroms)
 Number     Number       Type             X           Y           Z
 ---------------------------------------------------------------------
      1          6           0        5.127224    0.270477    0.432689
      2          6           0        6.178557   -0.659242   -0.174194
      3          6           0        7.434618   -0.775157    0.689907
      4          1           0        5.567575    1.266498    0.577521
      5          1           0        4.853897   -0.098599    1.430923
      6          1           0        6.448806   -0.289299   -1.171552
      7          1           0        5.735594   -1.653116   -0.317775
      8          1           0        7.185185   -1.165908    1.681723
      9          1           0        7.902449    0.205657    0.823094
     10          1           0        8.172867   -1.444527    0.237366
     11          6           0        3.865714    0.396633   -0.419604
     12          6           0        2.814380    1.326352    0.187278
     13          6           0        1.558320    1.442267   -0.676822
     14          1           0        4.139041    0.765708   -1.417838
     15          1           0        3.425362   -0.599389   -0.564436
     16          1           0        3.257343    2.320225    0.330860
     17          1           0        2.544132    0.956409    1.184637
     18          1           0        1.090489    0.461453   -0.810009
     19          1           0        1.807752    1.833018   -1.668638
     20          1           0        0.820071    2.111636   -0.224281
     21          6           0       -5.225622   -0.512699    0.133725
     22          6           0       -6.137176    0.708708    0.257090
     23          6           0       -7.592755    0.334092    0.537712
     24          1           0       -5.599997   -1.162063   -0.669466
     25          1           0       -5.282045   -1.098837    1.061440
     26          1           0       -6.077988    1.293106   -0.670051
     27          1           0       -5.760476    1.355334    1.059953
     28          1           0       -7.672047   -0.229613    1.472886
     29          1           0       -7.991365   -0.292194   -0.266947
     30          1           0       -8.226764    1.222217    0.622128
     31          6           0       -3.767316   -0.154410   -0.146810
     32          6           0       -2.855762   -1.375818   -0.270176
     33          6           0       -1.400184   -1.001202   -0.550797
     34          1           0       -3.710893    0.431728   -1.074524
     35          1           0       -3.392940    0.494953    0.656380
     36          1           0       -3.232462   -2.022444   -1.073038
     37          1           0       -2.914949   -1.960215    0.656966
     38          1           0       -1.001574   -0.374915    0.253863
     39          1           0       -1.320890   -0.437498   -1.485971
     40          1           0       -0.766174   -1.889327   -0.635213
 ---------------------------------------------------------------------

 SCF Done:  E(RHF) =  -470.732806759     A.U. after   11 cycles
 E2 =    -0.1582515440D+01 EUMP2 =    -0.47231532219932D+03

 The electronic state is 1-A.
 Alpha  occ. eigenvalues --  -11.21596 -11.21588 -11.21571 -11.21518 -11.21397
 Alpha  occ. eigenvalues --  -11.21357 -11.21338 -11.21295 -11.21067 -11.21052
 Alpha  occ. eigenvalues --  -11.21048 -11.20881  -1.08425  -1.08373  -1.03541
 Alpha  occ. eigenvalues --   -1.03451  -0.96029  -0.95867  -0.87092  -0.86845
 Alpha  occ. eigenvalues --   -0.79681  -0.79450  -0.78245  -0.78177  -0.65057
 Alpha  occ. eigenvalues --   -0.65004  -0.60953  -0.60845  -0.59363  -0.59269
 Alpha  occ. eigenvalues --   -0.57622  -0.57506  -0.55330  -0.55164  -0.52757
 Alpha  occ. eigenvalues --   -0.52653  -0.52453  -0.52178  -0.49965  -0.49790
 Alpha  occ. eigenvalues --   -0.47992  -0.47737  -0.46636  -0.46526  -0.45814
 Alpha  occ. eigenvalues --   -0.45704  -0.45691  -0.45601  -0.43777  -0.43719
 Alpha virt. eigenvalues --    0.22476   0.22958   0.23723   0.24719   0.26347
 Alpha virt. eigenvalues --    0.26651   0.27057   0.27437   0.27725   0.29153
 Alpha virt. eigenvalues --    0.30471   0.31358   0.31657   0.31899   0.32028

 Mulliken charges:
               1
     1  C   -0.298213
     2  C   -0.299604
     3  C   -0.475667
     4  H    0.149547
     5  H    0.149350
     6  H    0.151868
     7  H    0.151850
     8  H    0.155103
     9  H    0.155131
    10  H    0.160137
    11  C   -0.298283
    12  C   -0.299532
    13  C   -0.483034
    14  H    0.149377
    15  H    0.149676
    16  H    0.151322
    17  H    0.151097
    18  H    0.167795
    19  H    0.153740
    20  H    0.158794
    21  C   -0.298286
    22  C   -0.299625
    23  C   -0.475700
    24  H    0.149648
    25  H    0.149446
    26  H    0.151985
    27  H    0.151910
    28  H    0.155148
    29  H    0.155176
    30  H    0.160247
    31  C   -0.298242
    32  C   -0.300737
    33  C   -0.478127
    34  H    0.149775
    35  H    0.149586
    36  H    0.151769
    37  H    0.151628
    38  H    0.158090
    39  H    0.156866
    40  H    0.158988
 Sum of Mulliken charges =  -0.00000

 Dipole moment (field-independent basis, Debye):
    X=             -0.0304    Y=             -0.0140    Z=             -0.0120  Tot=              0.0355
 Quadrupole moment (field-independent basis, Debye-Ang):
   XX=            -86.9255   YY=            -84.3082   ZZ=            -83.8227
   XY=              0.3246   XZ=             -0.2938   YZ=             -0.2401

 Normal termination of Gaussian 16 at Thu May  6 03:42:38 2021.
