 Gaussian 16, Revision A.03,
 Gaussian 16:  EM64L-G16RevA.03 25-Dec-2016

 -------------
 #p 6-31g* mp2
 -------------

 ------------------------------------------------------
 Input file generated by CHIRIPA (05-May-2021 14:55:22)
 ------------------------------------------------------
 Symbolic Z-matrix:
 Charge =  0 Multiplicity = 1

                         Standard orientation:
 ---------------------------------------------------------------------
 Center     Atomic      Atomic             Coordinates (Angstroms)
 Number     Number       Type             X           Y           Z
 ---------------------------------------------------------------------
      1          6           0        5.119706    0.398793   -0.037065
      2          6           0        4.432987    0.306697    1.178030
      3          6           0        3.122388   -0.178371    1.217900
      4          6           0        2.526297   -0.564252    0.018291
      5          6           0        3.184265   -0.484446   -1.208085
      6          6           0        4.494256    0.003624   -1.224152
      7          1           0        6.137575    0.776772   -0.058791
      8          1           0        4.916216    0.612865    2.101499
      9          1           0        2.567610   -0.260215    2.144691
     10          1           0        2.676186   -0.797286   -2.112190
     11          1           0        5.025146    0.074042   -2.169267
     12          7           0        1.139147   -1.079360    0.047900
     13          8           0        0.636255   -1.412875   -1.022850
     14          8           0        0.581056   -1.139835    1.141296
     15          6           0       -3.240901    1.255967   -0.316024
     16          6           0       -1.959547    1.727817    0.372070
     17          6           0       -1.400703    3.014092   -0.237012
     18          1           0       -3.039559    1.099990   -1.384704
     19          1           0       -3.996716    2.051067   -0.253147
     20          1           0       -1.206830    0.931532    0.309125
     21          1           0       -2.163915    1.882505    1.439273
     22          1           0       -2.131491    3.825704   -0.160603
     23          1           0       -1.168967    2.869327   -1.297173
     24          1           0       -0.484793    3.333429    0.269934
     25          6           0       -3.811684   -0.028817    0.281691
     26          6           0       -5.093039   -0.500666   -0.406404
     27          6           0       -5.651883   -1.786943    0.202679
     28          1           0       -3.055870   -0.823918    0.218814
     29          1           0       -4.013027    0.127160    1.350371
     30          1           0       -4.888671   -0.655355   -1.473606
     31          1           0       -5.845757    0.295619   -0.343457
     32          1           0       -5.883618   -1.642176    1.262840
     33          1           0       -4.921095   -2.598554    0.126271
     34          1           0       -6.567792   -2.106279   -0.304266
 ---------------------------------------------------------------------

 SCF Done:  E(RHF) =  -669.536364206     A.U. after   15 cycles
 E2 =    -0.2091613773D+01 EUMP2 =    -0.67162797797884D+03

 The electronic state is 1-A.
 Alpha  occ. eigenvalues --  -20.61032 -20.61014 -15.86036 -11.31327 -11.27887
 Alpha  occ. eigenvalues --  -11.27882 -11.27619 -11.26884 -11.26874 -11.20575
 Alpha  occ. eigenvalues --  -11.20442 -11.20333 -11.20276 -11.20133 -11.20078
 Alpha  occ. eigenvalues --   -1.60083  -1.39636  -1.19492  -1.08904  -1.07306
 Alpha  occ. eigenvalues --   -1.04882  -1.02530  -0.95751  -0.95003  -0.86284
 Alpha  occ. eigenvalues --   -0.86023  -0.82586  -0.78575  -0.77644  -0.77092
 Alpha  occ. eigenvalues --   -0.72253  -0.71407  -0.70601  -0.65146  -0.64886
 Alpha  occ. eigenvalues --   -0.63922  -0.62229  -0.59926  -0.58379  -0.56610
 Alpha  occ. eigenvalues --   -0.55390  -0.54290  -0.53217  -0.52973  -0.51744
 Alpha  occ. eigenvalues --   -0.51430  -0.49074  -0.49022  -0.48911  -0.46908
 Alpha  occ. eigenvalues --   -0.45625  -0.45061  -0.44653  -0.44416  -0.42751
 Alpha  occ. eigenvalues --   -0.37467  -0.36480
 Alpha virt. eigenvalues --    0.04845   0.11176   0.16343   0.21308   0.23966
 Alpha virt. eigenvalues --    0.25196   0.27234   0.27734   0.28161   0.28675
 Alpha virt. eigenvalues --    0.28985   0.30883   0.32314   0.32403   0.32635

 Mulliken charges:
               1
     1  C   -0.170349
     2  C   -0.218641
     3  C   -0.170593
     4  C    0.158876
     5  C   -0.170623
     6  C   -0.218590
     7  H    0.226183
     8  H    0.224008
     9  H    0.276156
    10  H    0.275790
    11  H    0.223968
    12  N    0.486796
    13  O   -0.460218
    14  O   -0.458141
    15  C   -0.296635
    16  C   -0.305466
    17  C   -0.475769
    18  H    0.149588
    19  H    0.143381
    20  H    0.168313
    21  H    0.148754
    22  H    0.152170
    23  H    0.153296
    24  H    0.153956
    25  C   -0.302119
    26  C   -0.298926
    27  C   -0.475461
    28  H    0.167700
    29  H    0.146072
    30  H    0.151322
    31  H    0.147282
    32  H    0.153145
    33  H    0.158611
    34  H    0.156162
 Sum of Mulliken charges =  -0.00000

 Dipole moment (field-independent basis, Debye):
    X=              5.1686    Y=              1.6031    Z=             -0.0845  Tot=              5.4122
 Quadrupole moment (field-independent basis, Debye-Ang):
   XX=            -71.5467   YY=            -98.7887   ZZ=            -89.5278
   XY=              1.5300   XZ=             -0.5521   YZ=              1.5111

 Normal termination of Gaussian 16 at Wed May  5 17:28:47 2021.
