 Gaussian 16, Revision A.03,
 Gaussian 16:  EM64L-G16RevA.03 25-Dec-2016

 -------------
 #p 6-31g* mp2
 -------------

 ------------------------------------------------------
 Input file generated by CHIRIPA (05-May-2021 14:55:26)
 ------------------------------------------------------
 Symbolic Z-matrix:
 Charge =  0 Multiplicity = 1

                         Standard orientation:
 ---------------------------------------------------------------------
 Center     Atomic      Atomic             Coordinates (Angstroms)
 Number     Number       Type             X           Y           Z
 ---------------------------------------------------------------------
      1          6           0        3.644325   -2.569984    0.283676
      2          6           0        4.599887   -1.587767    0.003189
      3          6           0        4.216062   -0.256371   -0.182850
      4          6           0        2.862013    0.058969   -0.080852
      5          6           0        1.886257   -0.896937    0.197416
      6          6           0        2.292942   -2.222047    0.379725
      7          1           0        3.951369   -3.601803    0.426747
      8          1           0        5.650095   -1.855083   -0.071986
      9          1           0        4.934908    0.524058   -0.401041
     10          1           0        0.846796   -0.599942    0.266213
     11          1           0        1.548648   -2.982750    0.597444
     12          7           0        2.443574    1.465132   -0.275828
     13          8           0        1.244376    1.717180   -0.180782
     14          8           0        3.322722    2.288608   -0.520006
     15          6           0       -3.644026    0.975272    0.006086
     16          6           0       -2.299221    1.439346    0.566550
     17          6           0       -2.098606    2.950374    0.446799
     18          1           0       -3.717191    1.273861   -1.048635
     19          1           0       -4.453564    1.496662    0.535422
     20          1           0       -1.492501    0.916209    0.037261
     21          1           0       -2.229169    1.139450    1.620007
     22          1           0       -2.882816    3.487369    0.990170
     23          1           0       -2.141964    3.262860   -0.601569
     24          1           0       -1.130935    3.260365    0.853465
     25          6           0       -3.859275   -0.532947    0.118631
     26          6           0       -5.204081   -0.997021   -0.441835
     27          6           0       -5.404695   -2.508049   -0.322082
     28          1           0       -3.049738   -1.054337   -0.410706
     29          1           0       -3.786110   -0.831536    1.173352
     30          1           0       -5.274132   -0.697125   -1.495291
     31          1           0       -6.010800   -0.473884    0.087455
     32          1           0       -5.361338   -2.820535    0.726285
     33          1           0       -4.620486   -3.045044   -0.865455
     34          1           0       -6.372367   -2.818039   -0.728749
 ---------------------------------------------------------------------

 SCF Done:  E(RHF) =  -669.535904111     A.U. after   15 cycles
 E2 =    -0.2091818674D+01 EUMP2 =    -0.67162772278536D+03

 The electronic state is 1-A.
 Alpha  occ. eigenvalues --  -20.60916 -20.60905 -15.85951 -11.31265 -11.27830
 Alpha  occ. eigenvalues --  -11.27820 -11.27568 -11.26837 -11.26825 -11.21455
 Alpha  occ. eigenvalues --  -11.21183 -11.21049 -11.20843 -11.20723 -11.19811
 Alpha  occ. eigenvalues --   -1.59981  -1.39537  -1.19435  -1.08841  -1.08009
 Alpha  occ. eigenvalues --   -1.04830  -1.02978  -0.95696  -0.95415  -0.86450
 Alpha  occ. eigenvalues --   -0.86230  -0.82520  -0.79117  -0.77838  -0.77519
 Alpha  occ. eigenvalues --   -0.72187  -0.71294  -0.70545  -0.65099  -0.64839
 Alpha  occ. eigenvalues --   -0.64635  -0.62181  -0.60368  -0.58851  -0.56988
 Alpha  occ. eigenvalues --   -0.55336  -0.54734  -0.53164  -0.52925  -0.52067
 Alpha  occ. eigenvalues --   -0.51856  -0.49421  -0.48956  -0.48914  -0.47383
 Alpha  occ. eigenvalues --   -0.46170  -0.45319  -0.45203  -0.44939  -0.43233
 Alpha  occ. eigenvalues --   -0.37416  -0.36431
 Alpha virt. eigenvalues --    0.04947   0.11222   0.16442   0.20757   0.23139
 Alpha virt. eigenvalues --    0.24413   0.25685   0.27299   0.27613   0.28556
 Alpha virt. eigenvalues --    0.29130   0.30450   0.31550   0.31996   0.32890

 Mulliken charges:
               1
     1  C   -0.170292
     2  C   -0.218867
     3  C   -0.170303
     4  C    0.156030
     5  C   -0.172146
     6  C   -0.220514
     7  H    0.225943
     8  H    0.223690
     9  H    0.275715
    10  H    0.281437
    11  H    0.224493
    12  N    0.493892
    13  O   -0.466970
    14  O   -0.459241
    15  C   -0.297722
    16  C   -0.305406
    17  C   -0.473938
    18  H    0.150011
    19  H    0.148241
    20  H    0.162132
    21  H    0.144795
    22  H    0.146071
    23  H    0.154946
    24  H    0.177219
    25  C   -0.296810
    26  C   -0.299015
    27  C   -0.475304
    28  H    0.142951
    29  H    0.147028
    30  H    0.152610
    31  H    0.152667
    32  H    0.153879
    33  H    0.152576
    34  H    0.160205
 Sum of Mulliken charges =  -0.00000

 Dipole moment (field-independent basis, Debye):
    X=              1.7134    Y=             -4.8325    Z=              0.6502  Tot=              5.1684
 Quadrupole moment (field-independent basis, Debye-Ang):
   XX=            -82.3311   YY=            -96.5632   ZZ=            -94.8976
   XY=            -13.3139   XZ=              0.7807   YZ=              0.2365

 Normal termination of Gaussian 16 at Thu May  6 12:45:49 2021.
