 Gaussian 16, Revision A.03,
 Gaussian 16:  EM64L-G16RevA.03 25-Dec-2016

 -------------
 #p 6-31g* mp2
 -------------

 ------------------------------------------------------
 Input file generated by CHIRIPA (05-May-2021 14:55:19)
 ------------------------------------------------------
 Symbolic Z-matrix:
 Charge =  0 Multiplicity = 1

                         Standard orientation:
 ---------------------------------------------------------------------
 Center     Atomic      Atomic             Coordinates (Angstroms)
 Number     Number       Type             X           Y           Z
 ---------------------------------------------------------------------
      1          6           0        1.036411   -2.344814    1.124706
      2          6           0        2.265659   -1.828345    1.547471
      3          6           0        2.901069   -0.819794    0.816972
      4          6           0        2.276091   -0.348859   -0.336680
      5          6           0        1.051659   -0.843081   -0.783670
      6          6           0        0.434396   -1.851404   -0.037467
      7          1           0        0.549858   -3.128192    1.698274
      8          1           0        2.735521   -2.209623    2.449636
      9          1           0        3.852974   -0.402005    1.121516
     10          1           0        0.607812   -0.442867   -1.687134
     11          1           0       -0.520227   -2.250618   -0.368176
     12          7           0        2.939165    0.718728   -1.118339
     13          8           0        2.367846    1.116621   -2.131212
     14          8           0        4.017647    1.137394   -0.703329
     15          6           0       -2.260551    0.788841    0.819759
     16          6           0       -1.617291    2.175001    0.767190
     17          6           0       -0.593305    2.394151    1.881292
     18          1           0       -2.744648    0.653063    1.796571
     19          1           0       -1.474082    0.024489    0.751735
     20          1           0       -2.404860    2.936512    0.833900
     21          1           0       -1.134833    2.307567   -0.209681
     22          1           0        0.212687    1.656251    1.814338
     23          1           0       -1.064556    2.288769    2.863848
     24          1           0       -0.145848    3.391374    1.824835
     25          6           0       -3.286479    0.554674   -0.287655
     26          6           0       -3.929739   -0.831485   -0.235086
     27          6           0       -4.953724   -1.050636   -1.349188
     28          1           0       -4.072948    1.319026   -0.219631
     29          1           0       -2.802382    0.690452   -1.264467
     30          1           0       -4.412196   -0.964052    0.741785
     31          1           0       -3.142169   -1.592997   -0.301796
     32          1           0       -4.482473   -0.945255   -2.331744
     33          1           0       -5.759716   -0.312736   -1.282233
     34          1           0       -5.401181   -2.047859   -1.292732
 ---------------------------------------------------------------------

 SCF Done:  E(RHF) =  -669.534880045     A.U. after   15 cycles
 E2 =    -0.2094344622D+01 EUMP2 =    -0.67162922466749D+03

 The electronic state is 1-A.
 Alpha  occ. eigenvalues --  -20.60860 -20.60853 -15.85915 -11.31327 -11.27887
 Alpha  occ. eigenvalues --  -11.27880 -11.27611 -11.26896 -11.26883 -11.22253
 Alpha  occ. eigenvalues --  -11.21771 -11.21627 -11.21573 -11.21493 -11.21038
 Alpha  occ. eigenvalues --   -1.59933  -1.39485  -1.19501  -1.08885  -1.08746
 Alpha  occ. eigenvalues --   -1.04909  -1.03815  -0.96247  -0.95705  -0.87266
 Alpha  occ. eigenvalues --   -0.86295  -0.82541  -0.79914  -0.78544  -0.77577
 Alpha  occ. eigenvalues --   -0.72129  -0.71257  -0.70580  -0.65488  -0.65133
 Alpha  occ. eigenvalues --   -0.64858  -0.62232  -0.61236  -0.59631  -0.57852
 Alpha  occ. eigenvalues --   -0.55548  -0.55380  -0.53278  -0.53023  -0.52912
 Alpha  occ. eigenvalues --   -0.52660  -0.50217  -0.48895  -0.48883  -0.48208
 Alpha  occ. eigenvalues --   -0.46972  -0.46060  -0.45970  -0.44879  -0.44057
 Alpha  occ. eigenvalues --   -0.37451  -0.36404
 Alpha virt. eigenvalues --    0.04942   0.11051   0.16340   0.19482   0.23009
 Alpha virt. eigenvalues --    0.23640   0.25311   0.26143   0.27325   0.28504
 Alpha virt. eigenvalues --    0.29595   0.29865   0.31474   0.31531   0.32086

 Mulliken charges:
               1
     1  C   -0.171399
     2  C   -0.218006
     3  C   -0.171589
     4  C    0.159896
     5  C   -0.171145
     6  C   -0.223173
     7  H    0.226958
     8  H    0.224352
     9  H    0.276422
    10  H    0.276269
    11  H    0.230366
    12  N    0.488143
    13  O   -0.460382
    14  O   -0.459687
    15  C   -0.307887
    16  C   -0.300491
    17  C   -0.477548
    18  H    0.147698
    19  H    0.155161
    20  H    0.152370
    21  H    0.156174
    22  H    0.155535
    23  H    0.152762
    24  H    0.163996
    25  C   -0.298953
    26  C   -0.300030
    27  C   -0.475659
    28  H    0.152869
    29  H    0.148361
    30  H    0.154013
    31  H    0.140255
    32  H    0.155704
    33  H    0.158608
    34  H    0.160039
 Sum of Mulliken charges =  -0.00000

 Dipole moment (field-independent basis, Debye):
    X=             -2.2626    Y=             -3.7303    Z=              2.7515  Tot=              5.1581
 Quadrupole moment (field-independent basis, Debye-Ang):
   XX=           -102.6216   YY=            -92.6416   ZZ=            -95.1347
   XY=             -8.4617   XZ=              9.0911   YZ=              0.1483

 Normal termination of Gaussian 16 at Thu May  6 07:41:05 2021.
