 Gaussian 16, Revision A.03,
 Gaussian 16:  EM64L-G16RevA.03 25-Dec-2016

 -------------
 #p 6-31g* mp2
 -------------

 ------------------------------------------------------
 Input file generated by CHIRIPA (05-May-2021 14:53:13)
 ------------------------------------------------------
 Symbolic Z-matrix:
 Charge =  0 Multiplicity = 1

                         Standard orientation:
 ---------------------------------------------------------------------
 Center     Atomic      Atomic             Coordinates (Angstroms)
 Number     Number       Type             X           Y           Z
 ---------------------------------------------------------------------
      1          6           0        4.109529    0.140401    0.219915
      2          6           0        5.536263    0.202588   -0.326481
      3          6           0        6.238416    1.520333    0.002644
      4          1           0        3.529831    0.978769   -0.190005
      5          1           0        4.135104    0.281181    1.309374
      6          1           0        5.508130    0.060351   -1.414412
      7          1           0        6.112579   -0.636136    0.084637
      8          1           0        6.295973    1.666024    1.086186
      9          1           0        5.688090    2.366468   -0.421381
     10          1           0        7.256916    1.543354   -0.397341
     11          6           0        3.394517   -1.170889   -0.101027
     12          6           0        1.967783   -1.233077    0.445370
     13          6           0        1.265630   -2.550821    0.116244
     14          1           0        3.368941   -1.311670   -1.190486
     15          1           0        3.974215   -2.009257    0.308893
     16          1           0        1.391467   -0.394353    0.034251
     17          1           0        1.995916   -1.090839    1.533300
     18          1           0        1.815956   -3.396957    0.540269
     19          1           0        1.208073   -2.696513   -0.967298
     20          1           0        0.247130   -2.573843    0.516229
     21          6           0       -1.801345    2.658156   -0.009442
     22          6           0       -1.039649    1.496254   -0.171686
     23          6           0       -1.655068    0.241136   -0.193693
     24          6           0       -3.040505    0.184470   -0.050018
     25          6           0       -3.826738    1.323970    0.113278
     26          6           0       -3.190010    2.568463    0.132273
     27          1           0       -1.314996    3.629036    0.006484
     28          1           0        0.038982    1.562887   -0.281973
     29          1           0       -1.089508   -0.674368   -0.317843
     30          1           0       -4.900143    1.225682    0.220799
     31          1           0       -3.784083    3.469135    0.258427
     32          7           0       -3.703300   -1.138645   -0.071720
     33          8           0       -4.925415   -1.161665    0.056899
     34          8           0       -2.988135   -2.127627   -0.216940
 ---------------------------------------------------------------------

 SCF Done:  E(RHF) =  -669.534860108     A.U. after   15 cycles
 E2 =    -0.2092853829D+01 EUMP2 =    -0.67162771393649D+03

 The electronic state is 1-A.
 Alpha  occ. eigenvalues --  -20.60760 -20.60755 -15.85805 -11.31129 -11.27710
 Alpha  occ. eigenvalues --  -11.27645 -11.27449 -11.26722 -11.26685 -11.22298
 Alpha  occ. eigenvalues --  -11.22073 -11.21983 -11.21906 -11.21510 -11.21347
 Alpha  occ. eigenvalues --   -1.59830  -1.39385  -1.19306  -1.08993  -1.08711
 Alpha  occ. eigenvalues --   -1.04720  -1.04037  -0.96455  -0.95548  -0.87455
 Alpha  occ. eigenvalues --   -0.86106  -0.82401  -0.80113  -0.78832  -0.77435
 Alpha  occ. eigenvalues --   -0.72027  -0.71150  -0.70436  -0.65658  -0.64957
 Alpha  occ. eigenvalues --   -0.64731  -0.62293  -0.61292  -0.59758  -0.58053
 Alpha  occ. eigenvalues --   -0.55737  -0.55188  -0.53129  -0.53034  -0.53016
 Alpha  occ. eigenvalues --   -0.52623  -0.50377  -0.48791  -0.48779  -0.48399
 Alpha  occ. eigenvalues --   -0.47163  -0.46356  -0.46263  -0.44799  -0.44274
 Alpha  occ. eigenvalues --   -0.37293  -0.36301
 Alpha virt. eigenvalues --    0.05077   0.11328   0.16576   0.19653   0.22747
 Alpha virt. eigenvalues --    0.23680   0.24553   0.26419   0.26693   0.28488
 Alpha virt. eigenvalues --    0.29675   0.30520   0.31277   0.31596   0.32354

 Mulliken charges:
               1
     1  C   -0.297585
     2  C   -0.300082
     3  C   -0.475866
     4  H    0.142325
     5  H    0.150957
     6  H    0.152950
     7  H    0.154321
     8  H    0.155807
     9  H    0.153500
    10  H    0.162186
    11  C   -0.297726
    12  C   -0.306537
    13  C   -0.487296
    14  H    0.150995
    15  H    0.153867
    16  H    0.139743
    17  H    0.156229
    18  H    0.161398
    19  H    0.157947
    20  H    0.173158
    21  C   -0.170341
    22  C   -0.225150
    23  C   -0.177855
    24  C    0.156722
    25  C   -0.170174
    26  C   -0.219151
    27  H    0.225527
    28  H    0.226767
    29  H    0.289134
    30  H    0.275330
    31  H    0.223217
    32  N    0.488102
    33  O   -0.460127
    34  O   -0.462292
 Sum of Mulliken charges =  -0.00000

 Dipole moment (field-independent basis, Debye):
    X=              2.4633    Y=              4.4946    Z=              0.1200  Tot=              5.1268
 Quadrupole moment (field-independent basis, Debye-Ang):
   XX=           -104.8734   YY=            -92.7157   ZZ=            -94.8068
   XY=            -17.1279   XZ=             -0.7184   YZ=             -0.4636

 Normal termination of Gaussian 16 at Thu May  6 04:09:17 2021.
