 Gaussian 16, Revision A.03,
 Gaussian 16:  EM64L-G16RevA.03 25-Dec-2016

 -------------
 #p 6-31g* mp2
 -------------

 ------------------------------------------------------
 Input file generated by CHIRIPA (05-May-2021 14:53:16)
 ------------------------------------------------------
 Symbolic Z-matrix:
 Charge =  0 Multiplicity = 1

                         Standard orientation:
 ---------------------------------------------------------------------
 Center     Atomic      Atomic             Coordinates (Angstroms)
 Number     Number       Type             X           Y           Z
 ---------------------------------------------------------------------
      1          6           0        3.624133   -0.745422    0.507847
      2          6           0        2.304473   -1.379966    0.067580
      3          6           0        1.856556   -2.513475    0.990792
      4          1           0        4.402206   -1.520188    0.543712
      5          1           0        3.515574   -0.363792    1.532527
      6          1           0        2.415066   -1.759053   -0.956470
      7          1           0        1.529495   -0.603563    0.032574
      8          1           0        1.718481   -2.146124    2.012843
      9          1           0        2.609083   -3.308179    1.018179
     10          1           0        0.911146   -2.952820    0.657572
     11          6           0        4.085043    0.389331   -0.405184
     12          6           0        5.404703    1.023874    0.035084
     13          6           0        5.852620    2.157384   -0.888128
     14          1           0        4.193602    0.007700   -1.429863
     15          1           0        3.306970    1.164096   -0.441048
     16          1           0        6.179681    0.247472    0.070090
     17          1           0        5.294110    1.402962    1.059134
     18          1           0        5.100093    2.952088   -0.915516
     19          1           0        5.990695    1.790033   -1.910179
     20          1           0        6.798030    2.596729   -0.554908
     21          6           0       -3.710854    2.472278    0.617891
     22          6           0       -2.850645    1.740457    1.443118
     23          6           0       -2.456485    0.446840    1.088520
     24          6           0       -2.943776   -0.086465   -0.103715
     25          6           0       -3.801992    0.617526   -0.947013
     26          6           0       -4.182950    1.909469   -0.572442
     27          1           0       -4.011919    3.476540    0.901110
     28          1           0       -2.482443    2.175004    2.368127
     29          1           0       -1.791571   -0.141894    1.708761
     30          1           0       -4.152534    0.157611   -1.862991
     31          1           0       -4.851107    2.475485   -1.215276
     32          7           0       -2.533485   -1.455073   -0.489685
     33          8           0       -2.976718   -1.902341   -1.545210
     34          8           0       -1.776433   -2.054606    0.270625
 ---------------------------------------------------------------------

 SCF Done:  E(RHF) =  -669.536172326     A.U. after   15 cycles
 E2 =    -0.2091044521D+01 EUMP2 =    -0.67162721684721D+03

 The electronic state is 1-A.
 Alpha  occ. eigenvalues --  -20.60926 -20.60921 -15.85959 -11.31282 -11.27844
 Alpha  occ. eigenvalues --  -11.27841 -11.27584 -11.26855 -11.26845 -11.21381
 Alpha  occ. eigenvalues --  -11.21059 -11.20923 -11.20906 -11.20840 -11.19945
 Alpha  occ. eigenvalues --   -1.59985  -1.39541  -1.19450  -1.08855  -1.07990
 Alpha  occ. eigenvalues --   -1.04847  -1.03001  -0.95702  -0.95429  -0.86456
 Alpha  occ. eigenvalues --   -0.86247  -0.82530  -0.79096  -0.77783  -0.77582
 Alpha  occ. eigenvalues --   -0.72190  -0.71298  -0.70559  -0.65108  -0.64851
 Alpha  occ. eigenvalues --   -0.64636  -0.62194  -0.60419  -0.58821  -0.57005
 Alpha  occ. eigenvalues --   -0.55352  -0.54755  -0.53179  -0.52939  -0.52067
 Alpha  occ. eigenvalues --   -0.51857  -0.49424  -0.48943  -0.48929  -0.47385
 Alpha  occ. eigenvalues --   -0.46167  -0.45322  -0.45265  -0.44930  -0.43228
 Alpha  occ. eigenvalues --   -0.37429  -0.36449
 Alpha virt. eigenvalues --    0.04928   0.11190   0.16407   0.21231   0.23200
 Alpha virt. eigenvalues --    0.24664   0.26885   0.27322   0.27800   0.28044
 Alpha virt. eigenvalues --    0.28902   0.30899   0.31707   0.32146   0.32715

 Mulliken charges:
               1
     1  C   -0.297415
     2  C   -0.297176
     3  C   -0.483504
     4  H    0.149294
     5  H    0.145588
     6  H    0.152910
     7  H    0.147008
     8  H    0.146138
     9  H    0.149562
    10  H    0.188554
    11  C   -0.297376
    12  C   -0.299049
    13  C   -0.475271
    14  H    0.150093
    15  H    0.146665
    16  H    0.152228
    17  H    0.150130
    18  H    0.153467
    19  H    0.155507
    20  H    0.159208
    21  C   -0.170618
    22  C   -0.218562
    23  C   -0.171393
    24  C    0.158042
    25  C   -0.170643
    26  C   -0.218552
    27  H    0.225957
    28  H    0.223780
    29  H    0.276424
    30  H    0.275853
    31  H    0.223802
    32  N    0.491514
    33  O   -0.459053
    34  O   -0.463109
 Sum of Mulliken charges =  -0.00000

 Dipole moment (field-independent basis, Debye):
    X=             -1.6879    Y=              4.7263    Z=              1.2968  Tot=              5.1835
 Quadrupole moment (field-independent basis, Debye-Ang):
   XX=            -85.8737   YY=            -96.2326   ZZ=            -91.9554
   XY=            -15.3747   XZ=             -1.4196   YZ=              0.1127

 Normal termination of Gaussian 16 at Thu May  6 17:14:16 2021.
