 Gaussian 16, Revision A.03,
 Gaussian 16:  EM64L-G16RevA.03 25-Dec-2016

 -------------
 #p 6-31g* mp2
 -------------

 ------------------------------------------------------
 Input file generated by CHIRIPA (05-May-2021 14:51:13)
 ------------------------------------------------------
 Symbolic Z-matrix:
 Charge =  0 Multiplicity = 1

                         Standard orientation:
 ---------------------------------------------------------------------
 Center     Atomic      Atomic             Coordinates (Angstroms)
 Number     Number       Type             X           Y           Z
 ---------------------------------------------------------------------
      1          6           0        3.480914   -0.080360    0.126001
      2          6           0        3.082034   -1.351088   -0.625083
      3          6           0        3.877971   -2.577200   -0.176835
      4          1           0        4.553995    0.103399   -0.021224
      5          1           0        3.335908   -0.238928    1.203602
      6          1           0        3.226439   -1.189695   -1.701055
      7          1           0        2.009738   -1.531738   -0.476211
      8          1           0        3.725620   -2.766215    0.890716
      9          1           0        4.949235   -2.422229   -0.341088
     10          1           0        3.576748   -3.474359   -0.726591
     11          6           0        2.693980    1.153931   -0.311021
     12          6           0        3.092860    2.424660    0.440064
     13          6           0        2.296923    3.650772   -0.008185
     14          1           0        2.838986    1.312499   -1.388622
     15          1           0        1.620899    0.970173   -0.163796
     16          1           0        4.165156    2.605309    0.291191
     17          1           0        2.948455    2.263266    1.516036
     18          1           0        1.225659    3.495801    0.156069
     19          1           0        2.449274    3.839787   -1.075735
     20          1           0        2.598146    4.547930    0.541571
     21          6           0       -2.682518   -1.158975   -0.087337
     22          6           0       -1.384056   -1.288685    0.709631
     23          6           0       -0.585028   -2.538357    0.338596
     24          1           0       -3.298751   -2.052985    0.079838
     25          1           0       -2.445645   -1.138753   -1.160127
     26          1           0       -1.623200   -1.307263    1.780650
     27          1           0       -0.770926   -0.394176    0.540690
     28          1           0       -0.317721   -2.523596   -0.722974
     29          1           0       -1.174837   -3.441872    0.524031
     30          1           0        0.339246   -2.611263    0.920199
     31          6           0       -3.492377    0.085403    0.272356
     32          6           0       -4.790838    0.215114   -0.524612
     33          6           0       -5.589866    1.464785   -0.153576
     34          1           0       -3.729248    0.065181    1.345146
     35          1           0       -2.876143    0.979413    0.105181
     36          1           0       -5.403968   -0.679396   -0.355671
     37          1           0       -4.551694    0.233692   -1.595631
     38          1           0       -5.000056    2.368301   -0.339011
     39          1           0       -5.857174    1.450025    0.907994
     40          1           0       -6.514140    1.537692   -0.735179
 ---------------------------------------------------------------------

 SCF Done:  E(RHF) =  -470.732772098     A.U. after   11 cycles
 E2 =    -0.1583631073D+01 EUMP2 =    -0.47231640317082D+03

 The electronic state is 1-A.
 Alpha  occ. eigenvalues --  -11.21696 -11.21630 -11.21600 -11.21457 -11.21452
 Alpha  occ. eigenvalues --  -11.21395 -11.21390 -11.21315 -11.21138 -11.21091
 Alpha  occ. eigenvalues --  -11.21081 -11.21020  -1.08491  -1.08395  -1.03606
 Alpha  occ. eigenvalues --   -1.03480  -0.96049  -0.95946  -0.87071  -0.86957
 Alpha  occ. eigenvalues --   -0.79699  -0.79515  -0.78297  -0.78218  -0.65220
 Alpha  occ. eigenvalues --   -0.64960  -0.61118  -0.60825  -0.59427  -0.59272
 Alpha  occ. eigenvalues --   -0.57644  -0.57562  -0.55359  -0.55227  -0.52743
 Alpha  occ. eigenvalues --   -0.52634  -0.52463  -0.52372  -0.50089  -0.49814
 Alpha  occ. eigenvalues --   -0.47983  -0.47856  -0.46800  -0.46429  -0.45918
 Alpha  occ. eigenvalues --   -0.45761  -0.45727  -0.45570  -0.43825  -0.43742
 Alpha virt. eigenvalues --    0.20164   0.23129   0.23593   0.24336   0.25893
 Alpha virt. eigenvalues --    0.26823   0.27054   0.27512   0.28062   0.29208
 Alpha virt. eigenvalues --    0.30633   0.31480   0.31698   0.31916   0.32311

 Mulliken charges:
               1
     1  C   -0.297303
     2  C   -0.310681
     3  C   -0.475367
     4  H    0.149440
     5  H    0.148835
     6  H    0.150731
     7  H    0.165517
     8  H    0.154193
     9  H    0.154982
    10  H    0.160382
    11  C   -0.302098
    12  C   -0.299451
    13  C   -0.475642
    14  H    0.149482
    15  H    0.152054
    16  H    0.152128
    17  H    0.152066
    18  H    0.154690
    19  H    0.155108
    20  H    0.160379
    21  C   -0.298299
    22  C   -0.304865
    23  C   -0.480017
    24  H    0.150053
    25  H    0.150128
    26  H    0.152511
    27  H    0.154825
    28  H    0.156747
    29  H    0.156877
    30  H    0.162283
    31  C   -0.298331
    32  C   -0.299727
    33  C   -0.475770
    34  H    0.149593
    35  H    0.149495
    36  H    0.152018
    37  H    0.152129
    38  H    0.155318
    39  H    0.155192
    40  H    0.160395
 Sum of Mulliken charges =  -0.00000

 Dipole moment (field-independent basis, Debye):
    X=             -0.0515    Y=             -0.0251    Z=             -0.0016  Tot=              0.0573
 Quadrupole moment (field-independent basis, Debye-Ang):
   XX=            -84.8683   YY=            -86.1232   ZZ=            -83.8366
   XY=              1.5276   XZ=             -0.8494   YZ=             -0.4521

 Normal termination of Gaussian 16 at Wed May  5 23:13:03 2021.
