 Gaussian 16, Revision A.03,
 Gaussian 16:  EM64L-G16RevA.03 25-Dec-2016

 -------------
 #p 6-31g* mp2
 -------------

 ------------------------------------------------------
 Input file generated by CHIRIPA (05-May-2021 14:55:25)
 ------------------------------------------------------
 Symbolic Z-matrix:
 Charge =  0 Multiplicity = 1

                         Standard orientation:
 ---------------------------------------------------------------------
 Center     Atomic      Atomic             Coordinates (Angstroms)
 Number     Number       Type             X           Y           Z
 ---------------------------------------------------------------------
      1          6           0        2.085166    2.123172    0.098547
      2          6           0        2.322939    1.398575    1.271127
      3          6           0        3.047654    0.203644    1.232725
      4          6           0        3.522030   -0.239414   -0.000951
      5          6           0        3.301601    0.459972   -1.186515
      6          6           0        2.574393    1.652388   -1.124376
      7          1           0        1.521221    3.050446    0.137599
      8          1           0        1.944205    1.761788    2.222275
      9          1           0        3.246263   -0.377211    2.125239
     10          1           0        3.691863    0.072568   -2.119806
     11          1           0        2.391259    2.213034   -2.036616
     12          7           0        4.290573   -1.503102   -0.054171
     13          8           0        4.697758   -1.872047   -1.153588
     14          8           0        4.471220   -2.100709    1.004541
     15          6           0       -5.097780    0.006404   -0.141310
     16          6           0       -5.695033   -1.379671    0.103782
     17          6           0       -7.199675   -1.430655   -0.163140
     18          1           0       -5.610127    0.737819    0.498596
     19          1           0       -5.297260    0.305588   -1.179621
     20          1           0       -5.493282   -1.676740    1.140924
     21          1           0       -5.181074   -2.107902   -0.536641
     22          1           0       -7.416112   -1.159657   -1.201560
     23          1           0       -7.730093   -0.726045    0.485537
     24          1           0       -7.605932   -2.430610    0.018258
     25          6           0       -3.594353    0.073320    0.121291
     26          6           0       -2.997101    1.459396   -0.123800
     27          6           0       -1.492459    1.510380    0.143121
     28          1           0       -3.394874   -0.225863    1.159603
     29          1           0       -3.082008   -0.658094   -0.518614
     30          1           0       -3.511059    2.187627    0.516623
     31          1           0       -3.198851    1.756464   -1.160942
     32          1           0       -0.962040    0.805769   -0.505555
     33          1           0       -1.276022    1.239382    1.181541
     34          1           0       -1.086202    2.510335   -0.038276
 ---------------------------------------------------------------------

 SCF Done:  E(RHF) =  -669.535309075     A.U. after   15 cycles
 E2 =    -0.2091547431D+01 EUMP2 =    -0.67162685650576D+03

 The electronic state is 1-A.
 Alpha  occ. eigenvalues --  -20.60730 -20.60725 -15.85785 -11.31133 -11.27722
 Alpha  occ. eigenvalues --  -11.27713 -11.27450 -11.26719 -11.26708 -11.22114
 Alpha  occ. eigenvalues --  -11.21831 -11.21774 -11.21762 -11.21673 -11.21263
 Alpha  occ. eigenvalues --   -1.59807  -1.39361  -1.19317  -1.08806  -1.08707
 Alpha  occ. eigenvalues --   -1.04720  -1.03928  -0.96396  -0.95542  -0.87414
 Alpha  occ. eigenvalues --   -0.86116  -0.82381  -0.79994  -0.78591  -0.77429
 Alpha  occ. eigenvalues --   -0.72004  -0.71131  -0.70433  -0.65428  -0.64969
 Alpha  occ. eigenvalues --   -0.64723  -0.62070  -0.61319  -0.59800  -0.57995
 Alpha  occ. eigenvalues --   -0.55669  -0.55241  -0.53364  -0.52911  -0.52813
 Alpha  occ. eigenvalues --   -0.52665  -0.50318  -0.48761  -0.48759  -0.48303
 Alpha  occ. eigenvalues --   -0.47013  -0.46138  -0.46050  -0.44770  -0.44192
 Alpha  occ. eigenvalues --   -0.37229  -0.36324
 Alpha virt. eigenvalues --    0.05102   0.11293   0.16560   0.20690   0.22606
 Alpha virt. eigenvalues --    0.23999   0.26243   0.26484   0.26932   0.27414
 Alpha virt. eigenvalues --    0.28458   0.30037   0.31105   0.31646   0.32533

 Mulliken charges:
               1
     1  C   -0.163732
     2  C   -0.218627
     3  C   -0.171110
     4  C    0.158110
     5  C   -0.171223
     6  C   -0.220680
     7  H    0.226125
     8  H    0.223244
     9  H    0.275366
    10  H    0.275345
    11  H    0.223149
    12  N    0.488126
    13  O   -0.460760
    14  O   -0.460644
    15  C   -0.298494
    16  C   -0.300024
    17  C   -0.475912
    18  H    0.149512
    19  H    0.149747
    20  H    0.152401
    21  H    0.153136
    22  H    0.155358
    23  H    0.155072
    24  H    0.161404
    25  C   -0.298842
    26  C   -0.300795
    27  C   -0.473922
    28  H    0.149914
    29  H    0.151600
    30  H    0.151542
    31  H    0.152124
    32  H    0.161434
    33  H    0.153720
    34  H    0.148335
 Sum of Mulliken charges =  -0.00000

 Dipole moment (field-independent basis, Debye):
    X=             -2.7833    Y=              4.4104    Z=              0.1818  Tot=              5.2183
 Quadrupole moment (field-independent basis, Debye-Ang):
   XX=           -115.6502   YY=            -97.6846   ZZ=            -88.9485
   XY=             16.4927   XZ=             -0.2312   YZ=             -0.4308

 Normal termination of Gaussian 16 at Thu May  6 19:21:49 2021.
