 Gaussian 16, Revision A.03,
 Gaussian 16:  EM64L-G16RevA.03 25-Dec-2016

 -------------
 #p 6-31g* mp2
 -------------

 ------------------------------------------------------
 Input file generated by CHIRIPA (05-May-2021 14:55:25)
 ------------------------------------------------------
 Symbolic Z-matrix:
 Charge =  0 Multiplicity = 1

                         Standard orientation:
 ---------------------------------------------------------------------
 Center     Atomic      Atomic             Coordinates (Angstroms)
 Number     Number       Type             X           Y           Z
 ---------------------------------------------------------------------
      1          6           0        1.910129    1.970709    0.000149
      2          6           0        3.256039    2.339878    0.093746
      3          6           0        4.263612    1.372762    0.030269
      4          6           0        3.887790    0.039716   -0.127960
      5          6           0        2.555658   -0.359586   -0.224242
      6          6           0        1.564842    0.624528   -0.158267
      7          1           0        1.133931    2.728590    0.050429
      8          1           0        3.527135    3.384583    0.216811
      9          1           0        5.313363    1.630775    0.100057
     10          1           0        2.316412   -1.408979   -0.346533
     11          1           0        0.520408    0.334913   -0.231236
     12          7           0        4.945593   -0.993124   -0.196482
     13          8           0        4.588324   -2.160803   -0.336208
     14          8           0        6.111937   -0.615429   -0.109167
     15          6           0       -5.330882   -0.347950   -0.344082
     16          6           0       -6.601995    0.383948    0.087873
     17          6           0       -7.748708    0.216022   -0.909445
     18          1           0       -5.018702    0.023223   -1.329840
     19          1           0       -5.555773   -1.416205   -0.469185
     20          1           0       -6.374447    1.450280    0.213466
     21          1           0       -6.911078    0.011126    1.072804
     22          1           0       -8.004176   -0.841920   -1.028178
     23          1           0       -7.464496    0.605412   -1.892399
     24          1           0       -8.647461    0.747270   -0.580995
     25          6           0       -4.175553   -0.189498    0.642749
     26          6           0       -2.904442   -0.921396    0.210793
     27          6           0       -1.757728   -0.753470    1.208112
     28          1           0       -3.950664    0.878756    0.767853
     29          1           0       -4.487734   -0.560670    1.628507
     30          1           0       -2.595358   -0.548574   -0.774137
     31          1           0       -3.131989   -1.987729    0.085202
     32          1           0       -2.041941   -1.142860    2.191067
     33          1           0       -1.502260    0.304472    1.326846
     34          1           0       -0.858975   -1.284718    0.879663
 ---------------------------------------------------------------------

 SCF Done:  E(RHF) =  -669.534932130     A.U. after   15 cycles
 E2 =    -0.2091357795D+01 EUMP2 =    -0.67162628992431D+03

 The electronic state is 1-A.
 Alpha  occ. eigenvalues --  -20.60712 -20.60707 -15.85764 -11.31119 -11.27679
 Alpha  occ. eigenvalues --  -11.27664 -11.27410 -11.26705 -11.26599 -11.22516
 Alpha  occ. eigenvalues --  -11.22184 -11.22125 -11.22094 -11.21954 -11.21477
 Alpha  occ. eigenvalues --   -1.59788  -1.39341  -1.19281  -1.09130  -1.08680
 Alpha  occ. eigenvalues --   -1.04686  -1.04256  -0.96723  -0.95520  -0.87749
 Alpha  occ. eigenvalues --   -0.86074  -0.82353  -0.80324  -0.78901  -0.77402
 Alpha  occ. eigenvalues --   -0.71983  -0.71110  -0.70399  -0.65787  -0.64933
 Alpha  occ. eigenvalues --   -0.64716  -0.62163  -0.61573  -0.60075  -0.58305
 Alpha  occ. eigenvalues --   -0.56023  -0.55177  -0.53514  -0.53140  -0.53000
 Alpha  occ. eigenvalues --   -0.52647  -0.50621  -0.48739  -0.48736  -0.48634
 Alpha  occ. eigenvalues --   -0.47349  -0.46449  -0.46355  -0.44750  -0.44493
 Alpha  occ. eigenvalues --   -0.37263  -0.36272
 Alpha virt. eigenvalues --    0.05121   0.11345   0.16595   0.19930   0.22559
 Alpha virt. eigenvalues --    0.23810   0.25838   0.26220   0.26786   0.27414
 Alpha virt. eigenvalues --    0.29255   0.30498   0.30549   0.31057   0.31595

 Mulliken charges:
               1
     1  C   -0.173739
     2  C   -0.218201
     3  C   -0.171559
     4  C    0.158934
     5  C   -0.174413
     6  C   -0.222566
     7  H    0.224808
     8  H    0.222974
     9  H    0.275265
    10  H    0.274816
    11  H    0.236061
    12  N    0.488100
    13  O   -0.460621
    14  O   -0.460675
    15  C   -0.298827
    16  C   -0.300079
    17  C   -0.476074
    18  H    0.149630
    19  H    0.151564
    20  H    0.151554
    21  H    0.153106
    22  H    0.156328
    23  H    0.155443
    24  H    0.161589
    25  C   -0.298432
    26  C   -0.302882
    27  C   -0.481229
    28  H    0.148006
    29  H    0.152500
    30  H    0.149494
    31  H    0.157375
    32  H    0.164553
    33  H    0.150394
    34  H    0.156803
 Sum of Mulliken charges =  -0.00000

 Dipole moment (field-independent basis, Debye):
    X=             -3.9785    Y=              3.5870    Z=              0.2921  Tot=              5.3647
 Quadrupole moment (field-independent basis, Debye-Ang):
   XX=           -121.6393   YY=            -91.5266   ZZ=            -95.7053
   XY=             17.3818   XZ=              1.0064   YZ=             -0.5499

 Normal termination of Gaussian 16 at Wed May  5 22:28:21 2021.
