 Gaussian 16, Revision A.03,
 Gaussian 16:  EM64L-G16RevA.03 25-Dec-2016

 -------------
 #p 6-31g* mp2
 -------------

 ------------------------------------------------------
 Input file generated by CHIRIPA (05-May-2021 14:53:16)
 ------------------------------------------------------
 Symbolic Z-matrix:
 Charge =  0 Multiplicity = 1

                         Standard orientation:
 ---------------------------------------------------------------------
 Center     Atomic      Atomic             Coordinates (Angstroms)
 Number     Number       Type             X           Y           Z
 ---------------------------------------------------------------------
      1          6           0       -3.724545    0.772558   -0.255655
      2          6           0       -4.848801    1.769695    0.026749
      3          6           0       -4.470526    3.205755   -0.337164
      4          1           0       -2.828788    1.070869    0.306106
      5          1           0       -3.457307    0.823762   -1.320248
      6          1           0       -5.114786    1.715637    1.090208
      7          1           0       -5.742044    1.468867   -0.535600
      8          1           0       -4.225098    3.281579   -1.401409
      9          1           0       -3.594276    3.529751    0.233637
     10          1           0       -5.288565    3.901883   -0.127215
     11          6           0       -4.087610   -0.667337    0.102971
     12          6           0       -2.963354   -1.664473   -0.179433
     13          6           0       -3.341630   -3.100534    0.184480
     14          1           0       -4.354849   -0.718540    1.167564
     15          1           0       -4.983367   -0.965648   -0.458789
     16          1           0       -2.070112   -1.363646    0.382916
     17          1           0       -2.697369   -1.610416   -1.242892
     18          1           0       -4.217879   -3.424530   -0.386321
     19          1           0       -3.587058   -3.176358    1.248725
     20          1           0       -2.523591   -3.796661   -0.025469
     21          6           0        1.453594   -1.992421    0.127290
     22          6           0        1.076565   -0.759723    0.670267
     23          6           0        1.953879    0.328325    0.638351
     24          6           0        3.206115    0.147544    0.053102
     25          6           0        3.610907   -1.068030   -0.496273
     26          6           0        2.717334   -2.142377   -0.453224
     27          1           0        0.765760   -2.832322    0.156407
     28          1           0        0.095762   -0.640365    1.121737
     29          1           0        1.687717    1.293751    1.051300
     30          1           0        4.595306   -1.156434   -0.939625
     31          1           0        3.012836   -3.098542   -0.875683
     32          7           0        4.143495    1.292159    0.013421
     33          8           0        5.241071    1.107075   -0.507836
     34          8           0        3.762888    2.352719    0.504327
 ---------------------------------------------------------------------

 SCF Done:  E(RHF) =  -669.535359888     A.U. after   15 cycles
 E2 =    -0.2091412855D+01 EUMP2 =    -0.67162677274294D+03

 The electronic state is 1-A.
 Alpha  occ. eigenvalues --  -20.60737 -20.60732 -15.85791 -11.31152 -11.27723
 Alpha  occ. eigenvalues --  -11.27717 -11.27457 -11.26735 -11.26714 -11.22663
 Alpha  occ. eigenvalues --  -11.22183 -11.22110 -11.22079 -11.22038 -11.21436
 Alpha  occ. eigenvalues --   -1.59813  -1.39367  -1.19324  -1.09189  -1.08718
 Alpha  occ. eigenvalues --   -1.04730  -1.04268  -0.96695  -0.95554  -0.87710
 Alpha  occ. eigenvalues --   -0.86131  -0.82388  -0.80360  -0.78974  -0.77436
 Alpha  occ. eigenvalues --   -0.72010  -0.71136  -0.70429  -0.65858  -0.64976
 Alpha  occ. eigenvalues --   -0.64735  -0.62125  -0.61620  -0.60096  -0.58305
 Alpha  occ. eigenvalues --   -0.55965  -0.55225  -0.53406  -0.53124  -0.53050
 Alpha  occ. eigenvalues --   -0.52833  -0.50628  -0.48796  -0.48764  -0.48626
 Alpha  occ. eigenvalues --   -0.47387  -0.46508  -0.46411  -0.44773  -0.44519
 Alpha  occ. eigenvalues --   -0.37296  -0.36327
 Alpha virt. eigenvalues --    0.05099   0.11271   0.16583   0.19092   0.22577
 Alpha virt. eigenvalues --    0.23557   0.24523   0.26138   0.26400   0.28569
 Alpha virt. eigenvalues --    0.28968   0.29901   0.31059   0.31547   0.32431

 Mulliken charges:
               1
     1  C   -0.297766
     2  C   -0.300397
     3  C   -0.476166
     4  H    0.144684
     5  H    0.152289
     6  H    0.152428
     7  H    0.153417
     8  H    0.156725
     9  H    0.155810
    10  H    0.162287
    11  C   -0.298733
    12  C   -0.303868
    13  C   -0.475810
    14  H    0.150464
    15  H    0.153203
    16  H    0.142848
    17  H    0.156217
    18  H    0.160507
    19  H    0.157275
    20  H    0.154799
    21  C   -0.172151
    22  C   -0.220842
    23  C   -0.171541
    24  C    0.158673
    25  C   -0.171064
    26  C   -0.218767
    27  H    0.226693
    28  H    0.227603
    29  H    0.275476
    30  H    0.275469
    31  H    0.223289
    32  N    0.488001
    33  O   -0.460535
    34  O   -0.460519
 Sum of Mulliken charges =  -0.00000

 Dipole moment (field-independent basis, Debye):
    X=             -3.5127    Y=             -3.9986    Z=              0.0729  Tot=              5.3230
 Quadrupole moment (field-independent basis, Debye-Ang):
   XX=           -113.0257   YY=            -95.7587   ZZ=            -93.4934
   XY=            -15.8790   XZ=             -1.0139   YZ=              1.7612

 Normal termination of Gaussian 16 at Wed May  5 17:13:42 2021.
