 Gaussian 16, Revision A.03,
 Gaussian 16:  EM64L-G16RevA.03 25-Dec-2016

 -------------
 #p 6-31g* mp2
 -------------

 ------------------------------------------------------
 Input file generated by CHIRIPA (05-May-2021 14:53:16)
 ------------------------------------------------------
 Symbolic Z-matrix:
 Charge =  0 Multiplicity = 1

                         Standard orientation:
 ---------------------------------------------------------------------
 Center     Atomic      Atomic             Coordinates (Angstroms)
 Number     Number       Type             X           Y           Z
 ---------------------------------------------------------------------
      1          6           0        4.217415    0.692703   -0.056533
      2          6           0        3.235600    1.643937    0.628434
      3          6           0        3.573941    3.115693    0.389157
      4          1           0        5.233259    0.900594    0.306490
      5          1           0        4.223186    0.897757   -1.136030
      6          1           0        3.230656    1.436220    1.706138
      7          1           0        2.221950    1.433629    0.263881
      8          1           0        3.559650    3.345171   -0.681234
      9          1           0        4.574088    3.347776    0.769218
     10          1           0        2.859414    3.778085    0.887704
     11          6           0        3.892400   -0.782156    0.173429
     12          6           0        4.874214   -1.733390   -0.511538
     13          6           0        4.535873   -3.205146   -0.272261
     14          1           0        3.886629   -0.987210    1.252927
     15          1           0        2.876555   -0.990047   -0.189594
     16          1           0        5.887865   -1.523082   -0.146985
     17          1           0        4.879159   -1.525673   -1.589241
     18          1           0        3.535727   -3.437229   -0.652321
     19          1           0        4.550165   -3.434624    0.798130
     20          1           0        5.250400   -3.867538   -0.770807
     21          6           0       -1.707419    2.054104   -0.440529
     22          6           0       -3.098965    2.169900   -0.522464
     23          6           0       -3.917967    1.057811   -0.305572
     24          6           0       -3.309090   -0.160263   -0.007488
     25          6           0       -1.925714   -0.307566    0.081196
     26          6           0       -1.126260    0.817919   -0.139491
     27          1           0       -1.078792    2.923205   -0.610489
     28          1           0       -3.553062    3.128683   -0.756084
     29          1           0       -4.997952    1.119281   -0.362783
     30          1           0       -1.502143   -1.276549    0.315880
     31          1           0       -0.045850    0.725038   -0.075207
     32          7           0       -4.165784   -1.344672    0.224135
     33          8           0       -3.604798   -2.406634    0.485226
     34          8           0       -5.382025   -1.188623    0.140203
 ---------------------------------------------------------------------

 SCF Done:  E(RHF) =  -669.535507228     A.U. after   15 cycles
 E2 =    -0.2091120657D+01 EUMP2 =    -0.67162662788498D+03

 The electronic state is 1-A.
 Alpha  occ. eigenvalues --  -20.60737 -20.60732 -15.85790 -11.31153 -11.27723
 Alpha  occ. eigenvalues --  -11.27715 -11.27461 -11.26740 -11.26710 -11.22665
 Alpha  occ. eigenvalues --  -11.22192 -11.22137 -11.22078 -11.21997 -11.21455
 Alpha  occ. eigenvalues --   -1.59813  -1.39366  -1.19325  -1.09201  -1.08721
 Alpha  occ. eigenvalues --   -1.04728  -1.04262  -0.96684  -0.95556  -0.87702
 Alpha  occ. eigenvalues --   -0.86130  -0.82389  -0.80354  -0.79000  -0.77436
 Alpha  occ. eigenvalues --   -0.72009  -0.71136  -0.70433  -0.65866  -0.64977
 Alpha  occ. eigenvalues --   -0.64731  -0.62118  -0.61623  -0.60075  -0.58296
 Alpha  occ. eigenvalues --   -0.55960  -0.55231  -0.53388  -0.53110  -0.53058
 Alpha  occ. eigenvalues --   -0.52833  -0.50626  -0.48792  -0.48764  -0.48623
 Alpha  occ. eigenvalues --   -0.47387  -0.46533  -0.46436  -0.44772  -0.44517
 Alpha  occ. eigenvalues --   -0.37307  -0.36331
 Alpha virt. eigenvalues --    0.05099   0.11317   0.16592   0.18974   0.22687
 Alpha virt. eigenvalues --    0.23709   0.24442   0.26355   0.27084   0.28337
 Alpha virt. eigenvalues --    0.29000   0.30396   0.31138   0.31169   0.31951

 Mulliken charges:
               1
     1  C   -0.298286
     2  C   -0.305105
     3  C   -0.476258
     4  H    0.153550
     5  H    0.150552
     6  H    0.156482
     7  H    0.143262
     8  H    0.155502
     9  H    0.160205
    10  H    0.159075
    11  C   -0.298313
    12  C   -0.300300
    13  C   -0.476342
    14  H    0.151872
    15  H    0.143699
    16  H    0.153687
    17  H    0.152826
    18  H    0.155922
    19  H    0.156517
    20  H    0.162566
    21  C   -0.173687
    22  C   -0.218579
    23  C   -0.171319
    24  C    0.159063
    25  C   -0.173080
    26  C   -0.226901
    27  H    0.225618
    28  H    0.223290
    29  H    0.275472
    30  H    0.276240
    31  H    0.235841
    32  N    0.487948
    33  O   -0.460410
    34  O   -0.460609
 Sum of Mulliken charges =  -0.00000

 Dipole moment (field-independent basis, Debye):
    X=              3.2565    Y=              4.1556    Z=             -0.7907  Tot=              5.3385
 Quadrupole moment (field-independent basis, Debye-Ang):
   XX=           -110.2052   YY=            -95.9255   ZZ=            -94.7595
   XY=            -17.1813   XZ=              4.0688   YZ=             -0.3001

 Normal termination of Gaussian 16 at Thu May  6 07:30:03 2021.
