 Gaussian 16, Revision A.03,
 Gaussian 16:  EM64L-G16RevA.03 25-Dec-2016

 -------------
 #p 6-31g* mp2
 -------------

 ------------------------------------------------------
 Input file generated by CHIRIPA (05-May-2021 14:57:22)
 ------------------------------------------------------
 Symbolic Z-matrix:
 Charge =  0 Multiplicity = 1

                         Standard orientation:
 ---------------------------------------------------------------------
 Center     Atomic      Atomic             Coordinates (Angstroms)
 Number     Number       Type             X           Y           Z
 ---------------------------------------------------------------------
      1          6           0       -1.441529   -1.969567   -0.838277
      2          6           0       -2.804207   -2.284117   -0.812081
      3          6           0       -3.747285   -1.324281   -0.432782
      4          6           0       -3.290569   -0.054134   -0.084320
      5          6           0       -1.939739    0.289794   -0.100439
      6          6           0       -1.014396   -0.685879   -0.482999
      7          1           0       -0.715812   -2.721342   -1.134192
      8          1           0       -3.138805   -3.280231   -1.087485
      9          1           0       -4.808260   -1.540853   -0.403695
     10          1           0       -1.636556    1.291368    0.179468
     11          1           0        0.043245   -0.438771   -0.502421
     12          7           0       -4.279576    0.970385    0.318952
     13          8           0       -3.851576    2.082127    0.621413
     14          8           0       -5.464031    0.642261    0.324941
     15          6           0        3.401488   -2.182307    0.861735
     16          6           0        4.201043   -1.658877   -0.159663
     17          6           0        4.057944   -0.327566   -0.561757
     18          6           0        3.101088    0.455521    0.082053
     19          6           0        2.289492   -0.036930    1.102883
     20          6           0        2.449942   -1.371093    1.488644
     21          1           0        3.519390   -3.217610    1.167747
     22          1           0        4.940840   -2.286552   -0.648304
     23          1           0        4.663714    0.103294   -1.349678
     24          1           0        1.560609    0.613273    1.571267
     25          1           0        1.827613   -1.774909    2.282169
     26          7           0        2.940411    1.866431   -0.334980
     27          8           0        2.090173    2.535642    0.248019
     28          8           0        3.667753    2.276376   -1.236954
 ---------------------------------------------------------------------

 SCF Done:  E(RHF) =  -868.337055755     A.U. after   16 cycles
 E2 =    -0.2601599857D+01 EUMP2 =    -0.87093865561171D+03

 The electronic state is 1-A.
 Alpha  occ. eigenvalues --  -20.61614 -20.61595 -20.60650 -20.60631 -15.86662
 Alpha  occ. eigenvalues --  -15.85697 -11.32190 -11.31131 -11.28732 -11.28696
 Alpha  occ. eigenvalues --  -11.28448 -11.27751 -11.27734 -11.27726 -11.27638
 Alpha  occ. eigenvalues --  -11.27499 -11.26784 -11.26636  -1.60682  -1.59720
 Alpha  occ. eigenvalues --   -1.40230  -1.39269  -1.20367  -1.19316  -1.09708
 Alpha  occ. eigenvalues --   -1.08709  -1.05764  -1.04718  -0.96519  -0.95526
 Alpha  occ. eigenvalues --   -0.87140  -0.86118  -0.83325  -0.82352  -0.78371
 Alpha  occ. eigenvalues --   -0.77379  -0.72857  -0.72028  -0.71912  -0.71412
 Alpha  occ. eigenvalues --   -0.71047  -0.70432  -0.65974  -0.65711  -0.64961
 Alpha  occ. eigenvalues --   -0.64748  -0.63077  -0.62056  -0.56206  -0.55271
 Alpha  occ. eigenvalues --   -0.54197  -0.53800  -0.53064  -0.52678  -0.49633
 Alpha  occ. eigenvalues --   -0.49616  -0.48681  -0.48661  -0.45594  -0.44659
 Alpha  occ. eigenvalues --   -0.38348  -0.37526  -0.37202  -0.36282
 Alpha virt. eigenvalues --    0.04117   0.05136   0.10174   0.11293   0.15615
 Alpha virt. eigenvalues --    0.16601   0.20456   0.21572   0.26107   0.27003
 Alpha virt. eigenvalues --    0.27703   0.28418   0.30376   0.31061   0.31601

 Mulliken charges:
               1
     1  C   -0.174702
     2  C   -0.218767
     3  C   -0.171449
     4  C    0.158993
     5  C   -0.176751
     6  C   -0.226133
     7  H    0.222841
     8  H    0.221910
     9  H    0.275337
    10  H    0.283700
    11  H    0.230986
    12  N    0.487731
    13  O   -0.457246
    14  O   -0.461609
    15  C   -0.173719
    16  C   -0.218223
    17  C   -0.171438
    18  C    0.159820
    19  C   -0.188515
    20  C   -0.217177
    21  H    0.228446
    22  H    0.226872
    23  H    0.278921
    24  H    0.278947
    25  H    0.228965
    26  N    0.487984
    27  O   -0.459994
    28  O   -0.455731
 Sum of Mulliken charges =  -0.00000

 Dipole moment (field-independent basis, Debye):
    X=              4.3173    Y=             -8.4868    Z=              0.0812  Tot=              9.5221
 Quadrupole moment (field-independent basis, Debye-Ang):
   XX=           -118.7481   YY=           -107.4932   ZZ=           -103.0259
   XY=             -1.5843   XZ=              6.7395   YZ=              1.4901

 Normal termination of Gaussian 16 at Thu May  6 01:45:59 2021.
