 Gaussian 16, Revision A.03,
 Gaussian 16:  EM64L-G16RevA.03 25-Dec-2016

 -------------
 #p 6-31g* mp2
 -------------

 ------------------------------------------------------
 Input file generated by CHIRIPA (05-May-2021 14:53:17)
 ------------------------------------------------------
 Symbolic Z-matrix:
 Charge =  0 Multiplicity = 1

                         Standard orientation:
 ---------------------------------------------------------------------
 Center     Atomic      Atomic             Coordinates (Angstroms)
 Number     Number       Type             X           Y           Z
 ---------------------------------------------------------------------
      1          6           0       -4.329833    0.064746   -0.625429
      2          6           0       -4.903524   -1.207831   -0.001401
      3          6           0       -5.789602   -1.993090   -0.968886
      4          1           0       -5.156344    0.702428   -0.967756
      5          1           0       -3.750372   -0.202860   -1.519860
      6          1           0       -5.480583   -0.938036    0.892372
      7          1           0       -4.075557   -1.842471    0.339653
      8          1           0       -5.221675   -2.290690   -1.856295
      9          1           0       -6.634685   -1.381116   -1.300435
     10          1           0       -6.189117   -2.898903   -0.502248
     11          6           0       -3.441875    0.860609    0.329485
     12          6           0       -2.868185    2.133186   -0.294543
     13          6           0       -1.982107    2.918445    0.672942
     14          1           0       -4.021337    1.128215    1.223916
     15          1           0       -2.615365    0.222927    0.671812
     16          1           0       -3.696152    2.767826   -0.635597
     17          1           0       -2.291126    1.863391   -1.188316
     18          1           0       -1.137024    2.306471    1.004491
     19          1           0       -2.550034    3.216045    1.560351
     20          1           0       -1.582592    3.824258    0.206304
     21          6           0        1.092727   -1.446687    1.304130
     22          6           0        2.099151   -2.238120    0.740866
     23          6           0        3.180423   -1.647641    0.080007
     24          6           0        3.223675   -0.256552    0.000701
     25          6           0        2.236494    0.559041    0.551676
     26          6           0        1.164484   -0.053089    1.207907
     27          1           0        0.256367   -1.913794    1.815703
     28          1           0        2.046035   -3.320647    0.814062
     29          1           0        3.973278   -2.236458   -0.365070
     30          1           0        2.316966    1.635610    0.462568
     31          1           0        0.384320    0.564051    1.644400
     32          7           0        4.363467    0.380022   -0.696471
     33          8           0        4.378336    1.607725   -0.752712
     34          8           0        5.220384   -0.360787   -1.173473
 ---------------------------------------------------------------------

 SCF Done:  E(RHF) =  -669.535496335     A.U. after   15 cycles
 E2 =    -0.2091282118D+01 EUMP2 =    -0.67162677845296D+03

 The electronic state is 1-A.
 Alpha  occ. eigenvalues --  -20.60768 -20.60763 -15.85822 -11.31198 -11.27773
 Alpha  occ. eigenvalues --  -11.27764 -11.27520 -11.26787 -11.26768 -11.22284
 Alpha  occ. eigenvalues --  -11.22206 -11.22143 -11.21973 -11.21936 -11.21562
 Alpha  occ. eigenvalues --   -1.59844  -1.39397  -1.19374  -1.09100  -1.08767
 Alpha  occ. eigenvalues --   -1.04780  -1.04190  -0.96651  -0.95599  -0.87667
 Alpha  occ. eigenvalues --   -0.86177  -0.82433  -0.80254  -0.78915  -0.77477
 Alpha  occ. eigenvalues --   -0.72040  -0.71167  -0.70480  -0.65752  -0.65026
 Alpha  occ. eigenvalues --   -0.64789  -0.62189  -0.61534  -0.60007  -0.58254
 Alpha  occ. eigenvalues --   -0.55967  -0.55272  -0.53324  -0.53146  -0.53101
 Alpha  occ. eigenvalues --   -0.52817  -0.50588  -0.48808  -0.48794  -0.48559
 Alpha  occ. eigenvalues --   -0.47277  -0.46463  -0.46363  -0.44800  -0.44441
 Alpha  occ. eigenvalues --   -0.37355  -0.36377
 Alpha virt. eigenvalues --    0.05053   0.11204   0.16494   0.19335   0.22632
 Alpha virt. eigenvalues --    0.23647   0.25276   0.26163   0.26634   0.28477
 Alpha virt. eigenvalues --    0.28956   0.29993   0.31138   0.31429   0.31875

 Mulliken charges:
               1
     1  C   -0.298983
     2  C   -0.299181
     3  C   -0.476106
     4  H    0.152239
     5  H    0.151744
     6  H    0.152532
     7  H    0.147876
     8  H    0.156253
     9  H    0.156938
    10  H    0.160891
    11  C   -0.297494
    12  C   -0.300392
    13  C   -0.478614
    14  H    0.150496
    15  H    0.141168
    16  H    0.155784
    17  H    0.155693
    18  H    0.144720
    19  H    0.157750
    20  H    0.166251
    21  C   -0.172128
    22  C   -0.218579
    23  C   -0.170882
    24  C    0.158494
    25  C   -0.172435
    26  C   -0.224199
    27  H    0.226152
    28  H    0.223458
    29  H    0.275697
    30  H    0.276047
    31  H    0.231413
    32  N    0.488109
    33  O   -0.460201
    34  O   -0.460512
 Sum of Mulliken charges =  -0.00000

 Dipole moment (field-independent basis, Debye):
    X=             -4.1674    Y=             -2.1901    Z=              2.3670  Tot=              5.2694
 Quadrupole moment (field-independent basis, Debye-Ang):
   XX=           -119.6560   YY=            -89.4823   ZZ=            -95.6204
   XY=             -9.3570   XZ=              7.1052   YZ=              0.0411

 Normal termination of Gaussian 16 at Thu May  6 07:34:43 2021.
