 Gaussian 16, Revision A.03,
 Gaussian 16:  EM64L-G16RevA.03 25-Dec-2016

 -------------
 #p 6-31g* mp2
 -------------

 ------------------------------------------------------
 Input file generated by CHIRIPA (05-May-2021 14:51:13)
 ------------------------------------------------------
 Symbolic Z-matrix:
 Charge =  0 Multiplicity = 1

                         Standard orientation:
 ---------------------------------------------------------------------
 Center     Atomic      Atomic             Coordinates (Angstroms)
 Number     Number       Type             X           Y           Z
 ---------------------------------------------------------------------
      1          6           0        4.066403   -0.348805   -0.290629
      2          6           0        5.475434   -0.856010    0.018177
      3          6           0        6.210063   -1.355071   -1.226432
      4          1           0        3.487891   -1.155849   -0.760681
      5          1           0        4.129812    0.461753   -1.029798
      6          1           0        5.409494   -1.664436    0.757578
      7          1           0        6.050600   -0.047723    0.487722
      8          1           0        6.305323   -0.552720   -1.965188
      9          1           0        5.660575   -2.178620   -1.693799
     10          1           0        7.215242   -1.713007   -0.982796
     11          6           0        3.319299    0.153469    0.943584
     12          6           0        1.910268    0.660673    0.634778
     13          6           0        1.175639    1.159735    1.879387
     14          1           0        3.255890   -0.657089    1.682753
     15          1           0        3.897811    0.960512    1.413636
     16          1           0        1.335102   -0.147613    0.165233
     17          1           0        1.976208    1.469100   -0.104623
     18          1           0        1.725127    1.983283    2.346754
     19          1           0        1.080379    0.357384    2.618143
     20          1           0        0.170460    1.517670    1.635751
     21          6           0       -3.965864   -0.480429    0.091493
     22          6           0       -5.377729   -0.906678   -0.312156
     23          6           0       -5.910146   -2.064196    0.533113
     24          1           0       -3.290156   -1.342124    0.002922
     25          1           0       -3.966613   -0.191479    1.151636
     26          1           0       -5.374611   -1.193421   -1.371584
     27          1           0       -6.050117   -0.043819   -0.222797
     28          1           0       -5.942068   -1.785577    1.591391
     29          1           0       -5.262724   -2.941710    0.436079
     30          1           0       -6.920728   -2.352746    0.227627
     31          6           0       -3.419837    0.675765   -0.744448
     32          6           0       -2.007972    1.102016   -0.340799
     33          6           0       -1.475556    2.259533   -1.186067
     34          1           0       -3.419088    0.386815   -1.804591
     35          1           0       -4.095546    1.537461   -0.655877
     36          1           0       -1.335584    0.239157   -0.430157
     37          1           0       -2.011091    1.388758    0.718628
     38          1           0       -2.122979    3.137047   -1.089034
     39          1           0       -1.443634    1.980914   -2.244346
     40          1           0       -0.464974    2.548082   -0.880581
 ---------------------------------------------------------------------

 SCF Done:  E(RHF) =  -470.732586856     A.U. after   11 cycles
 E2 =    -0.1583730116D+01 EUMP2 =    -0.47231631697229D+03

 The electronic state is 1-A.
 Alpha  occ. eigenvalues --  -11.21606 -11.21599 -11.21595 -11.21578 -11.21408
 Alpha  occ. eigenvalues --  -11.21392 -11.21348 -11.21332 -11.21075 -11.21068
 Alpha  occ. eigenvalues --  -11.21059 -11.20955  -1.08456  -1.08397  -1.03602
 Alpha  occ. eigenvalues --   -1.03447  -0.96043  -0.95894  -0.87004  -0.86966
 Alpha  occ. eigenvalues --   -0.79630  -0.79556  -0.78285  -0.78207  -0.65089
 Alpha  occ. eigenvalues --   -0.65030  -0.60979  -0.60874  -0.59797  -0.59048
 Alpha  occ. eigenvalues --   -0.57896  -0.57136  -0.55276  -0.55237  -0.52735
 Alpha  occ. eigenvalues --   -0.52591  -0.52434  -0.52316  -0.49941  -0.49877
 Alpha  occ. eigenvalues --   -0.48030  -0.47810  -0.46731  -0.46518  -0.45846
 Alpha  occ. eigenvalues --   -0.45786  -0.45700  -0.45592  -0.43823  -0.43678
 Alpha virt. eigenvalues --    0.21163   0.23089   0.23328   0.25323   0.25626
 Alpha virt. eigenvalues --    0.26440   0.26708   0.27660   0.27725   0.29172
 Alpha virt. eigenvalues --    0.30018   0.30162   0.31076   0.31852   0.31987

 Mulliken charges:
               1
     1  C   -0.298239
     2  C   -0.299618
     3  C   -0.475690
     4  H    0.149360
     5  H    0.149527
     6  H    0.151908
     7  H    0.151970
     8  H    0.155191
     9  H    0.155089
    10  H    0.160240
    11  C   -0.298343
    12  C   -0.301221
    13  C   -0.483501
    14  H    0.149529
    15  H    0.149662
    16  H    0.152977
    17  H    0.152092
    18  H    0.154190
    19  H    0.154659
    20  H    0.169938
    21  C   -0.298316
    22  C   -0.299648
    23  C   -0.475702
    24  H    0.149392
    25  H    0.149657
    26  H    0.151923
    27  H    0.151995
    28  H    0.155235
    29  H    0.155102
    30  H    0.160275
    31  C   -0.297460
    32  C   -0.304310
    33  C   -0.480044
    34  H    0.149478
    35  H    0.149628
    36  H    0.155517
    37  H    0.152464
    38  H    0.154937
    39  H    0.155495
    40  H    0.164663
 Sum of Mulliken charges =  -0.00000

 Dipole moment (field-independent basis, Debye):
    X=             -0.0206    Y=              0.0005    Z=             -0.0080  Tot=              0.0221
 Quadrupole moment (field-independent basis, Debye-Ang):
   XX=            -85.3137   YY=            -84.2967   ZZ=            -85.2853
   XY=             -0.0919   XZ=              0.4237   YZ=              0.4145

 Normal termination of Gaussian 16 at Wed May  5 16:51:00 2021.
