 Gaussian 16, Revision A.03,
 Gaussian 16:  EM64L-G16RevA.03 25-Dec-2016

 -------------
 #p 6-31g* mp2
 -------------

 ------------------------------------------------------
 Input file generated by CHIRIPA (05-May-2021 14:53:13)
 ------------------------------------------------------
 Symbolic Z-matrix:
 Charge =  0 Multiplicity = 1

                         Standard orientation:
 ---------------------------------------------------------------------
 Center     Atomic      Atomic             Coordinates (Angstroms)
 Number     Number       Type             X           Y           Z
 ---------------------------------------------------------------------
      1          6           0        3.551872    0.699561    0.141109
      2          6           0        3.096574    1.829271   -0.783252
      3          6           0        2.169004    2.825430   -0.086778
      4          1           0        2.668965    0.172230    0.527555
      5          1           0        4.063925    1.131656    1.012022
      6          1           0        2.586749    1.395104   -1.652846
      7          1           0        3.980675    2.353853   -1.167694
      8          1           0        2.671637    3.285705    0.770023
      9          1           0        1.269792    2.321509    0.282115
     10          1           0        1.855662    3.624585   -0.765767
     11          6           0        4.479711   -0.304381   -0.540759
     12          6           0        4.935010   -1.434092    0.383602
     13          6           0        5.862579   -2.430251   -0.312873
     14          1           0        3.967658   -0.736477   -1.411673
     15          1           0        5.362619    0.222949   -0.927206
     16          1           0        4.050909   -1.958673    0.768043
     17          1           0        5.444835   -0.999925    1.253196
     18          1           0        6.761792   -1.926330   -0.681765
     19          1           0        5.359946   -2.890526   -1.169674
     20          1           0        6.175922   -3.229406    0.366117
     21          6           0       -5.302005   -1.081963   -0.749260
     22          6           0       -5.052399    0.293244   -0.804261
     23          6           0       -3.856467    0.818288   -0.305641
     24          6           0       -2.928066   -0.064690    0.243642
     25          6           0       -3.147598   -1.439577    0.312801
     26          6           0       -4.350485   -1.942466   -0.191888
     27          1           0       -6.233736   -1.481225   -1.138957
     28          1           0       -5.789547    0.963894   -1.236565
     29          1           0       -3.637503    1.878749   -0.335551
     30          1           0       -2.393650   -2.083129    0.749631
     31          1           0       -4.541637   -3.010908   -0.147845
     32          7           0       -1.658303    0.479424    0.774720
     33          8           0       -0.856525   -0.319575    1.253668
     34          8           0       -1.488885    1.694595    0.701975
 ---------------------------------------------------------------------

 SCF Done:  E(RHF) =  -669.536845187     A.U. after   15 cycles
 E2 =    -0.2091315202D+01 EUMP2 =    -0.67162816038876D+03

 The electronic state is 1-A.
 Alpha  occ. eigenvalues --  -20.61118 -20.61096 -15.86107 -11.31381 -11.27934
 Alpha  occ. eigenvalues --  -11.27929 -11.27662 -11.26928 -11.26918 -11.20783
 Alpha  occ. eigenvalues --  -11.20444 -11.20424 -11.20290 -11.20064 -11.19291
 Alpha  occ. eigenvalues --   -1.60149  -1.39705  -1.19541  -1.08956  -1.07331
 Alpha  occ. eigenvalues --   -1.04928  -1.02407  -0.95805  -0.94835  -0.86331
 Alpha  occ. eigenvalues --   -0.85846  -0.82639  -0.78507  -0.77700  -0.77094
 Alpha  occ. eigenvalues --   -0.72319  -0.71454  -0.70648  -0.65195  -0.64930
 Alpha  occ. eigenvalues --   -0.63966  -0.62274  -0.59805  -0.58272  -0.56446
 Alpha  occ. eigenvalues --   -0.55437  -0.54115  -0.53262  -0.53018  -0.51557
 Alpha  occ. eigenvalues --   -0.51257  -0.49244  -0.49087  -0.48601  -0.46785
 Alpha  occ. eigenvalues --   -0.45549  -0.45094  -0.44650  -0.44489  -0.42663
 Alpha  occ. eigenvalues --   -0.37516  -0.36525
 Alpha virt. eigenvalues --    0.04805   0.11131   0.16310   0.21271   0.23903
 Alpha virt. eigenvalues --    0.25490   0.27196   0.27722   0.28153   0.28624
 Alpha virt. eigenvalues --    0.29223   0.30843   0.32371   0.32549   0.32722

 Mulliken charges:
               1
     1  C   -0.302161
     2  C   -0.297631
     3  C   -0.487002
     4  H    0.163904
     5  H    0.146819
     6  H    0.146750
     7  H    0.144963
     8  H    0.149067
     9  H    0.185559
    10  H    0.151861
    11  C   -0.297036
    12  C   -0.299239
    13  C   -0.474969
    14  H    0.146511
    15  H    0.146165
    16  H    0.153806
    17  H    0.151034
    18  H    0.153633
    19  H    0.153156
    20  H    0.157786
    21  C   -0.170361
    22  C   -0.218593
    23  C   -0.170578
    24  C    0.158323
    25  C   -0.170672
    26  C   -0.218617
    27  H    0.226338
    28  H    0.224197
    29  H    0.276297
    30  H    0.275889
    31  H    0.224119
    32  N    0.488530
    33  O   -0.460047
    34  O   -0.457799
 Sum of Mulliken charges =  -0.00000

 Dipole moment (field-independent basis, Debye):
    X=             -4.9307    Y=             -1.9760    Z=             -1.7410  Tot=              5.5899
 Quadrupole moment (field-independent basis, Debye-Ang):
   XX=            -69.7347   YY=            -91.2006   ZZ=            -96.3966
   XY=              5.3020   XZ=              5.9094   YZ=             -1.6561

 Normal termination of Gaussian 16 at Thu May  6 13:42:09 2021.
