 Gaussian 16, Revision A.03,
 Gaussian 16:  EM64L-G16RevA.03 25-Dec-2016

 -------------
 #p 6-31g* mp2
 -------------

 ------------------------------------------------------
 Input file generated by CHIRIPA (05-May-2021 14:51:08)
 ------------------------------------------------------
 Symbolic Z-matrix:
 Charge =  0 Multiplicity = 1

                         Standard orientation:
 ---------------------------------------------------------------------
 Center     Atomic      Atomic             Coordinates (Angstroms)
 Number     Number       Type             X           Y           Z
 ---------------------------------------------------------------------
      1          6           0        2.104219   -0.200944    0.448499
      2          6           0        1.571783   -0.128169    1.880002
      3          6           0        0.057469   -0.324477    1.958178
      4          1           0        1.602133    0.562103   -0.161922
      5          1           0        1.836829   -1.174269    0.014292
      6          1           0        1.841298    0.844190    2.311852
      7          1           0        2.075334   -0.891351    2.487131
      8          1           0       -0.225832   -1.301116    1.552570
      9          1           0       -0.461197    0.444286    1.376295
     10          1           0       -0.301827   -0.268672    2.990482
     11          6           0        3.616507   -0.006557    0.354007
     12          6           0        4.148943   -0.079331   -1.077496
     13          6           0        5.663257    0.116977   -1.155672
     14          1           0        3.883897    0.966768    0.788214
     15          1           0        4.118593   -0.769604    0.964428
     16          1           0        3.645392    0.683851   -1.684625
     17          1           0        3.879428   -1.051691   -1.509346
     18          1           0        6.181923   -0.651787   -0.573789
     19          1           0        5.946558    1.093616   -0.750064
     20          1           0        6.022553    0.061171   -2.187976
     21          6           0       -3.102664    0.776212   -0.131961
     22          6           0       -2.314351    1.967439   -0.677419
     23          6           0       -2.810877    3.305724   -0.129469
     24          1           0       -4.165437    0.903731   -0.379338
     25          1           0       -3.035330    0.772112    0.964782
     26          1           0       -2.382003    1.968497   -1.772882
     27          1           0       -1.253302    1.836974   -0.428883
     28          1           0       -2.727613    3.329895    0.961899
     29          1           0       -3.862727    3.462165   -0.389738
     30          1           0       -2.233439    4.143616   -0.532411
     31          6           0       -2.618062   -0.568711   -0.670545
     32          6           0       -3.406375   -1.759938   -0.125087
     33          6           0       -2.909849   -3.098223   -0.673036
     34          1           0       -2.685395   -0.564611   -1.767287
     35          1           0       -1.555289   -0.696231   -0.423168
     36          1           0       -4.467424   -1.629474   -0.373624
     37          1           0       -3.338722   -1.760996    0.970376
     38          1           0       -1.857999   -3.254664   -0.412769
     39          1           0       -2.993113   -3.122394   -1.764404
     40          1           0       -3.487286   -3.936116   -0.270095
 ---------------------------------------------------------------------

 SCF Done:  E(RHF) =  -470.731641773     A.U. after   11 cycles
 E2 =    -0.1585091600D+01 EUMP2 =    -0.47231673337274D+03

 The electronic state is 1-A.
 Alpha  occ. eigenvalues --  -11.21680 -11.21632 -11.21612 -11.21508 -11.21478
 Alpha  occ. eigenvalues --  -11.21411 -11.21308 -11.21160 -11.21133 -11.21094
 Alpha  occ. eigenvalues --  -11.21081 -11.21036  -1.08516  -1.08351  -1.03598
 Alpha  occ. eigenvalues --   -1.03495  -0.96088  -0.95903  -0.87081  -0.86953
 Alpha  occ. eigenvalues --   -0.79691  -0.79553  -0.78367  -0.78111  -0.65231
 Alpha  occ. eigenvalues --   -0.64985  -0.61192  -0.60725  -0.59419  -0.59300
 Alpha  occ. eigenvalues --   -0.57703  -0.57512  -0.55420  -0.55159  -0.52739
 Alpha  occ. eigenvalues --   -0.52648  -0.52492  -0.52312  -0.50124  -0.49755
 Alpha  occ. eigenvalues --   -0.48062  -0.47885  -0.46752  -0.46528  -0.46112
 Alpha  occ. eigenvalues --   -0.45754  -0.45654  -0.45211  -0.43842  -0.43720
 Alpha virt. eigenvalues --    0.20445   0.22598   0.23120   0.24181   0.26153
 Alpha virt. eigenvalues --    0.26466   0.26807   0.27798   0.28138   0.29740
 Alpha virt. eigenvalues --    0.30651   0.31325   0.31691   0.31765   0.32320

 Mulliken charges:
               1
     1  C   -0.300827
     2  C   -0.299569
     3  C   -0.485382
     4  H    0.150846
     5  H    0.149594
     6  H    0.152099
     7  H    0.152207
     8  H    0.157100
     9  H    0.164969
    10  H    0.160454
    11  C   -0.298194
    12  C   -0.299774
    13  C   -0.475776
    14  H    0.149749
    15  H    0.149961
    16  H    0.152225
    17  H    0.152143
    18  H    0.155219
    19  H    0.155228
    20  H    0.160446
    21  C   -0.301633
    22  C   -0.304296
    23  C   -0.475596
    24  H    0.150506
    25  H    0.151255
    26  H    0.152734
    27  H    0.153171
    28  H    0.155181
    29  H    0.155649
    30  H    0.159930
    31  C   -0.302804
    32  C   -0.300357
    33  C   -0.475992
    34  H    0.148240
    35  H    0.157564
    36  H    0.151571
    37  H    0.152756
    38  H    0.154126
    39  H    0.155244
    40  H    0.160037
 Sum of Mulliken charges =  -0.00000

 Dipole moment (field-independent basis, Debye):
    X=              0.0393    Y=              0.0079    Z=              0.0222  Tot=              0.0459
 Quadrupole moment (field-independent basis, Debye-Ang):
   XX=            -85.6067   YY=            -84.9404   ZZ=            -84.3467
   XY=             -0.1141   XZ=              0.7694   YZ=             -0.4652

 Normal termination of Gaussian 16 at Wed May  5 21:17:44 2021.
