 Gaussian 16, Revision A.03,
 Gaussian 16:  EM64L-G16RevA.03 25-Dec-2016

 -------------
 #p 6-31g* mp2
 -------------

 ------------------------------------------------------
 Input file generated by CHIRIPA (05-May-2021 14:53:15)
 ------------------------------------------------------
 Symbolic Z-matrix:
 Charge =  0 Multiplicity = 1

                         Standard orientation:
 ---------------------------------------------------------------------
 Center     Atomic      Atomic             Coordinates (Angstroms)
 Number     Number       Type             X           Y           Z
 ---------------------------------------------------------------------
      1          6           0        4.075452    0.040928    0.109672
      2          6           0        4.204989    0.735970   -1.246102
      3          6           0        5.518504    1.504617   -1.393257
      4          1           0        4.154305    0.791263    0.908248
      5          1           0        4.921260   -0.647682    0.243163
      6          1           0        3.358446    1.422039   -1.377591
      7          1           0        4.125627   -0.016082   -2.041549
      8          1           0        6.373844    0.829360   -1.288276
      9          1           0        5.602305    2.275652   -0.620546
     10          1           0        5.590224    1.993702   -2.369736
     11          6           0        2.767581   -0.731659    0.271881
     12          6           0        2.638045   -1.426701    1.627654
     13          6           0        1.324530   -2.195348    1.774809
     14          1           0        1.921773   -0.043049    0.138389
     15          1           0        2.688728   -1.481994   -0.526696
     16          1           0        2.717407   -0.674649    2.423101
     17          1           0        3.484588   -2.112770    1.759143
     18          1           0        1.240729   -2.966383    1.002098
     19          1           0        0.469189   -1.520091    1.669828
     20          1           0        1.252809   -2.684433    2.751288
     21          6           0       -2.224974    2.442792    1.052340
     22          6           0       -3.527635    2.113659    0.663409
     23          6           0       -3.787590    0.912359   -0.002811
     24          6           0       -2.716379    0.059742   -0.265189
     25          6           0       -1.407547    0.359463    0.109532
     26          6           0       -1.170946    1.566188    0.774650
     27          1           0       -2.032107    3.378098    1.569448
     28          1           0       -4.348155    2.792521    0.877745
     29          1           0       -4.786396    0.632672   -0.315185
     30          1           0       -0.610133   -0.337496   -0.118057
     31          1           0       -0.158269    1.819188    1.075517
     32          7           0       -2.979219   -1.214893   -0.969903
     33          8           0       -2.018157   -1.948965   -1.189300
     34          8           0       -4.141319   -1.455744   -1.289517
 ---------------------------------------------------------------------

 SCF Done:  E(RHF) =  -669.535031902     A.U. after   15 cycles
 E2 =    -0.2092593316D+01 EUMP2 =    -0.67162762521757D+03

 The electronic state is 1-A.
 Alpha  occ. eigenvalues --  -20.60734 -20.60727 -15.85785 -11.31161 -11.27748
 Alpha  occ. eigenvalues --  -11.27687 -11.27498 -11.26771 -11.26762 -11.21998
 Alpha  occ. eigenvalues --  -11.21964 -11.21936 -11.21810 -11.21375 -11.21261
 Alpha  occ. eigenvalues --   -1.59807  -1.39359  -1.19346  -1.08872  -1.08739
 Alpha  occ. eigenvalues --   -1.04759  -1.03884  -0.96329  -0.95570  -0.87339
 Alpha  occ. eigenvalues --   -0.86150  -0.82408  -0.79945  -0.78718  -0.77433
 Alpha  occ. eigenvalues --   -0.72006  -0.71130  -0.70467  -0.65538  -0.64992
 Alpha  occ. eigenvalues --   -0.64765  -0.62176  -0.61218  -0.59688  -0.57942
 Alpha  occ. eigenvalues --   -0.55642  -0.55255  -0.53104  -0.52987  -0.52892
 Alpha  occ. eigenvalues --   -0.52675  -0.50270  -0.48767  -0.48758  -0.48230
 Alpha  occ. eigenvalues --   -0.46973  -0.46214  -0.46152  -0.44760  -0.44163
 Alpha  occ. eigenvalues --   -0.37329  -0.36344
 Alpha virt. eigenvalues --    0.05045   0.11250   0.16525   0.19328   0.22787
 Alpha virt. eigenvalues --    0.23834   0.25327   0.26662   0.27207   0.28239
 Alpha virt. eigenvalues --    0.29866   0.30518   0.31401   0.31590   0.31900

 Mulliken charges:
               1
     1  C   -0.298207
     2  C   -0.299777
     3  C   -0.475931
     4  H    0.147272
     5  H    0.152982
     6  H    0.148879
     7  H    0.155721
     8  H    0.156719
     9  H    0.153988
    10  H    0.161760
    11  C   -0.301875
    12  C   -0.300734
    13  C   -0.479404
    14  H    0.137623
    15  H    0.158287
    16  H    0.148590
    17  H    0.155521
    18  H    0.165886
    19  H    0.149568
    20  H    0.162764
    21  C   -0.170467
    22  C   -0.218667
    23  C   -0.170451
    24  C    0.158952
    25  C   -0.177426
    26  C   -0.222317
    27  H    0.225521
    28  H    0.223498
    29  H    0.275610
    30  H    0.284938
    31  H    0.223854
    32  N    0.487964
    33  O   -0.459949
    34  O   -0.460693
 Sum of Mulliken charges =  -0.00000

 Dipole moment (field-independent basis, Debye):
    X=              1.0348    Y=              4.3436    Z=              2.4329  Tot=              5.0850
 Quadrupole moment (field-independent basis, Debye-Ang):
   XX=            -95.1137   YY=            -93.8450   ZZ=            -96.8228
   XY=            -14.8370   XZ=             -6.9150   YZ=             -0.6190

 Normal termination of Gaussian 16 at Thu May  6 17:11:20 2021.
