 Gaussian 16, Revision A.03,
 Gaussian 16:  EM64L-G16RevA.03 25-Dec-2016

 -------------
 #p 6-31g* mp2
 -------------

 ------------------------------------------------------
 Input file generated by CHIRIPA (05-May-2021 14:57:25)
 ------------------------------------------------------
 Symbolic Z-matrix:
 Charge =  0 Multiplicity = 1

                         Standard orientation:
 ---------------------------------------------------------------------
 Center     Atomic      Atomic             Coordinates (Angstroms)
 Number     Number       Type             X           Y           Z
 ---------------------------------------------------------------------
      1          6           0       -1.371563    2.431572    0.120128
      2          6           0       -0.900231    1.381500   -0.674677
      3          6           0       -1.667471    0.226510   -0.853253
      4          6           0       -2.906989    0.154850   -0.219416
      5          6           0       -3.404043    1.184114    0.578609
      6          6           0       -2.619764    2.329708    0.743136
      7          1           0       -0.768934    3.325147    0.253393
      8          1           0        0.068760    1.457850   -1.159726
      9          1           0       -1.326806   -0.601377   -1.463145
     10          1           0       -4.373971    1.078931    1.049346
     11          1           0       -2.988345    3.143640    1.360960
     12          7           0       -3.728251   -1.062913   -0.401030
     13          8           0       -4.816899   -1.101500    0.168175
     14          8           0       -3.267757   -1.955749   -1.109145
     15          6           0        3.774342    1.852471   -0.507034
     16          6           0        4.260887    0.659701   -1.052097
     17          6           0        3.712880   -0.569480   -0.673483
     18          6           0        2.674698   -0.569015    0.256820
     19          6           0        2.168254    0.602374    0.817758
     20          6           0        2.731417    1.820058    0.424513
     21          1           0        4.205933    2.802863   -0.806834
     22          1           0        5.070752    0.681844   -1.775750
     23          1           0        4.070412   -1.507880   -1.079679
     24          1           0        1.360054    0.548376    1.537005
     25          1           0        2.351554    2.744807    0.849470
     26          7           0        2.086525   -1.864209    0.665388
     27          8           0        1.172632   -1.836846    1.486782
     28          8           0        2.550545   -2.882220    0.156492
 ---------------------------------------------------------------------

 SCF Done:  E(RHF) =  -868.335904757     A.U. after   16 cycles
 E2 =    -0.2602721383D+01 EUMP2 =    -0.87093862614017D+03

 The electronic state is 1-A.
 Alpha  occ. eigenvalues --  -20.61191 -20.61181 -20.60499 -20.60473 -15.86253
 Alpha  occ. eigenvalues --  -15.85546 -11.31848 -11.31107 -11.28477 -11.28459
 Alpha  occ. eigenvalues --  -11.28293 -11.27690 -11.27657 -11.27580 -11.27572
 Alpha  occ. eigenvalues --  -11.27469 -11.26819 -11.26727  -1.60263  -1.59555
 Alpha  occ. eigenvalues --   -1.39807  -1.39104  -1.20097  -1.19306  -1.09430
 Alpha  occ. eigenvalues --   -1.08698  -1.05533  -1.04726  -0.96212  -0.95492
 Alpha  occ. eigenvalues --   -0.86893  -0.86138  -0.83035  -0.82314  -0.78042
 Alpha  occ. eigenvalues --   -0.77301  -0.72456  -0.71770  -0.71611  -0.71157
 Alpha  occ. eigenvalues --   -0.70868  -0.70481  -0.65723  -0.65504  -0.64968
 Alpha  occ. eigenvalues --   -0.64768  -0.62838  -0.62080  -0.55996  -0.55334
 Alpha  occ. eigenvalues --   -0.53989  -0.53605  -0.53004  -0.52709  -0.49234
 Alpha  occ. eigenvalues --   -0.49198  -0.48543  -0.48507  -0.45157  -0.44467
 Alpha  occ. eigenvalues --   -0.38130  -0.37639  -0.37027  -0.36078
 Alpha virt. eigenvalues --    0.04474   0.05203   0.10296   0.11452   0.15899
 Alpha virt. eigenvalues --    0.16626   0.20045   0.21649   0.25618   0.27281
 Alpha virt. eigenvalues --    0.27686   0.28408   0.30220   0.31542   0.32382

 Mulliken charges:
               1
     1  C   -0.178595
     2  C   -0.222635
     3  C   -0.167126
     4  C    0.161803
     5  C   -0.170491
     6  C   -0.217394
     7  H    0.217231
     8  H    0.227017
     9  H    0.278240
    10  H    0.276375
    11  H    0.222260
    12  N    0.488460
    13  O   -0.460944
    14  O   -0.456242
    15  C   -0.171539
    16  C   -0.219638
    17  C   -0.170228
    18  C    0.155189
    19  C   -0.171101
    20  C   -0.227741
    21  H    0.227129
    22  H    0.226320
    23  H    0.279044
    24  H    0.280665
    25  H    0.220007
    26  N    0.487437
    27  O   -0.456340
    28  O   -0.457162
 Sum of Mulliken charges =  -0.00000

 Dipole moment (field-independent basis, Debye):
    X=              4.9907    Y=              8.5074    Z=             -0.8032  Tot=              9.8958
 Quadrupole moment (field-independent basis, Debye-Ang):
   XX=           -106.1321   YY=           -108.2051   ZZ=           -103.2484
   XY=             -4.2464   XZ=            -10.5667   YZ=              4.1540

 Normal termination of Gaussian 16 at Wed May  5 17:56:52 2021.
