 Gaussian 16, Revision A.03,
 Gaussian 16:  EM64L-G16RevA.03 25-Dec-2016

 -------------
 #p 6-31g* mp2
 -------------

 ------------------------------------------------------
 Input file generated by CHIRIPA (05-May-2021 14:53:18)
 ------------------------------------------------------
 Symbolic Z-matrix:
 Charge =  0 Multiplicity = 1

                         Standard orientation:
 ---------------------------------------------------------------------
 Center     Atomic      Atomic             Coordinates (Angstroms)
 Number     Number       Type             X           Y           Z
 ---------------------------------------------------------------------
      1          6           0       -4.494309   -0.622155    0.106601
      2          6           0       -5.928845   -0.993261   -0.270722
      3          6           0       -6.179718   -2.500964   -0.229629
      4          1           0       -3.799323   -1.129695   -0.576292
      5          1           0       -4.277166   -1.003610    1.113942
      6          1           0       -6.143673   -0.610019   -1.276500
      7          1           0       -6.620504   -0.484628    0.413029
      8          1           0       -5.992610   -2.895408    0.774366
      9          1           0       -5.513069   -3.021511   -0.924763
     10          1           0       -7.211344   -2.743884   -0.502754
     11          6           0       -4.228026    0.881671    0.070145
     12          6           0       -2.793490    1.252777    0.447468
     13          6           0       -2.542617    2.760480    0.406375
     14          1           0       -4.445169    1.263125   -0.937196
     15          1           0       -4.923012    1.389210    0.753038
     16          1           0       -2.101831    0.744143   -0.236283
     17          1           0       -2.578662    0.869534    1.453246
     18          1           0       -3.209266    3.281026    1.101509
     19          1           0       -2.729725    3.154923   -0.597620
     20          1           0       -1.510990    3.003399    0.679500
     21          6           0        1.692711    1.722301   -0.386519
     22          6           0        3.055686    2.036554   -0.378663
     23          6           0        4.014431    1.034212   -0.203548
     24          6           0        3.572909   -0.277679   -0.038349
     25          6           0        2.222205   -0.622467   -0.041510
     26          6           0        1.281045    0.396131   -0.218215
     27          1           0        0.954765    2.507258   -0.523170
     28          1           0        3.378293    3.065606   -0.509140
     29          1           0        5.076010    1.249534   -0.193347
     30          1           0        1.931188   -1.657442    0.090980
     31          1           0        0.223212    0.149146   -0.223885
     32          7           0        4.578581   -1.347419    0.147879
     33          8           0        4.163788   -2.495458    0.291373
     34          8           0        5.762577   -1.017586    0.146824
 ---------------------------------------------------------------------

 SCF Done:  E(RHF) =  -669.535509628     A.U. after   15 cycles
 E2 =    -0.2091422822D+01 EUMP2 =    -0.67162693245062D+03

 The electronic state is 1-A.
 Alpha  occ. eigenvalues --  -20.60718 -20.60713 -15.85770 -11.31125 -11.27692
 Alpha  occ. eigenvalues --  -11.27679 -11.27416 -11.26708 -11.26657 -11.22811
 Alpha  occ. eigenvalues --  -11.22282 -11.22263 -11.22164 -11.22083 -11.21510
 Alpha  occ. eigenvalues --   -1.59794  -1.39347  -1.19292  -1.09274  -1.08689
 Alpha  occ. eigenvalues --   -1.04695  -1.04376  -0.96806  -0.95526  -0.87825
 Alpha  occ. eigenvalues --   -0.86094  -0.82361  -0.80481  -0.79046  -0.77408
 Alpha  occ. eigenvalues --   -0.71989  -0.71116  -0.70407  -0.65919  -0.64943
 Alpha  occ. eigenvalues --   -0.64710  -0.62105  -0.61713  -0.60212  -0.58407
 Alpha  occ. eigenvalues --   -0.56070  -0.55214  -0.53522  -0.53226  -0.53019
 Alpha  occ. eigenvalues --   -0.52798  -0.50735  -0.48832  -0.48745  -0.48678
 Alpha  occ. eigenvalues --   -0.47494  -0.46582  -0.46475  -0.44755  -0.44618
 Alpha  occ. eigenvalues --   -0.37273  -0.36297
 Alpha virt. eigenvalues --    0.05115   0.11339   0.16587   0.19002   0.22487
 Alpha virt. eigenvalues --    0.23857   0.24766   0.26067   0.26206   0.28140
 Alpha virt. eigenvalues --    0.28917   0.29722   0.30841   0.31686   0.32340

 Mulliken charges:
               1
     1  C   -0.299153
     2  C   -0.300312
     3  C   -0.476302
     4  H    0.148227
     5  H    0.151114
     6  H    0.152816
     7  H    0.153283
     8  H    0.156291
     9  H    0.155869
    10  H    0.162245
    11  C   -0.297802
    12  C   -0.305540
    13  C   -0.479094
    14  H    0.151328
    15  H    0.153208
    16  H    0.144890
    17  H    0.156410
    18  H    0.162246
    19  H    0.157204
    20  H    0.154742
    21  C   -0.176365
    22  C   -0.218677
    23  C   -0.171286
    24  C    0.158952
    25  C   -0.172562
    26  C   -0.225423
    27  H    0.228863
    28  H    0.223288
    29  H    0.275306
    30  H    0.275904
    31  H    0.233576
    32  N    0.487952
    33  O   -0.460538
    34  O   -0.460660
 Sum of Mulliken charges =  -0.00000

 Dipole moment (field-independent basis, Debye):
    X=             -3.8300    Y=              3.7758    Z=             -0.6154  Tot=              5.4134
 Quadrupole moment (field-independent basis, Debye-Ang):
   XX=           -116.6217   YY=            -95.8632   ZZ=            -94.5667
   XY=             16.9700   XZ=             -2.9305   YZ=             -0.1209

 Normal termination of Gaussian 16 at Thu May  6 10:42:52 2021.
