 Gaussian 16, Revision A.03,
 Gaussian 16:  EM64L-G16RevA.03 25-Dec-2016

 -------------
 #p 6-31g* mp2
 -------------

 ------------------------------------------------------
 Input file generated by CHIRIPA (05-May-2021 14:57:26)
 ------------------------------------------------------
 Symbolic Z-matrix:
 Charge =  0 Multiplicity = 1

                         Standard orientation:
 ---------------------------------------------------------------------
 Center     Atomic      Atomic             Coordinates (Angstroms)
 Number     Number       Type             X           Y           Z
 ---------------------------------------------------------------------
      1          6           0        3.109003   -1.816441    1.399241
      2          6           0        2.940991   -0.578799    2.028952
      3          6           0        2.717677    0.577032    1.274808
      4          6           0        2.668117    0.458258   -0.113258
      5          6           0        2.831749   -0.760461   -0.769946
      6          6           0        3.053943   -1.903169    0.004262
      7          1           0        3.282044   -2.709221    1.992871
      8          1           0        2.983261   -0.508451    3.112146
      9          1           0        2.584288    1.547857    1.736463
     10          1           0        2.784450   -0.799045   -1.851469
     11          1           0        3.184076   -2.863008   -0.487489
     12          7           0        2.432297    1.674938   -0.922257
     13          8           0        2.392992    1.543668   -2.143674
     14          8           0        2.291232    2.736804   -0.319614
     15          6           0       -4.144696    1.654436    0.781491
     16          6           0       -4.740061    0.508183    0.244681
     17          6           0       -3.953298   -0.557423   -0.202570
     18          6           0       -2.567989   -0.442596   -0.097567
     19          6           0       -1.945107    0.686264    0.432509
     20          6           0       -2.751574    1.739668    0.873530
     21          1           0       -4.763525    2.477486    1.126506
     22          1           0       -5.821728    0.439225    0.171973
     23          1           0       -4.388000   -1.456444   -0.622350
     24          1           0       -0.864224    0.725857    0.492025
     25          1           0       -2.286458    2.628645    1.289983
     26          7           0       -1.724649   -1.564247   -0.567753
     27          8           0       -0.506406   -1.438475   -0.464300
     28          8           0       -2.297850   -2.547930   -1.030836
 ---------------------------------------------------------------------

 SCF Done:  E(RHF) =  -868.338988831     A.U. after   16 cycles
 E2 =    -0.2600655046D+01 EUMP2 =    -0.87093964387650D+03

 The electronic state is 1-A.
 Alpha  occ. eigenvalues --  -20.60854 -20.60845 -20.60444 -20.60391 -15.85885
 Alpha  occ. eigenvalues --  -15.85459 -11.31091 -11.30501 -11.27659 -11.27615
 Alpha  occ. eigenvalues --  -11.27358 -11.27158 -11.26943 -11.26739 -11.26647
 Alpha  occ. eigenvalues --  -11.26580 -11.26096 -11.25888  -1.59927  -1.59505
 Alpha  occ. eigenvalues --   -1.39485  -1.39066  -1.19249  -1.18639  -1.08678
 Alpha  occ. eigenvalues --   -1.08110  -1.04623  -1.04003  -0.95543  -0.94999
 Alpha  occ. eigenvalues --   -0.86034  -0.85442  -0.82377  -0.81848  -0.77445
 Alpha  occ. eigenvalues --   -0.76931  -0.72143  -0.71688  -0.71236  -0.70823
 Alpha  occ. eigenvalues --   -0.70361  -0.69796  -0.64906  -0.64625  -0.64320
 Alpha  occ. eigenvalues --   -0.64042  -0.61975  -0.61388  -0.55143  -0.54556
 Alpha  occ. eigenvalues --   -0.52965  -0.52724  -0.52277  -0.52130  -0.48886
 Alpha  occ. eigenvalues --   -0.48863  -0.48461  -0.48411  -0.44931  -0.44539
 Alpha  occ. eigenvalues --   -0.37228  -0.36582  -0.36217  -0.35509
 Alpha virt. eigenvalues --    0.05069   0.05592   0.11436   0.12049   0.16614
 Alpha virt. eigenvalues --    0.17162   0.21500   0.22101   0.27227   0.28015
 Alpha virt. eigenvalues --    0.28198   0.28975   0.30877   0.31597   0.32323

 Mulliken charges:
               1
     1  C   -0.168348
     2  C   -0.217914
     3  C   -0.179549
     4  C    0.158216
     5  C   -0.153949
     6  C   -0.207282
     7  H    0.223828
     8  H    0.218798
     9  H    0.268386
    10  H    0.275989
    11  H    0.225080
    12  N    0.486559
    13  O   -0.458036
    14  O   -0.469801
    15  C   -0.170375
    16  C   -0.218750
    17  C   -0.170946
    18  C    0.157544
    19  C   -0.169556
    20  C   -0.218769
    21  H    0.226019
    22  H    0.222962
    23  H    0.274482
    24  H    0.274794
    25  H    0.227529
    26  N    0.491745
    27  O   -0.466805
    28  O   -0.461850
 Sum of Mulliken charges =  -0.00000

 Dipole moment (field-independent basis, Debye):
    X=             -2.1745    Y=             -0.5888    Z=              4.3381  Tot=              4.8882
 Quadrupole moment (field-independent basis, Debye-Ang):
   XX=            -82.7833   YY=           -110.4371   ZZ=           -103.1106
   XY=            -18.9773   XZ=              4.0214   YZ=              4.1466

 Normal termination of Gaussian 16 at Thu May  6 01:59:39 2021.
