 Gaussian 16, Revision A.03,
 Gaussian 16:  EM64L-G16RevA.03 25-Dec-2016

 -------------
 #p 6-31g* mp2
 -------------

 ------------------------------------------------------
 Input file generated by CHIRIPA (05-May-2021 14:55:20)
 ------------------------------------------------------
 Symbolic Z-matrix:
 Charge =  0 Multiplicity = 1

                         Standard orientation:
 ---------------------------------------------------------------------
 Center     Atomic      Atomic             Coordinates (Angstroms)
 Number     Number       Type             X           Y           Z
 ---------------------------------------------------------------------
      1          6           0        4.810350    1.902941   -0.562950
      2          6           0        4.494569    0.878598   -1.461573
      3          6           0        3.634063   -0.156645   -1.084280
      4          6           0        3.104921   -0.136097    0.205246
      5          6           0        3.400450    0.870441    1.123306
      6          6           0        4.263247    1.895607    0.724352
      7          1           0        5.479702    2.703228   -0.864453
      8          1           0        4.917981    0.881717   -2.461951
      9          1           0        3.372750   -0.962047   -1.759899
     10          1           0        2.962827    0.840184    2.113754
     11          1           0        4.506722    2.689827    1.424338
     12          7           0        2.192729   -1.226728    0.616134
     13          8           0        1.739677   -1.185705    1.757930
     14          8           0        1.948077   -2.101936   -0.211387
     15          6           0       -3.576544   -0.439479    0.120538
     16          6           0       -2.629735   -1.007815   -0.937069
     17          6           0       -1.454018   -1.772543   -0.328239
     18          1           0       -3.012417    0.224588    0.789659
     19          1           0       -3.955693   -1.261743    0.743050
     20          1           0       -2.253560   -0.184888   -1.558276
     21          1           0       -3.196220   -1.670455   -1.603865
     22          1           0       -1.812153   -2.612321    0.276008
     23          1           0       -0.864137   -1.118312    0.321856
     24          1           0       -0.789905   -2.170208   -1.101982
     25          6           0       -4.756926    0.327729   -0.472605
     26          6           0       -5.703734    0.896065    0.585002
     27          6           0       -6.879451    1.660793   -0.023829
     28          1           0       -4.377775    1.149993   -1.095118
     29          1           0       -5.321051   -0.336337   -1.141725
     30          1           0       -5.137249    1.558706    1.251798
     31          1           0       -6.079909    0.073137    1.206209
     32          1           0       -7.469331    1.006562   -0.673923
     33          1           0       -6.521316    2.500571   -0.628075
     34          1           0       -7.543563    2.058458    0.749915
 ---------------------------------------------------------------------

 SCF Done:  E(RHF) =  -669.535583552     A.U. after   15 cycles
 E2 =    -0.2091908940D+01 EUMP2 =    -0.67162749249201D+03

 The electronic state is 1-A.
 Alpha  occ. eigenvalues --  -20.60919 -20.60906 -15.85917 -11.31280 -11.27845
 Alpha  occ. eigenvalues --  -11.27841 -11.27585 -11.26856 -11.26846 -11.21116
 Alpha  occ. eigenvalues --  -11.20777 -11.20696 -11.20575 -11.20516 -11.19420
 Alpha  occ. eigenvalues --   -1.59960  -1.39518  -1.19449  -1.08848  -1.07688
 Alpha  occ. eigenvalues --   -1.04848  -1.02693  -0.95692  -0.95095  -0.86249
 Alpha  occ. eigenvalues --   -0.86101  -0.82522  -0.78784  -0.77573  -0.77469
 Alpha  occ. eigenvalues --   -0.72154  -0.71286  -0.70557  -0.65104  -0.64851
 Alpha  occ. eigenvalues --   -0.64336  -0.62196  -0.60108  -0.58535  -0.56706
 Alpha  occ. eigenvalues --   -0.55354  -0.54408  -0.53181  -0.52941  -0.51765
 Alpha  occ. eigenvalues --   -0.51519  -0.49172  -0.48911  -0.48773  -0.47070
 Alpha  occ. eigenvalues --   -0.45847  -0.45011  -0.44933  -0.44898  -0.42868
 Alpha  occ. eigenvalues --   -0.37425  -0.36451
 Alpha virt. eigenvalues --    0.04922   0.11204   0.16399   0.21335   0.23532
 Alpha virt. eigenvalues --    0.25192   0.27254   0.27339   0.28146   0.28180
 Alpha virt. eigenvalues --    0.29019   0.30911   0.32185   0.32368   0.32450

 Mulliken charges:
               1
     1  C   -0.170654
     2  C   -0.218565
     3  C   -0.170788
     4  C    0.159212
     5  C   -0.171058
     6  C   -0.218570
     7  H    0.225938
     8  H    0.223781
     9  H    0.275638
    10  H    0.275779
    11  H    0.223763
    12  N    0.487453
    13  O   -0.459538
    14  O   -0.456619
    15  C   -0.297000
    16  C   -0.301721
    17  C   -0.473423
    18  H    0.148813
    19  H    0.149746
    20  H    0.144831
    21  H    0.147695
    22  H    0.154323
    23  H    0.158281
    24  H    0.168956
    25  C   -0.297233
    26  C   -0.298948
    27  C   -0.475186
    28  H    0.146758
    29  H    0.148409
    30  H    0.150870
    31  H    0.152014
    32  H    0.154633
    33  H    0.153675
    34  H    0.158734
 Sum of Mulliken charges =  -0.00000

 Dipole moment (field-independent basis, Debye):
    X=              3.5310    Y=              3.7326    Z=             -1.3947  Tot=              5.3240
 Quadrupole moment (field-independent basis, Debye-Ang):
   XX=            -76.9638   YY=            -94.9251   ZZ=            -91.5999
   XY=             12.7396   XZ=             -4.9221   YZ=              3.3679

 Normal termination of Gaussian 16 at Wed May  5 23:48:15 2021.
