 Gaussian 16, Revision A.03,
 Gaussian 16:  EM64L-G16RevA.03 25-Dec-2016

 -------------
 #p 6-31g* mp2
 -------------

 ------------------------------------------------------
 Input file generated by CHIRIPA (05-May-2021 14:57:23)
 ------------------------------------------------------
 Symbolic Z-matrix:
 Charge =  0 Multiplicity = 1

                         Standard orientation:
 ---------------------------------------------------------------------
 Center     Atomic      Atomic             Coordinates (Angstroms)
 Number     Number       Type             X           Y           Z
 ---------------------------------------------------------------------
      1          6           0        6.713042   -0.523578   -0.308672
      2          6           0        5.834468   -1.576344   -0.032428
      3          6           0        4.474974   -1.329303    0.180400
      4          6           0        4.026156   -0.011432    0.109226
      5          6           0        4.876598    1.058789   -0.164026
      6          6           0        6.232151    0.788316   -0.373475
      7          1           0        7.767598   -0.724586   -0.472690
      8          1           0        6.205131   -2.596177    0.018510
      9          1           0        3.772838   -2.125505    0.396004
     10          1           0        4.477567    2.064884   -0.208362
     11          1           0        6.912160    1.607881   -0.587827
     12          7           0        2.589007    0.262503    0.332749
     13          8           0        2.218532    1.432435    0.264606
     14          8           0        1.860256   -0.697907    0.571858
     15          6           0       -2.033840    1.237388   -0.121319
     16          6           0       -3.214015    1.975374    0.016832
     17          6           0       -4.454734    1.331664    0.045179
     18          6           0       -4.478524   -0.057577   -0.067656
     19          6           0       -3.320172   -0.820630   -0.206440
     20          6           0       -2.090585   -0.155803   -0.232319
     21          1           0       -1.074345    1.745640   -0.142381
     22          1           0       -3.172976    3.057453    0.103243
     23          1           0       -5.383814    1.878476    0.151124
     24          1           0       -3.392996   -1.898159   -0.290392
     25          1           0       -1.175664   -0.731501   -0.339714
     26          7           0       -5.786124   -0.750222   -0.038952
     27          8           0       -5.780139   -1.975109   -0.140206
     28          8           0       -6.792247   -0.055114    0.084255
 ---------------------------------------------------------------------

 SCF Done:  E(RHF) =  -868.341813249     A.U. after   16 cycles
 E2 =    -0.2598401932D+01 EUMP2 =    -0.87094021518109D+03

 The electronic state is 1-A.
 Alpha  occ. eigenvalues --  -20.62137 -20.62127 -20.59828 -20.59822 -15.87117
 Alpha  occ. eigenvalues --  -15.84870 -11.32081 -11.29961 -11.28599 -11.28591
 Alpha  occ. eigenvalues --  -11.28261 -11.27518 -11.27506 -11.26540 -11.26449
 Alpha  occ. eigenvalues --  -11.25951 -11.25451 -11.25203  -1.61172  -1.58910
 Alpha  occ. eigenvalues --   -1.40735  -1.38472  -1.20212  -1.18076  -1.09683
 Alpha  occ. eigenvalues --   -1.07476  -1.05552  -1.03438  -0.96585  -0.94370
 Alpha  occ. eigenvalues --   -0.86969  -0.84814  -0.83433  -0.81224  -0.78521
 Alpha  occ. eigenvalues --   -0.76345  -0.73355  -0.72450  -0.71312  -0.71094
 Alpha  occ. eigenvalues --   -0.70231  -0.69071  -0.65868  -0.65549  -0.63698
 Alpha  occ. eigenvalues --   -0.63383  -0.62902  -0.60790  -0.56066  -0.53902
 Alpha  occ. eigenvalues --   -0.53785  -0.53633  -0.51791  -0.51499  -0.50114
 Alpha  occ. eigenvalues --   -0.50072  -0.47867  -0.47819  -0.46219  -0.43940
 Alpha  occ. eigenvalues --   -0.38165  -0.37135  -0.35984  -0.35064
 Alpha virt. eigenvalues --    0.03968   0.06171   0.10527   0.12610   0.15545
 Alpha virt. eigenvalues --    0.17769   0.20702   0.23018   0.26651   0.27553
 Alpha virt. eigenvalues --    0.28765   0.29860   0.30399   0.31690   0.32658

 Mulliken charges:
               1
     1  C   -0.169243
     2  C   -0.218524
     3  C   -0.170105
     4  C    0.157424
     5  C   -0.170086
     6  C   -0.218540
     7  H    0.228792
     8  H    0.226443
     9  H    0.276248
    10  H    0.275684
    11  H    0.226032
    12  N    0.490653
    13  O   -0.464693
    14  O   -0.464428
    15  C   -0.176736
    16  C   -0.220196
    17  C   -0.173206
    18  C    0.157248
    19  C   -0.173913
    20  C   -0.224149
    21  H    0.243349
    22  H    0.219431
    23  H    0.270849
    24  H    0.271448
    25  H    0.239798
    26  N    0.488305
    27  O   -0.463668
    28  O   -0.464218
 Sum of Mulliken charges =  -0.00000

 Dipole moment (field-independent basis, Debye):
    X=             10.5272    Y=              1.4541    Z=             -0.8889  Tot=             10.6643
 Quadrupole moment (field-independent basis, Debye-Ang):
   XX=           -105.5648   YY=            -96.6353   ZZ=           -106.6097
   XY=            -16.8365   XZ=             -3.0892   YZ=             -0.5572

 Normal termination of Gaussian 16 at Thu May  6 00:11:57 2021.
