 Gaussian 16, Revision A.03,
 Gaussian 16:  EM64L-G16RevA.03 25-Dec-2016

 -------------
 #p 6-31g* mp2
 -------------

 ------------------------------------------------------
 Input file generated by CHIRIPA (05-May-2021 14:51:11)
 ------------------------------------------------------
 Symbolic Z-matrix:
 Charge =  0 Multiplicity = 1

                         Standard orientation:
 ---------------------------------------------------------------------
 Center     Atomic      Atomic             Coordinates (Angstroms)
 Number     Number       Type             X           Y           Z
 ---------------------------------------------------------------------
      1          6           0       -3.064008    0.080074   -0.111955
      2          6           0       -4.539947    0.060380   -0.510955
      3          6           0       -5.075763   -1.355643   -0.724440
      4          1           0       -2.473730   -0.423476   -0.889743
      5          1           0       -2.932364   -0.505426    0.808509
      6          1           0       -4.668988    0.646894   -1.429631
      7          1           0       -5.126758    0.564204    0.267782
      8          1           0       -4.976060   -1.947391    0.191253
      9          1           0       -4.515689   -1.864231   -1.515804
     10          1           0       -6.132553   -1.346350   -1.008989
     11          6           0       -2.513851    1.488609    0.105033
     12          6           0       -1.037912    1.508303    0.504033
     13          6           0       -0.502096    2.924326    0.717517
     14          1           0       -2.645495    2.074110   -0.815431
     15          1           0       -3.104129    1.992159    0.882821
     16          1           0       -0.451102    1.004479   -0.274704
     17          1           0       -0.908871    0.921789    1.422709
     18          1           0       -1.062170    3.432914    1.508881
     19          1           0       -0.601800    3.516074   -0.198176
     20          1           0        0.554694    2.915034    1.002067
     21          6           0        2.031758   -0.884642   -0.004421
     22          6           0        1.582851   -2.168450    0.694368
     23          6           0        0.065486   -2.355053    0.670300
     24          1           0        1.547382   -0.024076    0.476985
     25          1           0        1.679701   -0.899609   -1.045203
     26          1           0        1.936836   -2.151692    1.733132
     27          1           0        2.068500   -3.026044    0.211365
     28          1           0       -0.301097   -2.397764   -0.360424
     29          1           0       -0.433511   -1.518445    1.169989
     30          1           0       -0.233447   -3.278914    1.175254
     31          6           0        3.546102   -0.684041    0.011343
     32          6           0        3.995009    0.599766   -0.687446
     33          6           0        5.512373    0.786370   -0.663378
     34          1           0        3.898158   -0.669075    1.052125
     35          1           0        4.030477   -1.544608   -0.470063
     36          1           0        3.509359    1.457361   -0.204444
     37          1           0        3.641024    0.583009   -1.726210
     38          1           0        6.011370   -0.050240   -1.163067
     39          1           0        5.878957    0.829080    0.367346
     40          1           0        5.811307    1.710231   -1.168331
 ---------------------------------------------------------------------

 SCF Done:  E(RHF) =  -470.731688278     A.U. after   11 cycles
 E2 =    -0.1585103223D+01 EUMP2 =    -0.47231679150061D+03

 The electronic state is 1-A.
 Alpha  occ. eigenvalues --  -11.21596 -11.21563 -11.21558 -11.21534 -11.21368
 Alpha  occ. eigenvalues --  -11.21352 -11.21298 -11.21267 -11.21103 -11.21064
 Alpha  occ. eigenvalues --  -11.21035 -11.20929  -1.08457  -1.08345  -1.03547
 Alpha  occ. eigenvalues --   -1.03460  -0.95997  -0.95902  -0.86996  -0.86938
 Alpha  occ. eigenvalues --   -0.79732  -0.79499  -0.78463  -0.77919  -0.65064
 Alpha  occ. eigenvalues --   -0.65015  -0.60940  -0.60882  -0.59433  -0.59209
 Alpha  occ. eigenvalues --   -0.57741  -0.57411  -0.55261  -0.55215  -0.52701
 Alpha  occ. eigenvalues --   -0.52629  -0.52440  -0.52289  -0.49916  -0.49882
 Alpha  occ. eigenvalues --   -0.48191  -0.47792  -0.46670  -0.46635  -0.46158
 Alpha  occ. eigenvalues --   -0.45762  -0.45527  -0.44955  -0.43751  -0.43734
 Alpha virt. eigenvalues --    0.21323   0.22633   0.23829   0.23995   0.24866
 Alpha virt. eigenvalues --    0.26049   0.26192   0.27535   0.29192   0.29934
 Alpha virt. eigenvalues --    0.30516   0.30651   0.31670   0.31896   0.32340

 Mulliken charges:
               1
     1  C   -0.300003
     2  C   -0.299725
     3  C   -0.475467
     4  H    0.151447
     5  H    0.151110
     6  H    0.151594
     7  H    0.151637
     8  H    0.155445
     9  H    0.155015
    10  H    0.159985
    11  C   -0.297753
    12  C   -0.306290
    13  C   -0.476817
    14  H    0.149239
    15  H    0.148975
    16  H    0.159666
    17  H    0.151260
    18  H    0.155326
    19  H    0.155731
    20  H    0.159651
    21  C   -0.305619
    22  C   -0.299325
    23  C   -0.480792
    24  H    0.160178
    25  H    0.147529
    26  H    0.151010
    27  H    0.151240
    28  H    0.154677
    29  H    0.162782
    30  H    0.158919
    31  C   -0.297478
    32  C   -0.299920
    33  C   -0.475627
    34  H    0.149173
    35  H    0.149360
    36  H    0.151620
    37  H    0.151643
    38  H    0.155234
    39  H    0.155160
    40  H    0.160208
 Sum of Mulliken charges =  -0.00000

 Dipole moment (field-independent basis, Debye):
    X=             -0.0239    Y=              0.0159    Z=             -0.0019  Tot=              0.0287
 Quadrupole moment (field-independent basis, Debye-Ang):
   XX=            -86.3629   YY=            -85.6986   ZZ=            -83.0574
   XY=             -0.7597   XZ=             -0.3699   YZ=              0.2273

 Normal termination of Gaussian 16 at Thu May  6 00:42:19 2021.
