 Gaussian 16, Revision A.03,
 Gaussian 16:  EM64L-G16RevA.03 25-Dec-2016

 -------------
 #p 6-31g* mp2
 -------------

 ------------------------------------------------------
 Input file generated by CHIRIPA (05-May-2021 14:53:16)
 ------------------------------------------------------
 Symbolic Z-matrix:
 Charge =  0 Multiplicity = 1

                         Standard orientation:
 ---------------------------------------------------------------------
 Center     Atomic      Atomic             Coordinates (Angstroms)
 Number     Number       Type             X           Y           Z
 ---------------------------------------------------------------------
      1          6           0        3.713878   -0.082770   -0.515202
      2          6           0        3.617144   -1.460684    0.140528
      3          6           0        4.753447   -2.394885   -0.276459
      4          1           0        3.710096   -0.202357   -1.607278
      5          1           0        4.679016    0.372951   -0.254008
      6          1           0        2.651894   -1.913091   -0.120694
      7          1           0        3.620963   -1.337789    1.231169
      8          1           0        5.723458   -1.968444   -0.001091
      9          1           0        4.748883   -2.547014   -1.360635
     10          1           0        4.664735   -3.374282    0.203927
     11          6           0        2.584899    0.862454   -0.108156
     12          6           0        2.681632    2.240368   -0.763886
     13          6           0        1.545329    3.174569   -0.346899
     14          1           0        1.619761    0.406733   -0.369350
     15          1           0        2.588680    0.982041    0.983920
     16          1           0        2.677813    2.117473   -1.854527
     17          1           0        3.646882    2.692774   -0.502664
     18          1           0        1.549893    3.326698    0.737277
     19          1           0        0.575318    2.748128   -0.622267
     20          1           0        1.634042    4.153966   -0.827285
     21          6           0       -4.641684   -0.381653   -1.022297
     22          6           0       -4.300621    0.756402   -0.284036
     23          6           0       -3.094654    0.810181    0.421158
     24          6           0       -2.249587   -0.297111    0.365872
     25          6           0       -2.561234   -1.445284   -0.360672
     26          6           0       -3.772434   -1.476933   -1.058195
     27          1           0       -5.580542   -0.414835   -1.567129
     28          1           0       -4.973750    1.608494   -0.254352
     29          1           0       -2.805763    1.678606    1.000639
     30          1           0       -1.869770   -2.279061   -0.371239
     31          1           0       -4.034704   -2.362084   -1.630705
     32          7           0       -0.970113   -0.251892    1.108369
     33          8           0       -0.242877   -1.240613    1.043601
     34          8           0       -0.718725    0.771416    1.741047
 ---------------------------------------------------------------------

 SCF Done:  E(RHF) =  -669.535974066     A.U. after   15 cycles
 E2 =    -0.2092890760D+01 EUMP2 =    -0.67162886482530D+03

 The electronic state is 1-A.
 Alpha  occ. eigenvalues --  -20.61005 -20.60982 -15.85981 -11.31322 -11.27884
 Alpha  occ. eigenvalues --  -11.27875 -11.27616 -11.26888 -11.26877 -11.20538
 Alpha  occ. eigenvalues --  -11.20242 -11.20171 -11.20078 -11.20076 -11.19900
 Alpha  occ. eigenvalues --   -1.60032  -1.39589  -1.19488  -1.08892  -1.07179
 Alpha  occ. eigenvalues --   -1.04882  -1.02391  -0.95732  -0.94859  -0.86283
 Alpha  occ. eigenvalues --   -0.85880  -0.82569  -0.78427  -0.77622  -0.76947
 Alpha  occ. eigenvalues --   -0.72215  -0.71341  -0.70594  -0.65142  -0.64883
 Alpha  occ. eigenvalues --   -0.63826  -0.62228  -0.59810  -0.58222  -0.56452
 Alpha  occ. eigenvalues --   -0.55385  -0.54170  -0.53216  -0.52972  -0.51606
 Alpha  occ. eigenvalues --   -0.51272  -0.49016  -0.48983  -0.48813  -0.46753
 Alpha  occ. eigenvalues --   -0.45461  -0.45066  -0.44430  -0.44284  -0.42615
 Alpha  occ. eigenvalues --   -0.37463  -0.36483
 Alpha virt. eigenvalues --    0.04870   0.11159   0.16335   0.21281   0.24015
 Alpha virt. eigenvalues --    0.25230   0.27208   0.27575   0.28151   0.28862
 Alpha virt. eigenvalues --    0.29100   0.31021   0.31907   0.32617   0.32870

 Mulliken charges:
               1
     1  C   -0.299034
     2  C   -0.298962
     3  C   -0.475474
     4  H    0.142628
     5  H    0.144620
     6  H    0.161617
     7  H    0.155855
     8  H    0.151764
     9  H    0.150274
    10  H    0.157678
    11  C   -0.294710
    12  C   -0.300423
    13  C   -0.471116
    14  H    0.151121
    15  H    0.160784
    16  H    0.145357
    17  H    0.148246
    18  H    0.162417
    19  H    0.149012
    20  H    0.152290
    21  C   -0.170552
    22  C   -0.218506
    23  C   -0.171129
    24  C    0.158063
    25  C   -0.171064
    26  C   -0.218523
    27  H    0.226142
    28  H    0.224096
    29  H    0.276511
    30  H    0.275565
    31  H    0.223923
    32  N    0.487208
    33  O   -0.458850
    34  O   -0.456829
 Sum of Mulliken charges =  -0.00000

 Dipole moment (field-independent basis, Debye):
    X=             -4.8147    Y=             -0.2387    Z=             -2.3626  Tot=              5.3684
 Quadrupole moment (field-independent basis, Debye-Ang):
   XX=            -76.1707   YY=            -91.6742   ZZ=            -96.4400
   XY=              1.3660   XZ=              5.3245   YZ=              2.8847

 Normal termination of Gaussian 16 at Thu May  6 13:54:55 2021.
