 Gaussian 16, Revision A.03,
 Gaussian 16:  EM64L-G16RevA.03 25-Dec-2016

 -------------
 #p 6-31g* mp2
 -------------

 ------------------------------------------------------
 Input file generated by CHIRIPA (05-May-2021 14:51:13)
 ------------------------------------------------------
 Symbolic Z-matrix:
 Charge =  0 Multiplicity = 1

                         Standard orientation:
 ---------------------------------------------------------------------
 Center     Atomic      Atomic             Coordinates (Angstroms)
 Number     Number       Type             X           Y           Z
 ---------------------------------------------------------------------
      1          6           0       -2.506099   -0.437669    0.561957
      2          6           0       -2.401158   -1.803096   -0.118176
      3          6           0       -2.098115   -2.932487    0.866930
      4          1           0       -1.565908   -0.224275    1.088692
      5          1           0       -3.292012   -0.477254    1.328878
      6          1           0       -1.616621   -1.760547   -0.884536
      7          1           0       -3.341638   -2.013180   -0.643513
      8          1           0       -2.884690   -3.003773    1.625099
      9          1           0       -1.149871   -2.749704    1.382706
     10          1           0       -2.027376   -3.899627    0.359490
     11          6           0       -2.808718    0.701536   -0.409826
     12          6           0       -2.913658    2.066963    0.270307
     13          6           0       -3.216701    3.196354   -0.714800
     14          1           0       -2.022804    0.741120   -1.176748
     15          1           0       -3.748908    0.488141   -0.936561
     16          1           0       -1.973178    2.277046    0.795643
     17          1           0       -3.698196    2.024413    1.036666
     18          1           0       -4.164945    3.013571   -1.230576
     19          1           0       -2.430127    3.267639   -1.472968
     20          1           0       -3.287441    4.163494   -0.207360
     21          6           0        2.101543   -0.655303   -0.053057
     22          6           0        2.525092   -2.014613   -0.610612
     23          6           0        1.402288   -3.051106   -0.557787
     24          1           0        1.764917   -0.780722    0.985162
     25          1           0        1.235156   -0.287934   -0.620340
     26          1           0        3.391281   -2.378671   -0.043344
     27          1           0        2.860928   -1.885914   -1.647563
     28          1           0        0.538447   -2.713252   -1.139366
     29          1           0        1.071813   -3.208809    0.473967
     30          1           0        1.726750   -4.015371   -0.961242
     31          6           0        3.213273    0.391436   -0.099073
     32          6           0        2.789725    1.750747    0.458482
     33          6           0        3.912529    2.787239    0.405656
     34          1           0        4.079660    0.024068    0.468209
     35          1           0        3.549899    0.516855   -1.137292
     36          1           0        2.453888    1.622047    1.495433
     37          1           0        1.923535    2.114804   -0.108786
     38          1           0        4.243003    2.944942   -0.626097
     39          1           0        4.776370    2.449385    0.987235
     40          1           0        3.588067    3.751504    0.809111
 ---------------------------------------------------------------------

 SCF Done:  E(RHF) =  -470.732390075     A.U. after   11 cycles
 E2 =    -0.1584364203D+01 EUMP2 =    -0.47231675427727D+03

 The electronic state is 1-A.
 Alpha  occ. eigenvalues --  -11.21666 -11.21637 -11.21579 -11.21524 -11.21486
 Alpha  occ. eigenvalues --  -11.21422 -11.21371 -11.21297 -11.21116 -11.21063
 Alpha  occ. eigenvalues --  -11.21031 -11.20953  -1.08503  -1.08379  -1.03608
 Alpha  occ. eigenvalues --   -1.03452  -0.96076  -0.95882  -0.87082  -0.86908
 Alpha  occ. eigenvalues --   -0.79646  -0.79552  -0.78317  -0.78206  -0.65167
 Alpha  occ. eigenvalues --   -0.64991  -0.61027  -0.60909  -0.59371  -0.59304
 Alpha  occ. eigenvalues --   -0.57663  -0.57536  -0.55337  -0.55229  -0.52725
 Alpha  occ. eigenvalues --   -0.52630  -0.52422  -0.52305  -0.50156  -0.49712
 Alpha  occ. eigenvalues --   -0.48065  -0.47725  -0.46905  -0.46387  -0.45995
 Alpha  occ. eigenvalues --   -0.45864  -0.45565  -0.45476  -0.43840  -0.43730
 Alpha virt. eigenvalues --    0.20044   0.22842   0.23511   0.24871   0.25352
 Alpha virt. eigenvalues --    0.25793   0.26658   0.28012   0.29115   0.29769
 Alpha virt. eigenvalues --    0.30009   0.30971   0.31689   0.31978   0.32427

 Mulliken charges:
               1
     1  C   -0.299340
     2  C   -0.303768
     3  C   -0.475891
     4  H    0.151666
     5  H    0.149249
     6  H    0.154927
     7  H    0.151570
     8  H    0.153976
     9  H    0.157248
    10  H    0.160433
    11  C   -0.298434
    12  C   -0.299920
    13  C   -0.475596
    14  H    0.148626
    15  H    0.149586
    16  H    0.152509
    17  H    0.151933
    18  H    0.155142
    19  H    0.154754
    20  H    0.160247
    21  C   -0.300155
    22  C   -0.299985
    23  C   -0.481449
    24  H    0.149310
    25  H    0.149968
    26  H    0.152037
    27  H    0.151796
    28  H    0.160006
    29  H    0.158587
    30  H    0.160115
    31  C   -0.298249
    32  C   -0.299790
    33  C   -0.475735
    34  H    0.149998
    35  H    0.149974
    36  H    0.151904
    37  H    0.151533
    38  H    0.155336
    39  H    0.155381
    40  H    0.160499
 Sum of Mulliken charges =  -0.00000

 Dipole moment (field-independent basis, Debye):
    X=              0.0357    Y=             -0.0195    Z=              0.0075  Tot=              0.0413
 Quadrupole moment (field-independent basis, Debye-Ang):
   XX=            -84.2904   YY=            -86.2203   ZZ=            -84.2477
   XY=             -0.3491   XZ=              0.0195   YZ=              0.2396

 Normal termination of Gaussian 16 at Wed May  5 23:12:21 2021.
