 Gaussian 16, Revision A.03,
 Gaussian 16:  EM64L-G16RevA.03 25-Dec-2016

 -------------
 #p 6-31g* mp2
 -------------

 ------------------------------------------------------
 Input file generated by CHIRIPA (05-May-2021 14:51:13)
 ------------------------------------------------------
 Symbolic Z-matrix:
 Charge =  0 Multiplicity = 1

                         Standard orientation:
 ---------------------------------------------------------------------
 Center     Atomic      Atomic             Coordinates (Angstroms)
 Number     Number       Type             X           Y           Z
 ---------------------------------------------------------------------
      1          6           0        3.265469   -0.646389   -0.197122
      2          6           0        1.983925   -1.465912   -0.352078
      3          6           0        2.255527   -2.960151   -0.528931
      4          1           0        3.902116   -0.802981   -1.078658
      5          1           0        3.830439   -1.022131    0.667182
      6          1           0        1.420866   -1.087836   -1.215003
      7          1           0        1.350171   -1.307201    0.529841
      8          1           0        2.796459   -3.358346    0.335611
      9          1           0        2.867556   -3.137736   -1.419147
     10          1           0        1.325691   -3.527069   -0.637879
     11          6           0        3.010336    0.849291   -0.019421
     12          6           0        4.291880    1.668814    0.135535
     13          6           0        4.020279    3.163053    0.312388
     14          1           0        2.445367    1.225033   -0.883725
     15          1           0        2.373690    1.005883    0.862115
     16          1           0        4.925635    1.510103   -0.746385
     17          1           0        4.854940    1.290738    0.998459
     18          1           0        3.408249    3.340638    1.202604
     19          1           0        3.479346    3.561249   -0.552154
     20          1           0        4.950115    3.729971    0.421336
     21          6           0       -3.206943    0.658764    0.135464
     22          6           0       -4.561995    1.162755   -0.362344
     23          6           0       -4.684897    2.685590   -0.301807
     24          1           0       -3.053023    0.999698    1.168430
     25          1           0       -2.409699    1.116119   -0.466716
     26          1           0       -5.356513    0.703515    0.239698
     27          1           0       -4.712791    0.820419   -1.394179
     28          1           0       -3.913079    3.159134   -0.917156
     29          1           0       -4.560458    3.041565    0.726004
     30          1           0       -5.661257    3.024207   -0.662250
     31          6           0       -3.068863   -0.861666    0.081079
     32          6           0       -1.713811   -1.365657    0.578887
     33          6           0       -1.590909   -2.888492    0.518351
     34          1           0       -3.866107   -1.319022    0.683260
     35          1           0       -3.222783   -1.202600   -0.951886
     36          1           0       -1.563015   -1.023321    1.610722
     37          1           0       -0.919293   -0.906418   -0.023156
     38          1           0       -1.715348   -3.244468   -0.509461
     39          1           0       -2.362727   -3.362036    1.133699
     40          1           0       -0.614549   -3.227109    0.878793
 ---------------------------------------------------------------------

 SCF Done:  E(RHF) =  -470.731905554     A.U. after   11 cycles
 E2 =    -0.1584146073D+01 EUMP2 =    -0.47231605162724D+03

 The electronic state is 1-A.
 Alpha  occ. eigenvalues --  -11.21605 -11.21579 -11.21568 -11.21478 -11.21404
 Alpha  occ. eigenvalues --  -11.21363 -11.21343 -11.21300 -11.21073 -11.21054
 Alpha  occ. eigenvalues --  -11.21028 -11.21026  -1.08457  -1.08367  -1.03610
 Alpha  occ. eigenvalues --   -1.03421  -0.96051  -0.95881  -0.87056  -0.86909
 Alpha  occ. eigenvalues --   -0.79785  -0.79422  -0.78363  -0.78075  -0.65075
 Alpha  occ. eigenvalues --   -0.65023  -0.61009  -0.60912  -0.59715  -0.59029
 Alpha  occ. eigenvalues --   -0.57830  -0.57223  -0.55264  -0.55214  -0.52880
 Alpha  occ. eigenvalues --   -0.52537  -0.52431  -0.52204  -0.49928  -0.49900
 Alpha  occ. eigenvalues --   -0.48249  -0.47679  -0.46661  -0.46572  -0.45985
 Alpha  occ. eigenvalues --   -0.45754  -0.45677  -0.45292  -0.43876  -0.43614
 Alpha virt. eigenvalues --    0.21561   0.23109   0.23388   0.25344   0.25861
 Alpha virt. eigenvalues --    0.26381   0.26839   0.27237   0.28595   0.29263
 Alpha virt. eigenvalues --    0.30225   0.31207   0.31414   0.31523   0.32278

 Mulliken charges:
               1
     1  C   -0.297287
     2  C   -0.304869
     3  C   -0.480242
     4  H    0.149396
     5  H    0.149390
     6  H    0.151018
     7  H    0.159077
     8  H    0.154464
     9  H    0.154966
    10  H    0.165339
    11  C   -0.298558
    12  C   -0.299569
    13  C   -0.475695
    14  H    0.148926
    15  H    0.149968
    16  H    0.151939
    17  H    0.151965
    18  H    0.155281
    19  H    0.155096
    20  H    0.160263
    21  C   -0.298215
    22  C   -0.299582
    23  C   -0.475661
    24  H    0.149413
    25  H    0.149488
    26  H    0.151891
    27  H    0.151803
    28  H    0.155130
    29  H    0.155128
    30  H    0.160152
    31  C   -0.297818
    32  C   -0.305934
    33  C   -0.479656
    34  H    0.148979
    35  H    0.149184
    36  H    0.150042
    37  H    0.160905
    38  H    0.154324
    39  H    0.155017
    40  H    0.164540
 Sum of Mulliken charges =  -0.00000

 Dipole moment (field-independent basis, Debye):
    X=              0.0251    Y=             -0.0028    Z=              0.0027  Tot=              0.0254
 Quadrupole moment (field-independent basis, Debye-Ang):
   XX=            -84.9612   YY=            -87.2136   ZZ=            -82.8575
   XY=              0.3112   XZ=             -0.3512   YZ=             -0.3249

 Normal termination of Gaussian 16 at Wed May  5 23:13:16 2021.
