 Gaussian 16, Revision A.03,
 Gaussian 16:  EM64L-G16RevA.03 25-Dec-2016

 -------------
 #p 6-31g* mp2
 -------------

 ------------------------------------------------------
 Input file generated by CHIRIPA (05-May-2021 14:55:20)
 ------------------------------------------------------
 Symbolic Z-matrix:
 Charge =  0 Multiplicity = 1

                         Standard orientation:
 ---------------------------------------------------------------------
 Center     Atomic      Atomic             Coordinates (Angstroms)
 Number     Number       Type             X           Y           Z
 ---------------------------------------------------------------------
      1          6           0        1.736086    1.320775    0.357205
      2          6           0        1.763473   -0.075589    0.280143
      3          6           0        2.960762   -0.748986    0.020173
      4          6           0        4.117103    0.008827   -0.158387
      5          6           0        4.122089    1.401040   -0.087630
      6          6           0        2.913406    2.053342    0.173397
      7          1           0        0.801577    1.835693    0.559567
      8          1           0        0.850691   -0.647093    0.422468
      9          1           0        3.010440   -1.829138   -0.044800
     10          1           0        5.048223    1.943516   -0.233962
     11          1           0        2.895121    3.137867    0.232688
     12          7           0        5.390651   -0.692902   -0.434165
     13          8           0        6.395689   -0.002280   -0.587715
     14          8           0        5.359705   -1.920251   -0.491547
     15          6           0       -5.741634   -0.339405    0.091627
     16          6           0       -6.449241    0.342378   -1.079888
     17          6           0       -7.929852   -0.027754   -1.172551
     18          1           0       -5.843083   -1.428531   -0.010634
     19          1           0       -6.248442   -0.064741    1.027095
     20          1           0       -5.940403    0.067614   -2.012735
     21          1           0       -6.345931    1.430003   -0.974927
     22          1           0       -8.457302    0.261804   -0.257919
     23          1           0       -8.049469   -1.108325   -1.301623
     24          1           0       -8.416189    0.470666   -2.016894
     25          6           0       -4.260816    0.020736    0.197488
     26          6           0       -3.553210   -0.661048    1.369003
     27          6           0       -2.072598   -0.290916    1.461667
     28          1           0       -3.754008   -0.253928   -0.737980
     29          1           0       -4.159367    1.109862    0.299749
     30          1           0       -3.656519   -1.748672    1.264042
     31          1           0       -4.062047   -0.386283    2.301850
     32          1           0       -1.952981    0.789656    1.590738
     33          1           0       -1.545148   -0.580473    0.547034
     34          1           0       -1.586262   -0.789336    2.306009
 ---------------------------------------------------------------------

 SCF Done:  E(RHF) =  -669.535576460     A.U. after   15 cycles
 E2 =    -0.2091013242D+01 EUMP2 =    -0.67162658970236D+03

 The electronic state is 1-A.
 Alpha  occ. eigenvalues --  -20.60690 -20.60685 -15.85742 -11.31083 -11.27654
 Alpha  occ. eigenvalues --  -11.27636 -11.27365 -11.26665 -11.26591 -11.22568
 Alpha  occ. eigenvalues --  -11.22430 -11.22187 -11.22127 -11.21993 -11.21499
 Alpha  occ. eigenvalues --   -1.59766  -1.39320  -1.19249  -1.09183  -1.08645
 Alpha  occ. eigenvalues --   -1.04651  -1.04323  -0.96806  -0.95485  -0.87841
 Alpha  occ. eigenvalues --   -0.86042  -0.82320  -0.80409  -0.78952  -0.77373
 Alpha  occ. eigenvalues --   -0.71960  -0.71089  -0.70352  -0.65816  -0.64898
 Alpha  occ. eigenvalues --   -0.64669  -0.62060  -0.61674  -0.60182  -0.58378
 Alpha  occ. eigenvalues --   -0.56128  -0.55125  -0.53534  -0.53262  -0.52980
 Alpha  occ. eigenvalues --   -0.52683  -0.50730  -0.48753  -0.48718  -0.48669
 Alpha  occ. eigenvalues --   -0.47407  -0.46506  -0.46396  -0.44731  -0.44552
 Alpha  occ. eigenvalues --   -0.37226  -0.36255
 Alpha virt. eigenvalues --    0.05158   0.11377   0.16658   0.19991   0.22301
 Alpha virt. eigenvalues --    0.23769   0.25363   0.25649   0.26913   0.27415
 Alpha virt. eigenvalues --    0.29171   0.29538   0.30953   0.31605   0.32047

 Mulliken charges:
               1
     1  C   -0.173555
     2  C   -0.224583
     3  C   -0.172194
     4  C    0.158842
     5  C   -0.171397
     6  C   -0.218686
     7  H    0.226905
     8  H    0.232807
     9  H    0.275407
    10  H    0.275136
    11  H    0.222874
    12  N    0.487981
    13  O   -0.460786
    14  O   -0.460731
    15  C   -0.298961
    16  C   -0.300163
    17  C   -0.476123
    18  H    0.151235
    19  H    0.150815
    20  H    0.152592
    21  H    0.152005
    22  H    0.155839
    23  H    0.156141
    24  H    0.161706
    25  C   -0.299305
    26  C   -0.299392
    27  C   -0.482967
    28  H    0.149970
    29  H    0.149082
    30  H    0.155522
    31  H    0.155865
    32  H    0.153453
    33  H    0.149977
    34  H    0.164688
 Sum of Mulliken charges =  -0.00000

 Dipole moment (field-independent basis, Debye):
    X=             -4.7854    Y=              2.4458    Z=              1.0070  Tot=              5.4677
 Quadrupole moment (field-independent basis, Debye-Ang):
   XX=           -131.3905   YY=            -90.3687   ZZ=            -95.5208
   XY=             12.3621   XZ=              4.1775   YZ=             -0.1946

 Normal termination of Gaussian 16 at Wed May  5 17:24:05 2021.
