 Gaussian 16, Revision A.03,
 Gaussian 16:  EM64L-G16RevA.03 25-Dec-2016

 -------------
 #p 6-31g* mp2
 -------------

 ------------------------------------------------------
 Input file generated by CHIRIPA (05-May-2021 14:53:13)
 ------------------------------------------------------
 Symbolic Z-matrix:
 Charge =  0 Multiplicity = 1

                         Standard orientation:
 ---------------------------------------------------------------------
 Center     Atomic      Atomic             Coordinates (Angstroms)
 Number     Number       Type             X           Y           Z
 ---------------------------------------------------------------------
      1          6           0       -2.198423   -1.427412    0.148593
      2          6           0       -0.904316   -1.680199   -0.625598
      3          6           0       -0.034145   -2.762158    0.014684
      4          1           0       -1.951134   -1.138720    1.179346
      5          1           0       -2.767179   -2.365260    0.214569
      6          1           0       -0.338825   -0.741839   -0.691289
      7          1           0       -1.154710   -1.968137   -1.654681
      8          1           0       -0.576057   -3.712054    0.065955
      9          1           0        0.244465   -2.478788    1.034821
     10          1           0        0.885803   -2.926715   -0.554945
     11          6           0       -3.078987   -0.348394   -0.479145
     12          6           0       -4.373093   -0.095607    0.295047
     13          6           0       -5.243265    0.986352   -0.345235
     14          1           0       -2.510231    0.589454   -0.545121
     15          1           0       -3.326275   -0.637086   -1.509897
     16          1           0       -4.122699    0.192331    1.324129
     17          1           0       -4.938585   -1.033967    0.360737
     18          1           0       -5.521874    0.702982   -1.365373
     19          1           0       -4.701353    1.936248   -0.396507
     20          1           0       -6.163213    1.150909    0.224393
     21          6           0        0.326475    2.500178    0.432760
     22          6           0        0.428427    1.463523    1.366287
     23          6           0        1.386012    0.457260    1.208131
     24          6           0        2.229223    0.519028    0.099767
     25          6           0        2.152348    1.538793   -0.847575
     26          6           0        1.187244    2.534445   -0.669249
     27          1           0       -0.420321    3.277746    0.563454
     28          1           0       -0.238726    1.434356    2.223085
     29          1           0        1.486737   -0.356825    1.915618
     30          1           0        2.831427    1.540944   -1.691534
     31          1           0        1.110351    3.338315   -1.395834
     32          7           0        3.246955   -0.540640   -0.078343
     33          8           0        3.977981   -0.463490   -1.063374
     34          8           0        3.294357   -1.428293    0.770458
 ---------------------------------------------------------------------

 SCF Done:  E(RHF) =  -669.534192175     A.U. after   15 cycles
 E2 =    -0.2096155850D+01 EUMP2 =    -0.67163034802456D+03

 The electronic state is 1-A.
 Alpha  occ. eigenvalues --  -20.60888 -20.60864 -15.85914 -11.31288 -11.27902
 Alpha  occ. eigenvalues --  -11.27859 -11.27667 -11.26923 -11.26906 -11.21986
 Alpha  occ. eigenvalues --  -11.21653 -11.21536 -11.21509 -11.21386 -11.20731
 Alpha  occ. eigenvalues --   -1.59943  -1.39496  -1.19517  -1.08891  -1.08613
 Alpha  occ. eigenvalues --   -1.04921  -1.03647  -0.96109  -0.95709  -0.87108
 Alpha  occ. eigenvalues --   -0.86299  -0.82546  -0.79730  -0.78423  -0.77579
 Alpha  occ. eigenvalues --   -0.72139  -0.71282  -0.70615  -0.65300  -0.65153
 Alpha  occ. eigenvalues --   -0.64911  -0.62274  -0.61105  -0.59478  -0.57700
 Alpha  occ. eigenvalues --   -0.55512  -0.55338  -0.53251  -0.52998  -0.52736
 Alpha  occ. eigenvalues --   -0.52502  -0.50057  -0.48901  -0.48889  -0.48018
 Alpha  occ. eigenvalues --   -0.46778  -0.45949  -0.45797  -0.44878  -0.43857
 Alpha  occ. eigenvalues --   -0.37463  -0.36463
 Alpha virt. eigenvalues --    0.04900   0.11061   0.16316   0.20396   0.22963
 Alpha virt. eigenvalues --    0.23953   0.25737   0.26594   0.27000   0.28255
 Alpha virt. eigenvalues --    0.28863   0.30423   0.31328   0.31467   0.31791

 Mulliken charges:
               1
     1  C   -0.294763
     2  C   -0.308322
     3  C   -0.477432
     4  H    0.140576
     5  H    0.150943
     6  H    0.158702
     7  H    0.151689
     8  H    0.154334
     9  H    0.151040
    10  H    0.170774
    11  C   -0.299353
    12  C   -0.299092
    13  C   -0.474759
    14  H    0.146010
    15  H    0.151238
    16  H    0.147213
    17  H    0.154284
    18  H    0.157113
    19  H    0.150351
    20  H    0.160952
    21  C   -0.171425
    22  C   -0.216225
    23  C   -0.173247
    24  C    0.160907
    25  C   -0.171667
    26  C   -0.217879
    27  H    0.226630
    28  H    0.224362
    29  H    0.276859
    30  H    0.276400
    31  H    0.224487
    32  N    0.488056
    33  O   -0.460122
    34  O   -0.458636
 Sum of Mulliken charges =  -0.00000

 Dipole moment (field-independent basis, Debye):
    X=             -3.4125    Y=              3.7186    Z=              0.5749  Tot=              5.0797
 Quadrupole moment (field-independent basis, Debye-Ang):
   XX=           -111.3757   YY=            -90.2868   ZZ=            -91.1905
   XY=              8.1704   XZ=             -0.3642   YZ=             -0.7284

 Normal termination of Gaussian 16 at Thu May  6 07:23:37 2021.
