 Gaussian 16, Revision A.03,
 Gaussian 16:  EM64L-G16RevA.03 25-Dec-2016

 -------------
 #p 6-31g* mp2
 -------------

 ------------------------------------------------------
 Input file generated by CHIRIPA (05-May-2021 14:51:11)
 ------------------------------------------------------
 Symbolic Z-matrix:
 Charge =  0 Multiplicity = 1

                         Standard orientation:
 ---------------------------------------------------------------------
 Center     Atomic      Atomic             Coordinates (Angstroms)
 Number     Number       Type             X           Y           Z
 ---------------------------------------------------------------------
      1          6           0       -3.201653   -0.971633   -0.178448
      2          6           0       -1.679163   -1.112701   -0.188833
      3          6           0       -1.220323   -2.549868   -0.437449
      4          1           0       -3.619297   -1.630412    0.595199
      5          1           0       -3.602165   -1.324423   -1.138929
      6          1           0       -1.281527   -0.758458    0.770862
      7          1           0       -1.265081   -0.453366   -0.962415
      8          1           0       -1.589299   -2.910475   -1.403069
      9          1           0       -1.605838   -3.217300    0.340056
     10          1           0       -0.128643   -2.627862   -0.440820
     11          6           0       -3.675797    0.459352    0.068936
     12          6           0       -5.198288    0.600420    0.079321
     13          6           0       -5.657127    2.037588    0.327938
     14          1           0       -3.275286    0.812142    1.029417
     15          1           0       -3.258154    1.118131   -0.704711
     16          1           0       -5.612369   -0.058915    0.852903
     17          1           0       -5.595924    0.246177   -0.880374
     18          1           0       -5.271612    2.705019   -0.449568
     19          1           0       -5.288151    2.398194    1.293557
     20          1           0       -6.748807    2.115582    0.331308
     21          6           0        3.503229   -0.391436    0.454651
     22          6           0        2.982456   -1.619787   -0.292297
     23          6           0        3.118295   -2.907593    0.520660
     24          1           0        4.557695   -0.550533    0.718725
     25          1           0        2.956024   -0.287645    1.401852
     26          1           0        3.529525   -1.720435   -1.238448
     27          1           0        1.929161   -1.457669   -0.554791
     28          1           0        2.557853   -2.832296    1.458123
     29          1           0        4.167310   -3.096556    0.770582
     30          1           0        2.740020   -3.773128   -0.032165
     31          6           0        3.374222    0.903716   -0.345140
     32          6           0        3.894995    2.132068    0.401809
     33          6           0        3.759155    3.419873   -0.411148
     34          1           0        3.921426    0.799925   -1.292340
     35          1           0        2.319755    1.062814   -0.609213
     36          1           0        4.948290    1.969949    0.664303
     37          1           0        3.347925    2.232716    1.347960
     38          1           0        2.710141    3.608836   -0.661070
     39          1           0        4.319598    3.344577   -1.348611
     40          1           0        4.137430    4.285410    0.141677
 ---------------------------------------------------------------------

 SCF Done:  E(RHF) =  -470.733295973     A.U. after   11 cycles
 E2 =    -0.1582773446D+01 EUMP2 =    -0.47231606941915D+03

 The electronic state is 1-A.
 Alpha  occ. eigenvalues --  -11.21651 -11.21623 -11.21594 -11.21594 -11.21437
 Alpha  occ. eigenvalues --  -11.21398 -11.21377 -11.21338 -11.21089 -11.21081
 Alpha  occ. eigenvalues --  -11.21064 -11.21058  -1.08464  -1.08423  -1.03578
 Alpha  occ. eigenvalues --   -1.03511  -0.96025  -0.95957  -0.87019  -0.86993
 Alpha  occ. eigenvalues --   -0.79626  -0.79588  -0.78279  -0.78237  -0.65089
 Alpha  occ. eigenvalues --   -0.65072  -0.61001  -0.60950  -0.59494  -0.59217
 Alpha  occ. eigenvalues --   -0.57711  -0.57481  -0.55291  -0.55259  -0.52732
 Alpha  occ. eigenvalues --   -0.52631  -0.52424  -0.52401  -0.49949  -0.49906
 Alpha  occ. eigenvalues --   -0.47992  -0.47859  -0.46654  -0.46607  -0.45823
 Alpha  occ. eigenvalues --   -0.45771  -0.45744  -0.45689  -0.43801  -0.43773
 Alpha virt. eigenvalues --    0.20908   0.23104   0.23532   0.24944   0.26227
 Alpha virt. eigenvalues --    0.26631   0.27067   0.27211   0.28022   0.28889
 Alpha virt. eigenvalues --    0.30939   0.31343   0.31468   0.31743   0.32275

 Mulliken charges:
               1
     1  C   -0.298215
     2  C   -0.299828
     3  C   -0.483634
     4  H    0.149899
     5  H    0.149804
     6  H    0.151347
     7  H    0.151601
     8  H    0.155286
     9  H    0.155381
    10  H    0.168302
    11  C   -0.298318
    12  C   -0.299688
    13  C   -0.475733
    14  H    0.149383
    15  H    0.149599
    16  H    0.152011
    17  H    0.152034
    18  H    0.155211
    19  H    0.155165
    20  H    0.160359
    21  C   -0.297511
    22  C   -0.306816
    23  C   -0.476233
    24  H    0.149612
    25  H    0.149463
    26  H    0.152139
    27  H    0.157684
    28  H    0.155500
    29  H    0.155482
    30  H    0.160664
    31  C   -0.298652
    32  C   -0.299625
    33  C   -0.475736
    34  H    0.149422
    35  H    0.150195
    36  H    0.151888
    37  H    0.151955
    38  H    0.155261
    39  H    0.155115
    40  H    0.160229
 Sum of Mulliken charges =  -0.00000

 Dipole moment (field-independent basis, Debye):
    X=             -0.0012    Y=             -0.0072    Z=             -0.0009  Tot=              0.0074
 Quadrupole moment (field-independent basis, Debye-Ang):
   XX=            -84.1364   YY=            -86.7314   ZZ=            -83.8390
   XY=              0.3450   XZ=             -0.3146   YZ=              0.1776

 Normal termination of Gaussian 16 at Thu May  6 03:50:18 2021.
