 Gaussian 16, Revision A.03,
 Gaussian 16:  EM64L-G16RevA.03 25-Dec-2016

 -------------
 #p 6-31g* mp2
 -------------

 ------------------------------------------------------
 Input file generated by CHIRIPA (05-May-2021 14:53:15)
 ------------------------------------------------------
 Symbolic Z-matrix:
 Charge =  0 Multiplicity = 1

                         Standard orientation:
 ---------------------------------------------------------------------
 Center     Atomic      Atomic             Coordinates (Angstroms)
 Number     Number       Type             X           Y           Z
 ---------------------------------------------------------------------
      1          6           0       -3.549173   -0.415467   -0.082606
      2          6           0       -3.158083   -1.598442   -0.968949
      3          6           0       -3.827947   -2.904578   -0.541066
      4          1           0       -3.282599   -0.641901    0.958841
      5          1           0       -4.640954   -0.293634   -0.106384
      6          1           0       -2.067243   -1.717145   -0.944600
      7          1           0       -3.425444   -1.369086   -2.008435
      8          1           0       -4.917881   -2.810236   -0.582814
      9          1           0       -3.551963   -3.160272    0.487065
     10          1           0       -3.534442   -3.737046   -1.188147
     11          6           0       -2.887534    0.897386   -0.497790
     12          6           0       -3.278623    2.080361    0.388553
     13          6           0       -2.608760    3.386498   -0.039330
     14          1           0       -1.795753    0.775554   -0.474012
     15          1           0       -3.154107    1.123820   -1.539237
     16          1           0       -3.011263    1.851006    1.428039
     17          1           0       -4.369464    2.199065    0.364204
     18          1           0       -2.884743    3.642192   -1.067461
     19          1           0       -1.518825    3.292155    0.002418
     20          1           0       -2.902265    4.218966    0.607750
     21          6           0        4.595359    0.595704   -0.965211
     22          6           0        4.401096   -0.767478   -0.719208
     23          6           0        3.251830   -1.213208   -0.059617
     24          6           0        2.313153   -0.264039    0.341948
     25          6           0        2.478051    1.100863    0.111429
     26          6           0        3.634909    1.523888   -0.549839
     27          1           0        5.491086    0.933139   -1.478249
     28          1           0        5.145307   -1.490574   -1.040656
     29          1           0        3.076158   -2.262599    0.143694
     30          1           0        1.718407    1.797905    0.443831
     31          1           0        3.783127    2.583176   -0.739540
     32          7           0        1.092457   -0.723896    1.041116
     33          8           0        0.280492    0.132396    1.384793
     34          8           0        0.970756   -1.931915    1.232207
 ---------------------------------------------------------------------

 SCF Done:  E(RHF) =  -669.536593812     A.U. after   15 cycles
 E2 =    -0.2091760782D+01 EUMP2 =    -0.67162835459426D+03

 The electronic state is 1-A.
 Alpha  occ. eigenvalues --  -20.61081 -20.61076 -15.86093 -11.31358 -11.27916
 Alpha  occ. eigenvalues --  -11.27911 -11.27641 -11.26909 -11.26899 -11.20620
 Alpha  occ. eigenvalues --  -11.20521 -11.20440 -11.20206 -11.20139 -11.20071
 Alpha  occ. eigenvalues --   -1.60131  -1.39689  -1.19521  -1.08937  -1.07315
 Alpha  occ. eigenvalues --   -1.04908  -1.02546  -0.95788  -0.95007  -0.86312
 Alpha  occ. eigenvalues --   -0.86038  -0.82623  -0.78615  -0.77688  -0.77132
 Alpha  occ. eigenvalues --   -0.72321  -0.71441  -0.70630  -0.65181  -0.64911
 Alpha  occ. eigenvalues --   -0.63890  -0.62257  -0.59924  -0.58396  -0.56634
 Alpha  occ. eigenvalues --   -0.55416  -0.54283  -0.53241  -0.52999  -0.51759
 Alpha  occ. eigenvalues --   -0.51465  -0.49090  -0.49070  -0.48942  -0.46958
 Alpha  occ. eigenvalues --   -0.45680  -0.45188  -0.44657  -0.44383  -0.42762
 Alpha  occ. eigenvalues --   -0.37495  -0.36506
 Alpha virt. eigenvalues --    0.04804   0.11143   0.16275   0.20958   0.23680
 Alpha virt. eigenvalues --    0.24863   0.26581   0.27461   0.28259   0.28782
 Alpha virt. eigenvalues --    0.29027   0.30715   0.31492   0.32500   0.32879

 Mulliken charges:
               1
     1  C   -0.298475
     2  C   -0.298832
     3  C   -0.475474
     4  H    0.161325
     5  H    0.143146
     6  H    0.155786
     7  H    0.145338
     8  H    0.150985
     9  H    0.160683
    10  H    0.156133
    11  C   -0.300556
    12  C   -0.298929
    13  C   -0.474250
    14  H    0.160152
    15  H    0.140803
    16  H    0.160391
    17  H    0.147429
    18  H    0.151267
    19  H    0.150707
    20  H    0.157169
    21  C   -0.170357
    22  C   -0.218558
    23  C   -0.170632
    24  C    0.158140
    25  C   -0.171181
    26  C   -0.218517
    27  H    0.226328
    28  H    0.224089
    29  H    0.275949
    30  H    0.276117
    31  H    0.224367
    32  N    0.488351
    33  O   -0.460336
    34  O   -0.458557
 Sum of Mulliken charges =  -0.00000

 Dipole moment (field-independent basis, Debye):
    X=              4.5983    Y=              1.5049    Z=             -2.2718  Tot=              5.3451
 Quadrupole moment (field-independent basis, Debye-Ang):
   XX=            -75.1736   YY=            -92.7770   ZZ=            -97.0626
   XY=              0.5757   XZ=             -4.6910   YZ=              1.5577

 Normal termination of Gaussian 16 at Thu May  6 17:09:27 2021.
