 Gaussian 16, Revision A.03,
 Gaussian 16:  EM64L-G16RevA.03 25-Dec-2016

 -------------
 #p 6-31g* mp2
 -------------

 ------------------------------------------------------
 Input file generated by CHIRIPA (05-May-2021 14:55:20)
 ------------------------------------------------------
 Symbolic Z-matrix:
 Charge =  0 Multiplicity = 1

                         Standard orientation:
 ---------------------------------------------------------------------
 Center     Atomic      Atomic             Coordinates (Angstroms)
 Number     Number       Type             X           Y           Z
 ---------------------------------------------------------------------
      1          6           0       -2.812706    0.079758   -2.217936
      2          6           0       -2.393251    1.158779   -1.432894
      3          6           0       -1.978186    0.957626   -0.113118
      4          6           0       -1.995358   -0.341628    0.391790
      5          6           0       -2.407764   -1.437120   -0.365251
      6          6           0       -2.818614   -1.212470   -1.682553
      7          1           0       -3.133501    0.245144   -3.242208
      8          1           0       -2.387620    2.163429   -1.846042
      9          1           0       -1.648598    1.774937    0.516796
     10          1           0       -2.402379   -2.427127    0.074378
     11          1           0       -3.143859   -2.052342   -2.289904
     12          7           0       -1.558179   -0.567017    1.787667
     13          8           0       -1.582594   -1.721352    2.209036
     14          8           0       -1.199381    0.414925    2.433956
     15          6           0        3.039119   -0.207765    0.061511
     16          6           0        3.259760   -1.305727   -0.979539
     17          6           0        4.047135   -2.494366   -0.427298
     18          1           0        4.013589    0.137107    0.433552
     19          1           0        2.507364   -0.631912    0.924489
     20          1           0        3.789717   -0.879313   -1.840894
     21          1           0        2.284656   -1.647890   -1.349285
     22          1           0        3.519415   -2.946414    0.418731
     23          1           0        5.033028   -2.173469   -0.075671
     24          1           0        4.193373   -3.267401   -1.188146
     25          6           0        2.253454    0.987238   -0.475545
     26          6           0        2.032812    2.085199    0.565504
     27          6           0        1.245437    3.273839    0.013264
     28          1           0        2.785208    1.411384   -1.338523
     29          1           0        1.278983    0.642366   -0.847587
     30          1           0        3.007916    2.427363    0.935250
     31          1           0        1.502854    1.658786    1.426860
     32          1           0        0.259544    2.952943   -0.338363
     33          1           0        1.773156    3.725887   -0.832766
     34          1           0        1.099198    4.046874    0.774113
 ---------------------------------------------------------------------

 SCF Done:  E(RHF) =  -669.535757350     A.U. after   15 cycles
 E2 =    -0.2093509203D+01 EUMP2 =    -0.67162926655347D+03

 The electronic state is 1-A.
 Alpha  occ. eigenvalues --  -20.60959 -20.60954 -15.85990 -11.31314 -11.27880
 Alpha  occ. eigenvalues --  -11.27857 -11.27607 -11.26883 -11.26873 -11.21415
 Alpha  occ. eigenvalues --  -11.21287 -11.21182 -11.21164 -11.21072 -11.20841
 Alpha  occ. eigenvalues --   -1.60019  -1.39574  -1.19489  -1.08885  -1.08209
 Alpha  occ. eigenvalues --   -1.04887  -1.03359  -0.95855  -0.95718  -0.86865
 Alpha  occ. eigenvalues --   -0.86277  -0.82562  -0.79411  -0.78005  -0.77618
 Alpha  occ. eigenvalues --   -0.72210  -0.71338  -0.70597  -0.65140  -0.64968
 Alpha  occ. eigenvalues --   -0.64765  -0.62290  -0.60713  -0.59194  -0.57435
 Alpha  occ. eigenvalues --   -0.55429  -0.55107  -0.53220  -0.52959  -0.52538
 Alpha  occ. eigenvalues --   -0.52261  -0.49795  -0.48967  -0.48966  -0.47737
 Alpha  occ. eigenvalues --   -0.46429  -0.45579  -0.45476  -0.44901  -0.43596
 Alpha  occ. eigenvalues --   -0.37454  -0.36442
 Alpha virt. eigenvalues --    0.04853   0.11130   0.16289   0.20647   0.23024
 Alpha virt. eigenvalues --    0.24252   0.26251   0.26988   0.27668   0.27995
 Alpha virt. eigenvalues --    0.29233   0.30505   0.31699   0.31838   0.32273

 Mulliken charges:
               1
     1  C   -0.170364
     2  C   -0.219395
     3  C   -0.171854
     4  C    0.157552
     5  C   -0.171172
     6  C   -0.218483
     7  H    0.226432
     8  H    0.225169
     9  H    0.280228
    10  H    0.275897
    11  H    0.224076
    12  N    0.488022
    13  O   -0.459152
    14  O   -0.460317
    15  C   -0.300170
    16  C   -0.298874
    17  C   -0.476211
    18  H    0.149794
    19  H    0.156491
    20  H    0.149747
    21  H    0.149512
    22  H    0.158823
    23  H    0.155260
    24  H    0.158108
    25  C   -0.300785
    26  C   -0.307644
    27  C   -0.476168
    28  H    0.146257
    29  H    0.148037
    30  H    0.152321
    31  H    0.170368
    32  H    0.141468
    33  H    0.154098
    34  H    0.162931
 Sum of Mulliken charges =  -0.00000

 Dipole moment (field-independent basis, Debye):
    X=             -1.6124    Y=              0.7086    Z=             -4.7797  Tot=              5.0939
 Quadrupole moment (field-independent basis, Debye-Ang):
   XX=            -88.6575   YY=            -91.4525   ZZ=            -99.0967
   XY=              0.8693   XZ=              9.5259   YZ=              2.7981

 Normal termination of Gaussian 16 at Thu May  6 14:06:12 2021.
