 Gaussian 16, Revision A.03,
 Gaussian 16:  EM64L-G16RevA.03 25-Dec-2016

 -------------
 #p 6-31g* mp2
 -------------

 ------------------------------------------------------
 Input file generated by CHIRIPA (05-May-2021 14:57:21)
 ------------------------------------------------------
 Symbolic Z-matrix:
 Charge =  0 Multiplicity = 1

                         Standard orientation:
 ---------------------------------------------------------------------
 Center     Atomic      Atomic             Coordinates (Angstroms)
 Number     Number       Type             X           Y           Z
 ---------------------------------------------------------------------
      1          6           0       -0.629389   -2.103255    1.277062
      2          6           0       -0.711950   -0.798182    1.773539
      3          6           0       -1.631378    0.108486    1.237673
      4          6           0       -2.456619   -0.325501    0.201371
      5          6           0       -2.398291   -1.619132   -0.314775
      6          6           0       -1.471339   -2.508850    0.236324
      7          1           0        0.087767   -2.800993    1.699252
      8          1           0       -0.059340   -0.480428    2.581734
      9          1           0       -1.716409    1.124693    1.603065
     10          1           0       -3.062113   -1.906762   -1.121017
     11          1           0       -1.409434   -3.521771   -0.151235
     12          7           0       -3.433959    0.625376   -0.373990
     13          8           0       -4.149795    0.218445   -1.286471
     14          8           0       -3.465655    1.759599    0.098419
     15          6           0        3.487027   -1.716122   -0.633230
     16          6           0        2.250850   -1.488629   -1.246935
     17          6           0        1.581691   -0.274352   -1.067198
     18          6           0        2.180353    0.694745   -0.263614
     19          6           0        3.410864    0.498051    0.361240
     20          6           0        4.062075   -0.723806    0.167487
     21          1           0        3.999874   -2.662346   -0.778298
     22          1           0        1.801880   -2.257466   -1.869320
     23          1           0        0.623694   -0.071796   -1.530480
     24          1           0        3.833348    1.283541    0.976002
     25          1           0        5.022002   -0.897708    0.645338
     26          7           0        1.481445    1.984257   -0.065916
     27          8           0        2.030034    2.821926    0.646823
     28          8           0        0.398286    2.132890   -0.627442
 ---------------------------------------------------------------------

 SCF Done:  E(RHF) =  -868.336698617     A.U. after   16 cycles
 E2 =    -0.2604863779D+01 EUMP2 =    -0.87094156239604D+03

 The electronic state is 1-A.
 Alpha  occ. eigenvalues --  -20.61161 -20.61120 -20.60342 -20.60263 -15.86165
 Alpha  occ. eigenvalues --  -15.85372 -11.31555 -11.30979 -11.28200 -11.28120
 Alpha  occ. eigenvalues --  -11.27965 -11.27726 -11.27522 -11.27473 -11.27204
 Alpha  occ. eigenvalues --  -11.27164 -11.26757 -11.26600  -1.60214  -1.59372
 Alpha  occ. eigenvalues --   -1.39764  -1.38917  -1.19782  -1.19229  -1.09172
 Alpha  occ. eigenvalues --   -1.08571  -1.05176  -1.04675  -0.95990  -0.95354
 Alpha  occ. eigenvalues --   -0.86580  -0.86040  -0.82814  -0.82189  -0.77853
 Alpha  occ. eigenvalues --   -0.77175  -0.72390  -0.71620  -0.71550  -0.70896
 Alpha  occ. eigenvalues --   -0.70679  -0.70310  -0.65425  -0.65186  -0.64869
 Alpha  occ. eigenvalues --   -0.64669  -0.62525  -0.61985  -0.55710  -0.55177
 Alpha  occ. eigenvalues --   -0.53876  -0.53290  -0.52756  -0.52638  -0.49157
 Alpha  occ. eigenvalues --   -0.49144  -0.48379  -0.48317  -0.45169  -0.44259
 Alpha  occ. eigenvalues --   -0.37915  -0.37598  -0.36334  -0.36165
 Alpha virt. eigenvalues --    0.04602   0.05385   0.10719   0.11527   0.16069
 Alpha virt. eigenvalues --    0.16833   0.20872   0.21527   0.26697   0.27387
 Alpha virt. eigenvalues --    0.27818   0.28435   0.30348   0.31038   0.32038

 Mulliken charges:
               1
     1  C   -0.166326
     2  C   -0.226684
     3  C   -0.160835
     4  C    0.157800
     5  C   -0.176240
     6  C   -0.225921
     7  H    0.222462
     8  H    0.224167
     9  H    0.285574
    10  H    0.274709
    11  H    0.218629
    12  N    0.489005
    13  O   -0.465484
    14  O   -0.450674
    15  C   -0.173492
    16  C   -0.221233
    17  C   -0.162295
    18  C    0.155958
    19  C   -0.173673
    20  C   -0.220567
    21  H    0.225022
    22  H    0.222005
    23  H    0.279009
    24  H    0.275852
    25  H    0.223617
    26  N    0.485428
    27  O   -0.460865
    28  O   -0.454949
 Sum of Mulliken charges =  -0.00000

 Dipole moment (field-independent basis, Debye):
    X=              5.7945    Y=             -7.5319    Z=              1.3568  Tot=              9.5993
 Quadrupole moment (field-independent basis, Debye-Ang):
   XX=           -108.9921   YY=           -107.1913   ZZ=           -100.9156
   XY=              0.9129   XZ=             -3.1092   YZ=              3.0643

 Normal termination of Gaussian 16 at Wed May  5 20:53:36 2021.
