 Gaussian 16, Revision A.03,
 Gaussian 16:  EM64L-G16RevA.03 25-Dec-2016

 -------------
 #p 6-31g* mp2
 -------------

 ------------------------------------------------------
 Input file generated by CHIRIPA (05-May-2021 14:57:23)
 ------------------------------------------------------
 Symbolic Z-matrix:
 Charge =  0 Multiplicity = 1

                         Standard orientation:
 ---------------------------------------------------------------------
 Center     Atomic      Atomic             Coordinates (Angstroms)
 Number     Number       Type             X           Y           Z
 ---------------------------------------------------------------------
      1          6           0       -5.910329    1.253716   -0.047150
      2          6           0       -5.845982    0.035434   -0.731380
      3          6           0       -4.715768   -0.780418   -0.623912
      4          6           0       -3.663460   -0.345104    0.180103
      5          6           0       -3.697640    0.863329    0.874229
      6          6           0       -4.837843    1.663054    0.752061
      7          1           0       -6.792186    1.881226   -0.136343
      8          1           0       -6.677386   -0.285004   -1.352774
      9          1           0       -4.639542   -1.728310   -1.142669
     10          1           0       -2.853031    1.155977    1.486121
     11          1           0       -4.885048    2.608691    1.284591
     12          7           0       -2.461666   -1.200273    0.301655
     13          8           0       -1.547940   -0.794150    1.016363
     14          8           0       -2.456180   -2.260486   -0.320082
     15          6           0        1.461851    0.693588   -0.766636
     16          6           0        1.861013   -0.618779   -0.492987
     17          6           0        3.187998   -0.901622   -0.155854
     18          6           0        4.093523    0.156846   -0.101429
     19          6           0        3.726485    1.474858   -0.368670
     20          6           0        2.394217    1.734383   -0.703715
     21          1           0        0.428964    0.904250   -1.027719
     22          1           0        1.139091   -1.429062   -0.541088
     23          1           0        3.524068   -1.908374    0.060764
     24          1           0        4.468954    2.261638   -0.312666
     25          1           0        2.087058    2.754552   -0.915735
     26          7           0        5.501139   -0.130244    0.254374
     27          8           0        6.279641    0.819955    0.295521
     28          8           0        5.799272   -1.300028    0.485367
 ---------------------------------------------------------------------

 SCF Done:  E(RHF) =  -868.339961537     A.U. after   16 cycles
 E2 =    -0.2599042328D+01 EUMP2 =    -0.87093900386499D+03

 The electronic state is 1-A.
 Alpha  occ. eigenvalues --  -20.62004 -20.61995 -20.60013 -20.59999 -15.86999
 Alpha  occ. eigenvalues --  -15.85052 -11.32106 -11.30236 -11.28643 -11.28622
 Alpha  occ. eigenvalues --  -11.28311 -11.27582 -11.27564 -11.26825 -11.26669
 Alpha  occ. eigenvalues --  -11.26428 -11.25846 -11.25513  -1.61070  -1.59088
 Alpha  occ. eigenvalues --   -1.40621  -1.38646  -1.20250  -1.18365  -1.09693
 Alpha  occ. eigenvalues --   -1.07786  -1.05605  -1.03725  -0.96568  -0.94664
 Alpha  occ. eigenvalues --   -0.87014  -0.85122  -0.83399  -0.81496  -0.78487
 Alpha  occ. eigenvalues --   -0.76572  -0.73212  -0.72389  -0.71339  -0.71276
 Alpha  occ. eigenvalues --   -0.70408  -0.69472  -0.65896  -0.65595  -0.64007
 Alpha  occ. eigenvalues --   -0.63688  -0.62949  -0.61065  -0.56103  -0.54235
 Alpha  occ. eigenvalues --   -0.53957  -0.53683  -0.52083  -0.51800  -0.49994
 Alpha  occ. eigenvalues --   -0.49957  -0.48042  -0.48012  -0.46069  -0.44093
 Alpha  occ. eigenvalues --   -0.38213  -0.37199  -0.36320  -0.35315
 Alpha virt. eigenvalues --    0.03989   0.05932   0.10454   0.12336   0.15549
 Alpha virt. eigenvalues --    0.17494   0.20652   0.22445   0.26591   0.27483
 Alpha virt. eigenvalues --    0.28479   0.28977   0.30414   0.31630   0.32217

 Mulliken charges:
               1
     1  C   -0.169720
     2  C   -0.218471
     3  C   -0.170581
     4  C    0.156290
     5  C   -0.173009
     6  C   -0.218536
     7  H    0.228738
     8  H    0.226407
     9  H    0.276997
    10  H    0.276061
    11  H    0.226023
    12  N    0.486301
    13  O   -0.463606
    14  O   -0.459084
    15  C   -0.167529
    16  C   -0.214748
    17  C   -0.173986
    18  C    0.158098
    19  C   -0.173402
    20  C   -0.219906
    21  H    0.220902
    22  H    0.241049
    23  H    0.274635
    24  H    0.271397
    25  H    0.217049
    26  N    0.488127
    27  O   -0.464005
    28  O   -0.461492
 Sum of Mulliken charges =  -0.00000

 Dipole moment (field-independent basis, Debye):
    X=             -9.7909    Y=              3.8639    Z=             -1.6523  Tot=             10.6546
 Quadrupole moment (field-independent basis, Debye-Ang):
   XX=           -114.3688   YY=           -100.0480   ZZ=           -104.2211
   XY=             -4.2082   XZ=             -2.2778   YZ=              2.4822

 Normal termination of Gaussian 16 at Wed May  5 19:22:54 2021.
