 Gaussian 16, Revision A.03,
 Gaussian 16:  EM64L-G16RevA.03 25-Dec-2016

 -------------
 #p 6-31g* mp2
 -------------

 ------------------------------------------------------
 Input file generated by CHIRIPA (05-May-2021 14:57:23)
 ------------------------------------------------------
 Symbolic Z-matrix:
 Charge =  0 Multiplicity = 1

                         Standard orientation:
 ---------------------------------------------------------------------
 Center     Atomic      Atomic             Coordinates (Angstroms)
 Number     Number       Type             X           Y           Z
 ---------------------------------------------------------------------
      1          6           0       -2.267335    2.571246   -0.385571
      2          6           0       -1.528705    1.847452    0.556272
      3          6           0       -1.789905    0.491285    0.773375
      4          6           0       -2.801455   -0.112074    0.027710
      5          6           0       -3.554727    0.582104   -0.917799
      6          6           0       -3.276210    1.937379   -1.118309
      7          1           0       -2.057702    3.624403   -0.547776
      8          1           0       -0.744609    2.337115    1.126771
      9          1           0       -1.233398   -0.092838    1.496229
     10          1           0       -4.330133    0.066522   -1.471278
     11          1           0       -3.851445    2.496994   -1.850416
     12          7           0       -3.087142   -1.547315    0.248764
     13          8           0       -3.983569   -2.055690   -0.421020
     14          8           0       -2.409227   -2.136706    1.087624
     15          6           0        2.747971    2.343777    0.531822
     16          6           0        3.436445    1.867497   -0.588750
     17          6           0        3.446795    0.501943   -0.888258
     18          6           0        2.754988   -0.363093   -0.041849
     19          6           0        2.059788    0.080795    1.081961
     20          6           0        2.063048    1.450481    1.362137
     21          1           0        2.745216    3.406176    0.756978
     22          1           0        3.969235    2.558932   -1.235355
     23          1           0        3.971621    0.106186   -1.749275
     24          1           0        1.537839   -0.632803    1.707871
     25          1           0        1.527513    1.817532    2.233069
     26          7           0        2.758743   -1.810930   -0.348692
     27          8           0        2.141525   -2.552477    0.412747
     28          8           0        3.378830   -2.176784   -1.344824
 ---------------------------------------------------------------------

 SCF Done:  E(RHF) =  -868.334805035     A.U. after   16 cycles
 E2 =    -0.2602705740D+01 EUMP2 =    -0.87093751077503D+03

 The electronic state is 1-A.
 Alpha  occ. eigenvalues --  -20.60912 -20.60874 -20.60691 -20.60666 -15.85961
 Alpha  occ. eigenvalues --  -15.85741 -11.31657 -11.31317 -11.28318 -11.28241
 Alpha  occ. eigenvalues --  -11.28124 -11.27957 -11.27865 -11.27693 -11.27464
 Alpha  occ. eigenvalues --  -11.27319 -11.27003 -11.26942  -1.59968  -1.59750
 Alpha  occ. eigenvalues --   -1.39510  -1.39299  -1.19882  -1.19503  -1.09222
 Alpha  occ. eigenvalues --   -1.08862  -1.05372  -1.04931  -0.95993  -0.95665
 Alpha  occ. eigenvalues --   -0.86760  -0.86320  -0.82853  -0.82487  -0.77852
 Alpha  occ. eigenvalues --   -0.77480  -0.72172  -0.71955  -0.71300  -0.71075
 Alpha  occ. eigenvalues --   -0.71007  -0.70622  -0.65557  -0.65512  -0.65159
 Alpha  occ. eigenvalues --   -0.64856  -0.62835  -0.62178  -0.55851  -0.55455
 Alpha  occ. eigenvalues --   -0.53744  -0.53548  -0.53167  -0.52920  -0.48962
 Alpha  occ. eigenvalues --   -0.48907  -0.48730  -0.48702  -0.44842  -0.44655
 Alpha  occ. eigenvalues --   -0.37906  -0.37469  -0.37201  -0.36252
 Alpha virt. eigenvalues --    0.04620   0.05141   0.10292   0.11361   0.16002
 Alpha virt. eigenvalues --    0.16562   0.18984   0.22180   0.25045   0.25927
 Alpha virt. eigenvalues --    0.28259   0.29065   0.30342   0.31245   0.32204

 Mulliken charges:
               1
     1  C   -0.172518
     2  C   -0.211866
     3  C   -0.171174
     4  C    0.159704
     5  C   -0.170480
     6  C   -0.217957
     7  H    0.222988
     8  H    0.213894
     9  H    0.270240
    10  H    0.277016
    11  H    0.223691
    12  N    0.488118
    13  O   -0.459585
    14  O   -0.456505
    15  C   -0.172433
    16  C   -0.217717
    17  C   -0.169095
    18  C    0.160339
    19  C   -0.172608
    20  C   -0.223795
    21  H    0.224028
    22  H    0.224844
    23  H    0.278255
    24  H    0.279827
    25  H    0.217914
    26  N    0.487326
    27  O   -0.452763
    28  O   -0.459687
 Sum of Mulliken charges =  -0.00000

 Dipole moment (field-independent basis, Debye):
    X=              1.0891    Y=              9.8631    Z=              0.1345  Tot=              9.9240
 Quadrupole moment (field-independent basis, Debye-Ang):
   XX=           -106.6154   YY=           -110.8330   ZZ=           -100.1633
   XY=              0.1892   XZ=              5.3908   YZ=             -1.6831

 Normal termination of Gaussian 16 at Fri May  7 00:19:34 2021.
