 Gaussian 16, Revision A.03,
 Gaussian 16:  EM64L-G16RevA.03 25-Dec-2016

 -------------
 #p 6-31g* mp2
 -------------

 ------------------------------------------------------
 Input file generated by CHIRIPA (05-May-2021 14:51:12)
 ------------------------------------------------------
 Symbolic Z-matrix:
 Charge =  0 Multiplicity = 1

                         Standard orientation:
 ---------------------------------------------------------------------
 Center     Atomic      Atomic             Coordinates (Angstroms)
 Number     Number       Type             X           Y           Z
 ---------------------------------------------------------------------
      1          6           0        2.341441   -0.692952    0.127457
      2          6           0        1.943302   -2.014963   -0.529626
      3          6           0        0.519947   -2.446315   -0.174957
      4          1           0        2.247010   -0.789652    1.217722
      5          1           0        1.633113    0.088996   -0.179500
      6          1           0        2.652982   -2.793883   -0.222617
      7          1           0        2.038875   -1.915165   -1.618443
      8          1           0       -0.203239   -1.689852   -0.496466
      9          1           0        0.414357   -2.573563    0.907290
     10          1           0        0.256108   -3.393697   -0.655287
     11          6           0        3.761695   -0.248490   -0.217593
     12          6           0        4.159835    1.073520    0.439490
     13          6           0        5.583190    1.504872    0.084822
     14          1           0        4.470024   -1.030438    0.089364
     15          1           0        3.856127   -0.151791   -1.307858
     16          1           0        4.064261    0.973722    1.528307
     17          1           0        3.450155    1.852440    0.132481
     18          1           0        5.688780    1.632120   -0.997426
     19          1           0        6.306376    0.748410    0.406330
     20          1           0        5.847029    2.452254    0.565151
     21          6           0       -2.966781   -0.176940    0.441020
     22          6           0       -3.427194   -1.419127   -0.322509
     23          6           0       -3.251274   -2.706940    0.482713
     24          1           0       -1.910619   -0.295801    0.719119
     25          1           0       -3.531058   -0.102744    1.380957
     26          1           0       -2.863193   -1.490196   -1.261374
     27          1           0       -4.482330   -1.297211   -0.598990
     28          1           0       -3.827496   -2.661666    1.412509
     29          1           0       -2.199159   -2.855748    0.746361
     30          1           0       -3.586633   -3.582465   -0.081955
     31          6           0       -3.136357    1.118383   -0.350884
     32          6           0       -2.675943    2.360569    0.412645
     33          6           0       -2.851862    3.648383   -0.392578
     34          1           0       -2.572079    1.044187   -1.290821
     35          1           0       -4.192518    1.237244   -0.628983
     36          1           0       -1.620807    2.238654    0.689125
     37          1           0       -3.239945    2.431639    1.351510
     38          1           0       -3.903978    3.797191   -0.656226
     39          1           0       -2.275641    3.603109   -1.322374
     40          1           0       -2.516504    4.523908    0.172091
 ---------------------------------------------------------------------

 SCF Done:  E(RHF) =  -470.732596345     A.U. after   11 cycles
 E2 =    -0.1583806694D+01 EUMP2 =    -0.47231640303960D+03

 The electronic state is 1-A.
 Alpha  occ. eigenvalues --  -11.21672 -11.21643 -11.21588 -11.21515 -11.21475
 Alpha  occ. eigenvalues --  -11.21410 -11.21366 -11.21283 -11.21163 -11.21102
 Alpha  occ. eigenvalues --  -11.21067 -11.20874  -1.08501  -1.08381  -1.03620
 Alpha  occ. eigenvalues --   -1.03451  -0.96076  -0.95896  -0.87097  -0.86918
 Alpha  occ. eigenvalues --   -0.79710  -0.79505  -0.78329  -0.78175  -0.65193
 Alpha  occ. eigenvalues --   -0.64983  -0.61086  -0.60812  -0.59426  -0.59286
 Alpha  occ. eigenvalues --   -0.57656  -0.57518  -0.55342  -0.55225  -0.52762
 Alpha  occ. eigenvalues --   -0.52612  -0.52491  -0.52289  -0.50083  -0.49756
 Alpha  occ. eigenvalues --   -0.48110  -0.47754  -0.46710  -0.46546  -0.45981
 Alpha  occ. eigenvalues --   -0.45780  -0.45696  -0.45463  -0.43838  -0.43726
 Alpha virt. eigenvalues --    0.20758   0.23024   0.23787   0.24709   0.26013
 Alpha virt. eigenvalues --    0.26385   0.27053   0.27378   0.28259   0.29427
 Alpha virt. eigenvalues --    0.30780   0.31202   0.31675   0.31855   0.32346

 Mulliken charges:
               1
     1  C   -0.298604
     2  C   -0.300834
     3  C   -0.482130
     4  H    0.149897
     5  H    0.148744
     6  H    0.152360
     7  H    0.152080
     8  H    0.161869
     9  H    0.155073
    10  H    0.161859
    11  C   -0.298289
    12  C   -0.299703
    13  C   -0.475755
    14  H    0.149828
    15  H    0.149772
    16  H    0.152086
    17  H    0.151909
    18  H    0.155242
    19  H    0.155274
    20  H    0.160443
    21  C   -0.302797
    22  C   -0.300010
    23  C   -0.482700
    24  H    0.153080
    25  H    0.149641
    26  H    0.151290
    27  H    0.151901
    28  H    0.153841
    29  H    0.166688
    30  H    0.158976
    31  C   -0.298116
    32  C   -0.299696
    33  C   -0.475632
    34  H    0.148369
    35  H    0.149802
    36  H    0.151860
    37  H    0.152092
    38  H    0.155252
    39  H    0.154813
    40  H    0.160225
 Sum of Mulliken charges =  -0.00000

 Dipole moment (field-independent basis, Debye):
    X=              0.0591    Y=             -0.0250    Z=              0.0105  Tot=              0.0650
 Quadrupole moment (field-independent basis, Debye-Ang):
   XX=            -84.9514   YY=            -85.7236   ZZ=            -84.2163
   XY=             -0.7484   XZ=              0.0511   YZ=              0.1648

 Normal termination of Gaussian 16 at Wed May  5 21:33:07 2021.
