 Gaussian 16, Revision A.03,
 Gaussian 16:  EM64L-G16RevA.03 25-Dec-2016

 -------------
 #p 6-31g* mp2
 -------------

 ------------------------------------------------------
 Input file generated by CHIRIPA (05-May-2021 14:57:23)
 ------------------------------------------------------
 Symbolic Z-matrix:
 Charge =  0 Multiplicity = 1

                         Standard orientation:
 ---------------------------------------------------------------------
 Center     Atomic      Atomic             Coordinates (Angstroms)
 Number     Number       Type             X           Y           Z
 ---------------------------------------------------------------------
      1          6           0       -2.995344    2.708134   -0.193953
      2          6           0       -4.245141    2.132689   -0.445727
      3          6           0       -4.418712    0.747886   -0.363612
      4          6           0       -3.315963   -0.035070   -0.025655
      5          6           0       -2.058177    0.508468    0.230922
      6          6           0       -1.907768    1.895620    0.142974
      7          1           0       -2.869507    3.784795   -0.260007
      8          1           0       -5.091540    2.761241   -0.707598
      9          1           0       -5.375161    0.276107   -0.553474
     10          1           0       -1.233127   -0.144001    0.489757
     11          1           0       -0.935995    2.339763    0.339035
     12          7           0       -3.487454   -1.502342    0.064364
     13          8           0       -2.500158   -2.170263    0.363973
     14          8           0       -4.605917   -1.956685   -0.166393
     15          6           0        2.087991   -2.426181    0.068237
     16          6           0        3.224950   -2.254950   -0.728335
     17          6           0        3.897658   -1.029603   -0.751526
     18          6           0        3.403682    0.007812    0.037809
     19          6           0        2.273496   -0.131746    0.841856
     20          6           0        1.616725   -1.365903    0.849413
     21          1           0        1.571605   -3.381482    0.080180
     22          1           0        3.593203   -3.076622   -1.336027
     23          1           0        4.780141   -0.869648   -1.359026
     24          1           0        1.930222    0.705823    1.436885
     25          1           0        0.733988   -1.496012    1.469004
     26          7           0        4.107413    1.309694    0.021533
     27          8           0        3.652111    2.208051    0.726012
     28          8           0        5.100974    1.407102   -0.695395
 ---------------------------------------------------------------------

 SCF Done:  E(RHF) =  -868.339261889     A.U. after   16 cycles
 E2 =    -0.2599858037D+01 EUMP2 =    -0.87093911992627D+03

 The electronic state is 1-A.
 Alpha  occ. eigenvalues --  -20.61395 -20.61347 -20.61080 -20.61054 -15.86418
 Alpha  occ. eigenvalues --  -15.86121 -11.31593 -11.31400 -11.28164 -11.28110
 Alpha  occ. eigenvalues --  -11.28033 -11.27936 -11.27789 -11.27541 -11.27083
 Alpha  occ. eigenvalues --  -11.27073 -11.26893 -11.26862  -1.60439  -1.60147
 Alpha  occ. eigenvalues --   -1.40004  -1.39705  -1.19736  -1.19551  -1.09154
 Alpha  occ. eigenvalues --   -1.08919  -1.05124  -1.04949  -0.96030  -0.95781
 Alpha  occ. eigenvalues --   -0.86527  -0.86312  -0.82878  -0.82634  -0.77991
 Alpha  occ. eigenvalues --   -0.77696  -0.72651  -0.72337  -0.71750  -0.71471
 Alpha  occ. eigenvalues --   -0.70843  -0.70577  -0.65392  -0.65212  -0.65159
 Alpha  occ. eigenvalues --   -0.64843  -0.62613  -0.62167  -0.55597  -0.55320
 Alpha  occ. eigenvalues --   -0.53447  -0.53366  -0.53187  -0.52909  -0.49416
 Alpha  occ. eigenvalues --   -0.49368  -0.49106  -0.49078  -0.45451  -0.45132
 Alpha  occ. eigenvalues --   -0.37683  -0.37448  -0.36725  -0.36556
 Alpha virt. eigenvalues --    0.04570   0.04797   0.10911   0.11050   0.16115
 Alpha virt. eigenvalues --    0.16174   0.19691   0.22209   0.25439   0.26738
 Alpha virt. eigenvalues --    0.28341   0.29412   0.30084   0.31334   0.32374

 Mulliken charges:
               1
     1  C   -0.169833
     2  C   -0.218641
     3  C   -0.170023
     4  C    0.157363
     5  C   -0.173824
     6  C   -0.222176
     7  H    0.229446
     8  H    0.225240
     9  H    0.276136
    10  H    0.272446
    11  H    0.228766
    12  N    0.488778
    13  O   -0.470280
    14  O   -0.456878
    15  C   -0.169134
    16  C   -0.218954
    17  C   -0.170155
    18  C    0.159082
    19  C   -0.176868
    20  C   -0.225140
    21  H    0.236297
    22  H    0.225782
    23  H    0.276153
    24  H    0.269539
    25  H    0.231922
    26  N    0.488300
    27  O   -0.464652
    28  O   -0.458691
 Sum of Mulliken charges =  -0.00000

 Dipole moment (field-independent basis, Debye):
    X=             -1.9253    Y=              0.4865    Z=             -0.3792  Tot=              2.0217
 Quadrupole moment (field-independent basis, Debye-Ang):
   XX=           -118.5958   YY=           -104.7837   ZZ=           -103.7395
   XY=            -35.8966   XZ=             -0.0410   YZ=              0.8968

 Normal termination of Gaussian 16 at Thu May  6 11:17:05 2021.
