 Gaussian 16, Revision A.03,
 Gaussian 16:  EM64L-G16RevA.03 25-Dec-2016

 -------------
 #p 6-31g* mp2
 -------------

 ------------------------------------------------------
 Input file generated by CHIRIPA (05-May-2021 14:57:25)
 ------------------------------------------------------
 Symbolic Z-matrix:
 Charge =  0 Multiplicity = 1

                         Standard orientation:
 ---------------------------------------------------------------------
 Center     Atomic      Atomic             Coordinates (Angstroms)
 Number     Number       Type             X           Y           Z
 ---------------------------------------------------------------------
      1          6           0       -2.306963    2.594387    0.350243
      2          6           0       -3.238839    2.264613   -0.639391
      3          6           0       -3.702985    0.952196   -0.768534
      4          6           0       -3.211840   -0.009675    0.112868
      5          6           0       -2.283135    0.287664    1.109055
      6          6           0       -1.832921    1.606602    1.219775
      7          1           0       -1.951814    3.616437    0.443409
      8          1           0       -3.608730    3.029679   -1.316074
      9          1           0       -4.424190    0.669346   -1.525685
     10          1           0       -1.932777   -0.496709    1.768923
     11          1           0       -1.109190    1.859821    1.989280
     12          7           0       -3.695836   -1.402523   -0.014098
     13          8           0       -3.247630   -2.231598    0.774815
     14          8           0       -4.514234   -1.638790   -0.900123
     15          6           0        0.702507   -0.881205   -0.294399
     16          6           0        1.070621    0.463758   -0.404333
     17          6           0        2.413775    0.841697   -0.316875
     18          6           0        3.366953   -0.155949   -0.118268
     19          6           0        3.031721   -1.504297   -0.004829
     20          6           0        1.682504   -1.859216   -0.095349
     21          1           0       -0.343242   -1.165856   -0.363528
     22          1           0        0.311690    1.225443   -0.558945
     23          1           0        2.726578    1.875575   -0.398534
     24          1           0        3.810890   -2.240943    0.149014
     25          1           0        1.399538   -2.904503   -0.009611
     26          7           0        4.792099    0.231972   -0.024058
     27          8           0        5.612746   -0.666068    0.151154
     28          8           0        5.061496    1.426720   -0.127214
 ---------------------------------------------------------------------

 SCF Done:  E(RHF) =  -868.336432063     A.U. after   16 cycles
 E2 =    -0.2604057413D+01 EUMP2 =    -0.87094048947624D+03

 The electronic state is 1-A.
 Alpha  occ. eigenvalues --  -20.62025 -20.62007 -20.60868 -20.60856 -15.87051
 Alpha  occ. eigenvalues --  -15.85914 -11.32471 -11.31247 -11.28980 -11.28959
 Alpha  occ. eigenvalues --  -11.28695 -11.27986 -11.27969 -11.27816 -11.27760
 Alpha  occ. eigenvalues --  -11.27399 -11.26726 -11.26702  -1.61088  -1.59941
 Alpha  occ. eigenvalues --   -1.40636  -1.39496  -1.20662  -1.19395  -1.10030
 Alpha  occ. eigenvalues --   -1.08789  -1.06024  -1.04784  -0.96844  -0.95631
 Alpha  occ. eigenvalues --   -0.87415  -0.86174  -0.83635  -0.82467  -0.78696
 Alpha  occ. eigenvalues --   -0.77535  -0.73249  -0.72464  -0.72131  -0.71706
 Alpha  occ. eigenvalues --   -0.71266  -0.70456  -0.66255  -0.65953  -0.65032
 Alpha  occ. eigenvalues --   -0.64814  -0.63313  -0.62165  -0.56476  -0.55320
 Alpha  occ. eigenvalues --   -0.54402  -0.54029  -0.53115  -0.52751  -0.50028
 Alpha  occ. eigenvalues --   -0.50007  -0.48895  -0.48883  -0.46007  -0.44910
 Alpha  occ. eigenvalues --   -0.38634  -0.38039  -0.37007  -0.36287
 Alpha virt. eigenvalues --    0.03721   0.04998   0.09853   0.11270   0.15255
 Alpha virt. eigenvalues --    0.16504   0.20336   0.21689   0.26330   0.26982
 Alpha virt. eigenvalues --    0.27712   0.27973   0.30185   0.30846   0.31833

 Mulliken charges:
               1
     1  C   -0.177825
     2  C   -0.217473
     3  C   -0.170996
     4  C    0.155387
     5  C   -0.180988
     6  C   -0.221931
     7  H    0.231194
     8  H    0.229069
     9  H    0.279639
    10  H    0.279626
    11  H    0.231806
    12  N    0.487606
    13  O   -0.461114
    14  O   -0.454065
    15  C   -0.178516
    16  C   -0.224296
    17  C   -0.175080
    18  C    0.158793
    19  C   -0.171675
    20  C   -0.219731
    21  H    0.230407
    22  H    0.226438
    23  H    0.272054
    24  H    0.276113
    25  H    0.229256
    26  N    0.488045
    27  O   -0.459513
    28  O   -0.462232
 Sum of Mulliken charges =  -0.00000

 Dipole moment (field-independent basis, Debye):
    X=             -3.6833    Y=              3.5525    Z=              0.1425  Tot=              5.1193
 Quadrupole moment (field-independent basis, Debye-Ang):
   XX=           -148.0843   YY=            -99.5657   ZZ=           -102.5687
   XY=            -22.5519   XZ=              1.1164   YZ=             -1.0295

 Normal termination of Gaussian 16 at Thu May  6 11:24:20 2021.
