 Gaussian 16, Revision A.03,
 Gaussian 16:  EM64L-G16RevA.03 25-Dec-2016

 -------------
 #p 6-31g* mp2
 -------------

 ------------------------------------------------------
 Input file generated by CHIRIPA (05-May-2021 14:55:22)
 ------------------------------------------------------
 Symbolic Z-matrix:
 Charge =  0 Multiplicity = 1

                         Standard orientation:
 ---------------------------------------------------------------------
 Center     Atomic      Atomic             Coordinates (Angstroms)
 Number     Number       Type             X           Y           Z
 ---------------------------------------------------------------------
      1          6           0        2.185648    2.404653   -0.055583
      2          6           0        3.511137    2.403363    0.391184
      3          6           0        4.265656    1.226550    0.372175
      4          6           0        3.660355    0.063851   -0.102199
      5          6           0        2.341951    0.033060   -0.554032
      6          6           0        1.606308    1.221583   -0.525936
      7          1           0        1.606851    3.323378   -0.037287
      8          1           0        3.963658    3.320668    0.756997
      9          1           0        5.293757    1.197249    0.712128
     10          1           0        1.918230   -0.896970   -0.913089
     11          1           0        0.577121    1.219619   -0.873521
     12          7           0        4.449140   -1.188187   -0.127133
     13          8           0        3.892758   -2.199344   -0.549788
     14          8           0        5.608835   -1.134669    0.276452
     15          6           0       -5.223748   -0.220744    0.391829
     16          6           0       -6.177137    0.347768   -0.659756
     17          6           0       -7.583441    0.592681   -0.111925
     18          1           0       -5.636207   -1.161679    0.781014
     19          1           0       -5.171267    0.472985    1.242346
     20          1           0       -6.226735   -0.346164   -1.508646
     21          1           0       -5.762266    1.287360   -1.046621
     22          1           0       -7.554115    1.302180    0.721354
     23          1           0       -8.021222   -0.340626    0.256704
     24          1           0       -8.248475    0.999103   -0.880306
     25          6           0       -3.813959   -0.470972   -0.140719
     26          6           0       -2.860570   -1.039483    0.910865
     27          6           0       -1.454266   -1.284397    0.363033
     28          1           0       -3.866440   -1.164701   -0.991237
     29          1           0       -3.401500    0.469963   -0.529904
     30          1           0       -3.275440   -1.979076    1.297730
     31          1           0       -2.810972   -0.345551    1.759756
     32          1           0       -1.016485   -0.351089   -0.005594
     33          1           0       -1.483593   -1.993896   -0.470244
     34          1           0       -0.789232   -1.690818    1.131416
 ---------------------------------------------------------------------

 SCF Done:  E(RHF) =  -669.535285099     A.U. after   15 cycles
 E2 =    -0.2091274975D+01 EUMP2 =    -0.67162656007410D+03

 The electronic state is 1-A.
 Alpha  occ. eigenvalues --  -20.60724 -20.60719 -15.85778 -11.31138 -11.27720
 Alpha  occ. eigenvalues --  -11.27693 -11.27466 -11.26736 -11.26709 -11.22142
 Alpha  occ. eigenvalues --  -11.21986 -11.21923 -11.21796 -11.21755 -11.21390
 Alpha  occ. eigenvalues --   -1.59800  -1.39353  -1.19318  -1.08912  -1.08716
 Alpha  occ. eigenvalues --   -1.04722  -1.04010  -0.96475  -0.95548  -0.87498
 Alpha  occ. eigenvalues --   -0.86121  -0.82384  -0.80082  -0.78720  -0.77424
 Alpha  occ. eigenvalues --   -0.71996  -0.71123  -0.70426  -0.65555  -0.64971
 Alpha  occ. eigenvalues --   -0.64743  -0.62124  -0.61373  -0.59826  -0.58071
 Alpha  occ. eigenvalues --   -0.55792  -0.55222  -0.53193  -0.53050  -0.52949
 Alpha  occ. eigenvalues --   -0.52725  -0.50404  -0.48758  -0.48750  -0.48389
 Alpha  occ. eigenvalues --   -0.47104  -0.46266  -0.46178  -0.44759  -0.44257
 Alpha  occ. eigenvalues --   -0.37304  -0.36303
 Alpha virt. eigenvalues --    0.05097   0.11293   0.16508   0.20371   0.22524
 Alpha virt. eigenvalues --    0.23852   0.25459   0.26289   0.27125   0.28066
 Alpha virt. eigenvalues --    0.29011   0.29517   0.31285   0.31528   0.32112

 Mulliken charges:
               1
     1  C   -0.171381
     2  C   -0.218720
     3  C   -0.170863
     4  C    0.157961
     5  C   -0.170666
     6  C   -0.219854
     7  H    0.225279
     8  H    0.223186
     9  H    0.275451
    10  H    0.277920
    11  H    0.225263
    12  N    0.488130
    13  O   -0.460265
    14  O   -0.460742
    15  C   -0.298595
    16  C   -0.299802
    17  C   -0.475943
    18  H    0.151700
    19  H    0.149568
    20  H    0.152898
    21  H    0.150602
    22  H    0.155222
    23  H    0.156331
    24  H    0.161086
    25  C   -0.297887
    26  C   -0.300136
    27  C   -0.480139
    28  H    0.151265
    29  H    0.144302
    30  H    0.156024
    31  H    0.152581
    32  H    0.144660
    33  H    0.158192
    34  H    0.167372
 Sum of Mulliken charges =  -0.00000

 Dipole moment (field-independent basis, Debye):
    X=             -2.9028    Y=              4.3341    Z=              0.1385  Tot=              5.2182
 Quadrupole moment (field-independent basis, Debye-Ang):
   XX=           -112.8805   YY=            -92.4944   ZZ=            -94.7989
   XY=             18.9976   XZ=              2.5751   YZ=              0.7903

 Normal termination of Gaussian 16 at Wed May  5 17:28:34 2021.
