 Gaussian 16, Revision A.03,
 Gaussian 16:  EM64L-G16RevA.03 25-Dec-2016

 -------------
 #p 6-31g* mp2
 -------------

 ------------------------------------------------------
 Input file generated by CHIRIPA (05-May-2021 14:53:12)
 ------------------------------------------------------
 Symbolic Z-matrix:
 Charge =  0 Multiplicity = 1

                         Standard orientation:
 ---------------------------------------------------------------------
 Center     Atomic      Atomic             Coordinates (Angstroms)
 Number     Number       Type             X           Y           Z
 ---------------------------------------------------------------------
      1          6           0       -2.924743    1.497055   -0.133573
      2          6           0       -1.537298    2.074841    0.147754
      3          6           0       -1.491920    3.596999    0.010750
      4          1           0       -3.236206    1.784863   -1.147034
      5          1           0       -3.649788    1.950040    0.556723
      6          1           0       -0.814847    1.619877   -0.541948
      7          1           0       -1.229021    1.785464    1.160592
      8          1           0       -2.190696    4.067718    0.709847
      9          1           0       -1.774169    3.901191   -1.002366
     10          1           0       -0.490883    3.988910    0.216154
     11          6           0       -2.986101   -0.023564   -0.000607
     12          6           0       -4.373546   -0.601350   -0.281934
     13          6           0       -4.418924   -2.123508   -0.144930
     14          1           0       -2.261055   -0.476549   -0.690903
     15          1           0       -2.674638   -0.311372    1.012854
     16          1           0       -4.681823   -0.311973   -1.294772
     17          1           0       -5.095997   -0.146386    0.407767
     18          1           0       -4.136675   -2.427700    0.868186
     19          1           0       -3.720148   -2.594227   -0.844027
     20          1           0       -5.419961   -2.515419   -0.350334
     21          6           0        4.488505    0.618196   -0.383751
     22          6           0        3.990943    0.523549    0.920087
     23          6           0        2.784330   -0.135562    1.173481
     24          6           0        2.098209   -0.690993    0.094581
     25          6           0        2.567931   -0.613357   -1.215619
     26          6           0        3.776666    0.050442   -1.445571
     27          1           0        5.426655    1.132030   -0.571488
     28          1           0        4.541630    0.963526    1.746652
     29          1           0        2.376182   -0.223539    2.173027
     30          1           0        1.996464   -1.061925   -2.019131
     31          1           0        4.160673    0.122405   -2.459180
     32          7           0        0.819699   -1.391245    0.350429
     33          8           0        0.234234   -1.872157   -0.617348
     34          8           0        0.427278   -1.445931    1.513894
 ---------------------------------------------------------------------

 SCF Done:  E(RHF) =  -669.536527575     A.U. after   15 cycles
 E2 =    -0.2092548225D+01 EUMP2 =    -0.67162907580057D+03

 The electronic state is 1-A.
 Alpha  occ. eigenvalues --  -20.60970 -20.60958 -15.85975 -11.31299 -11.27859
 Alpha  occ. eigenvalues --  -11.27849 -11.27589 -11.26860 -11.26850 -11.20994
 Alpha  occ. eigenvalues --  -11.20675 -11.20477 -11.20421 -11.19866 -11.19772
 Alpha  occ. eigenvalues --   -1.60002  -1.39565  -1.19459  -1.08864  -1.07404
 Alpha  occ. eigenvalues --   -1.04855  -1.02602  -0.95708  -0.95028  -0.86256
 Alpha  occ. eigenvalues --   -0.86049  -0.82546  -0.78720  -0.77599  -0.77120
 Alpha  occ. eigenvalues --   -0.72205  -0.71293  -0.70569  -0.65118  -0.64859
 Alpha  occ. eigenvalues --   -0.64042  -0.62204  -0.60010  -0.58453  -0.56628
 Alpha  occ. eigenvalues --   -0.55360  -0.54313  -0.53183  -0.52948  -0.51807
 Alpha  occ. eigenvalues --   -0.51436  -0.49038  -0.48967  -0.48902  -0.47019
 Alpha  occ. eigenvalues --   -0.45773  -0.45221  -0.44626  -0.44240  -0.42803
 Alpha  occ. eigenvalues --   -0.37428  -0.36453
 Alpha virt. eigenvalues --    0.04896   0.11188   0.16367   0.21322   0.23774
 Alpha virt. eigenvalues --    0.25248   0.27231   0.27621   0.27915   0.28551
 Alpha virt. eigenvalues --    0.28898   0.31012   0.32222   0.32404   0.32462

 Mulliken charges:
               1
     1  C   -0.297142
     2  C   -0.300468
     3  C   -0.474541
     4  H    0.145398
     5  H    0.146061
     6  H    0.146412
     7  H    0.154854
     8  H    0.154869
     9  H    0.153610
    10  H    0.155125
    11  C   -0.308730
    12  C   -0.299152
    13  C   -0.474883
    14  H    0.166974
    15  H    0.159469
    16  H    0.146384
    17  H    0.146439
    18  H    0.158167
    19  H    0.161851
    20  H    0.152985
    21  C   -0.170515
    22  C   -0.218557
    23  C   -0.170466
    24  C    0.159726
    25  C   -0.171461
    26  C   -0.218430
    27  H    0.226024
    28  H    0.223840
    29  H    0.275725
    30  H    0.275506
    31  H    0.223806
    32  N    0.489974
    33  O   -0.459863
    34  O   -0.458991
 Sum of Mulliken charges =  -0.00000

 Dipole moment (field-independent basis, Debye):
    X=              4.7436    Y=              2.2480    Z=             -0.8404  Tot=              5.3162
 Quadrupole moment (field-independent basis, Debye-Ang):
   XX=            -77.3880   YY=           -100.4619   ZZ=            -89.1423
   XY=              2.3769   XZ=             -1.4077   YZ=              2.1632

 Normal termination of Gaussian 16 at Thu May  6 17:01:06 2021.
