 Gaussian 16, Revision A.03,
 Gaussian 16:  EM64L-G16RevA.03 25-Dec-2016

 -------------
 #p 6-31g* mp2
 -------------

 ------------------------------------------------------
 Input file generated by CHIRIPA (05-May-2021 14:53:15)
 ------------------------------------------------------
 Symbolic Z-matrix:
 Charge =  0 Multiplicity = 1

                         Standard orientation:
 ---------------------------------------------------------------------
 Center     Atomic      Atomic             Coordinates (Angstroms)
 Number     Number       Type             X           Y           Z
 ---------------------------------------------------------------------
      1          6           0       -3.251040    0.648748   -0.131389
      2          6           0       -3.360546   -0.859803    0.092815
      3          6           0       -4.808774   -1.349085    0.124937
      4          1           0       -3.798783    1.171992    0.664312
      5          1           0       -3.748015    0.909015   -1.076202
      6          1           0       -2.862307   -1.117334    1.036240
      7          1           0       -2.812317   -1.379511   -0.703405
      8          1           0       -5.313574   -1.120764   -0.819333
      9          1           0       -5.363848   -0.857097    0.930196
     10          1           0       -4.863795   -2.430195    0.286288
     11          6           0       -1.809424    1.153007   -0.165958
     12          6           0       -1.699918    2.661558   -0.390161
     13          6           0       -0.251690    3.150841   -0.422284
     14          1           0       -1.312449    0.892741    0.778855
     15          1           0       -1.261681    0.629764   -0.961659
     16          1           0       -2.248146    3.181267    0.406058
     17          1           0       -2.198157    2.919090   -1.333587
     18          1           0        0.303384    2.658853   -1.227543
     19          1           0        0.253110    2.922520    0.521986
     20          1           0       -0.196669    4.231951   -0.583635
     21          6           0        0.742598   -2.886387   -0.165227
     22          6           0        0.505060   -2.087701    0.958249
     23          6           0        1.183134   -0.876454    1.124515
     24          6           0        2.096056   -0.492808    0.143354
     25          6           0        2.354506   -1.266591   -0.987024
     26          6           0        1.664938   -2.474010   -1.132572
     27          1           0        0.211391   -3.825825   -0.286339
     28          1           0       -0.210684   -2.405442    1.711109
     29          1           0        1.018459   -0.238756    1.984539
     30          1           0        3.073867   -0.923329   -1.720581
     31          1           0        1.851429   -3.092247   -2.006098
     32          7           0        2.819987    0.787459    0.308405
     33          8           0        3.619314    1.103060   -0.570292
     34          8           0        2.574370    1.451089    1.313346
 ---------------------------------------------------------------------

 SCF Done:  E(RHF) =  -669.535605491     A.U. after   15 cycles
 E2 =    -0.2094482595D+01 EUMP2 =    -0.67163008808533D+03

 The electronic state is 1-A.
 Alpha  occ. eigenvalues --  -20.60859 -20.60850 -15.85877 -11.31206 -11.27784
 Alpha  occ. eigenvalues --  -11.27776 -11.27517 -11.26789 -11.26771 -11.22013
 Alpha  occ. eigenvalues --  -11.21540 -11.21466 -11.21346 -11.21271 -11.20351
 Alpha  occ. eigenvalues --   -1.59906  -1.39467  -1.19383  -1.08781  -1.08489
 Alpha  occ. eigenvalues --   -1.04785  -1.03513  -0.95927  -0.95625  -0.86943
 Alpha  occ. eigenvalues --   -0.86181  -0.82464  -0.79620  -0.78290  -0.77503
 Alpha  occ. eigenvalues --   -0.72111  -0.71212  -0.70498  -0.65135  -0.65040
 Alpha  occ. eigenvalues --   -0.64792  -0.62137  -0.60908  -0.59374  -0.57543
 Alpha  occ. eigenvalues --   -0.55289  -0.55202  -0.53196  -0.52891  -0.52600
 Alpha  occ. eigenvalues --   -0.52281  -0.49879  -0.48870  -0.48868  -0.47916
 Alpha  occ. eigenvalues --   -0.46694  -0.45860  -0.45723  -0.44702  -0.43766
 Alpha  occ. eigenvalues --   -0.37343  -0.36310
 Alpha virt. eigenvalues --    0.04966   0.11188   0.16366   0.20570   0.22977
 Alpha virt. eigenvalues --    0.24062   0.25398   0.26810   0.27899   0.28054
 Alpha virt. eigenvalues --    0.29462   0.29583   0.31512   0.31652   0.31992

 Mulliken charges:
               1
     1  C   -0.298269
     2  C   -0.298182
     3  C   -0.475503
     4  H    0.150151
     5  H    0.150507
     6  H    0.143804
     7  H    0.150572
     8  H    0.157026
     9  H    0.156646
    10  H    0.156848
    11  C   -0.298114
    12  C   -0.299903
    13  C   -0.484475
    14  H    0.145176
    15  H    0.150142
    16  H    0.150751
    17  H    0.149839
    18  H    0.152162
    19  H    0.172480
    20  H    0.161119
    21  C   -0.171260
    22  C   -0.215341
    23  C   -0.168033
    24  C    0.159167
    25  C   -0.171823
    26  C   -0.218962
    27  H    0.225931
    28  H    0.223921
    29  H    0.274304
    30  H    0.275527
    31  H    0.223396
    32  N    0.489533
    33  O   -0.459208
    34  O   -0.459932
 Sum of Mulliken charges =  -0.00000

 Dipole moment (field-independent basis, Debye):
    X=             -2.4126    Y=             -4.4511    Z=             -0.5719  Tot=              5.0951
 Quadrupole moment (field-independent basis, Debye-Ang):
   XX=           -106.0934   YY=            -90.9093   ZZ=            -90.4429
   XY=             -9.1328   XZ=             -3.9178   YZ=              0.7920

 Normal termination of Gaussian 16 at Thu May  6 02:42:30 2021.
