 Gaussian 16, Revision A.03,
 Gaussian 16:  EM64L-G16RevA.03 25-Dec-2016

 -------------
 #p 6-31g* mp2
 -------------

 ------------------------------------------------------
 Input file generated by CHIRIPA (05-May-2021 14:53:13)
 ------------------------------------------------------
 Symbolic Z-matrix:
 Charge =  0 Multiplicity = 1

                         Standard orientation:
 ---------------------------------------------------------------------
 Center     Atomic      Atomic             Coordinates (Angstroms)
 Number     Number       Type             X           Y           Z
 ---------------------------------------------------------------------
      1          6           0        3.278461   -1.134035   -0.295594
      2          6           0        1.767559   -1.214516   -0.516234
      3          6           0        1.325411   -2.558974   -1.094794
      4          1           0        3.791985   -1.310548   -1.250623
      5          1           0        3.587051   -1.944127    0.379623
      6          1           0        1.461706   -0.403673   -1.189735
      7          1           0        1.257567   -1.037601    0.439394
      8          1           0        1.602332   -3.377465   -0.422492
      9          1           0        1.807630   -2.739935   -2.060878
     10          1           0        0.241821   -2.594761   -1.244499
     11          6           0        3.735869    0.204038    0.282393
     12          6           0        5.246771    0.284519    0.503034
     13          6           0        5.688919    1.628977    1.081593
     14          1           0        3.427278    1.014130   -0.392824
     15          1           0        3.222345    0.380551    1.237422
     16          1           0        5.756762    0.107603   -0.452595
     17          1           0        5.552624   -0.526324    1.176535
     18          1           0        5.206700    1.809938    2.047678
     19          1           0        5.411998    2.447468    0.409291
     20          1           0        6.772509    1.664764    1.231298
     21          6           0       -3.698816   -1.728061    1.040935
     22          6           0       -2.608482   -1.815244    0.169102
     23          6           0       -2.069034   -0.663077   -0.410599
     24          6           0       -2.647275    0.565464   -0.094979
     25          6           0       -3.733996    0.684956    0.769920
     26          6           0       -4.257108   -0.480439    1.338038
     27          1           0       -4.111528   -2.628229    1.486762
     28          1           0       -2.172870   -2.782823   -0.063445
     29          1           0       -1.225282   -0.701780   -1.088834
     30          1           0       -4.146795    1.663614    0.982624
     31          1           0       -5.103912   -0.409713    2.014770
     32          7           0       -2.084832    1.792212   -0.702551
     33          8           0       -2.612366    2.862630   -0.408354
     34          8           0       -1.127105    1.660092   -1.461459
 ---------------------------------------------------------------------

 SCF Done:  E(RHF) =  -669.535272891     A.U. after   15 cycles
 E2 =    -0.2092568193D+01 EUMP2 =    -0.67162784108333D+03

 The electronic state is 1-A.
 Alpha  occ. eigenvalues --  -20.60778 -20.60773 -15.85823 -11.31146 -11.27731
 Alpha  occ. eigenvalues --  -11.27673 -11.27472 -11.26741 -11.26715 -11.21733
 Alpha  occ. eigenvalues --  -11.21656 -11.21433 -11.21406 -11.21180 -11.20850
 Alpha  occ. eigenvalues --   -1.59845  -1.39400  -1.19327  -1.08730  -1.08409
 Alpha  occ. eigenvalues --   -1.04736  -1.03594  -0.96079  -0.95564  -0.87082
 Alpha  occ. eigenvalues --   -0.86127  -0.82407  -0.79650  -0.78184  -0.77449
 Alpha  occ. eigenvalues --   -0.72046  -0.71163  -0.70454  -0.65043  -0.64975
 Alpha  occ. eigenvalues --   -0.64734  -0.62231  -0.60971  -0.59399  -0.57645
 Alpha  occ. eigenvalues --   -0.55332  -0.55217  -0.53057  -0.52820  -0.52797
 Alpha  occ. eigenvalues --   -0.52468  -0.49969  -0.48813  -0.48797  -0.47959
 Alpha  occ. eigenvalues --   -0.46635  -0.45731  -0.45605  -0.44799  -0.43836
 Alpha  occ. eigenvalues --   -0.37312  -0.36316
 Alpha virt. eigenvalues --    0.05055   0.11303   0.16535   0.20095   0.23071
 Alpha virt. eigenvalues --    0.24036   0.26289   0.26620   0.27273   0.28035
 Alpha virt. eigenvalues --    0.29106   0.29876   0.31357   0.31674   0.32310

 Mulliken charges:
               1
     1  C   -0.298153
     2  C   -0.310786
     3  C   -0.478529
     4  H    0.150649
     5  H    0.147607
     6  H    0.168172
     7  H    0.151906
     8  H    0.156264
     9  H    0.161028
    10  H    0.145432
    11  C   -0.299688
    12  C   -0.299870
    13  C   -0.475894
    14  H    0.157132
    15  H    0.149551
    16  H    0.151919
    17  H    0.150109
    18  H    0.155078
    19  H    0.157859
    20  H    0.159401
    21  C   -0.170509
    22  C   -0.222905
    23  C   -0.175009
    24  C    0.157716
    25  C   -0.170516
    26  C   -0.219007
    27  H    0.225525
    28  H    0.225220
    29  H    0.285151
    30  H    0.275359
    31  H    0.223295
    32  N    0.488703
    33  O   -0.460235
    34  O   -0.461978
 Sum of Mulliken charges =  -0.00000

 Dipole moment (field-independent basis, Debye):
    X=             -1.8690    Y=             -4.1969    Z=              2.1112  Tot=              5.0561
 Quadrupole moment (field-independent basis, Debye-Ang):
   XX=            -82.3741   YY=            -99.5322   ZZ=            -93.8987
   XY=              8.0541   XZ=             -8.0751   YZ=              2.3231

 Normal termination of Gaussian 16 at Thu May  6 04:10:30 2021.
