 Gaussian 16, Revision A.03,
 Gaussian 16:  EM64L-G16RevA.03 25-Dec-2016

 -------------
 #p 6-31g* mp2
 -------------

 ------------------------------------------------------
 Input file generated by CHIRIPA (05-May-2021 14:53:16)
 ------------------------------------------------------
 Symbolic Z-matrix:
 Charge =  0 Multiplicity = 1

                         Standard orientation:
 ---------------------------------------------------------------------
 Center     Atomic      Atomic             Coordinates (Angstroms)
 Number     Number       Type             X           Y           Z
 ---------------------------------------------------------------------
      1          6           0        4.392653   -0.488466    0.128279
      2          6           0        3.207164    0.454825    0.335166
      3          6           0        1.888608   -0.290156    0.545422
      4          1           0        4.192520   -1.134126   -0.737755
      5          1           0        4.480409   -1.152350    0.999458
      6          1           0        3.122516    1.117657   -0.535526
      7          1           0        3.410227    1.098444    1.200692
      8          1           0        1.948638   -0.938693    1.425420
      9          1           0        1.659292   -0.919372   -0.320663
     10          1           0        1.054531    0.403308    0.691311
     11          6           0        5.717888    0.241422   -0.083251
     12          6           0        6.903377   -0.701869   -0.290138
     13          6           0        8.221933    0.043112   -0.500394
     14          1           0        5.630132    0.905305   -0.954430
     15          1           0        5.918021    0.887082    0.782783
     16          1           0        6.700314   -1.345489   -1.155664
     17          1           0        6.988025   -1.364701    0.580554
     18          1           0        8.451248    0.672327    0.365691
     19          1           0        8.161903    0.691649   -1.380392
     20          1           0        9.056010   -0.650352   -0.646283
     21          6           0       -2.806192    2.338888    0.157436
     22          6           0       -4.088360    2.248011   -0.394205
     23          6           0       -4.731374    1.010803   -0.496168
     24          6           0       -4.059955   -0.120284   -0.034510
     25          6           0       -2.782270   -0.062223    0.519965
     26          6           0       -2.158381    1.185514    0.611958
     27          1           0       -2.314111    3.304071    0.232771
     28          1           0       -4.593862    3.142067   -0.748007
     29          1           0       -5.723784    0.911789   -0.918939
     30          1           0       -2.303689   -0.971051    0.864071
     31          1           0       -1.162611    1.253085    1.040819
     32          7           0       -4.730560   -1.435634   -0.137177
     33          8           0       -4.117655   -2.417273    0.276790
     34          8           0       -5.856390   -1.460061   -0.629670
 ---------------------------------------------------------------------

 SCF Done:  E(RHF) =  -669.535470201     A.U. after   15 cycles
 E2 =    -0.2090721283D+01 EUMP2 =    -0.67162619148454D+03

 The electronic state is 1-A.
 Alpha  occ. eigenvalues --  -20.60726 -20.60721 -15.85780 -11.31142 -11.27720
 Alpha  occ. eigenvalues --  -11.27702 -11.27463 -11.26735 -11.26708 -11.22243
 Alpha  occ. eigenvalues --  -11.21911 -11.21892 -11.21845 -11.21741 -11.21318
 Alpha  occ. eigenvalues --   -1.59802  -1.39355  -1.19318  -1.08879  -1.08715
 Alpha  occ. eigenvalues --   -1.04721  -1.04015  -0.96476  -0.95549  -0.87501
 Alpha  occ. eigenvalues --   -0.86121  -0.82382  -0.80081  -0.78664  -0.77428
 Alpha  occ. eigenvalues --   -0.71998  -0.71125  -0.70428  -0.65501  -0.64971
 Alpha  occ. eigenvalues --   -0.64756  -0.62109  -0.61399  -0.59864  -0.58078
 Alpha  occ. eigenvalues --   -0.55741  -0.55231  -0.53335  -0.53040  -0.52952
 Alpha  occ. eigenvalues --   -0.52627  -0.50396  -0.48759  -0.48752  -0.48391
 Alpha  occ. eigenvalues --   -0.47094  -0.46214  -0.46117  -0.44761  -0.44269
 Alpha  occ. eigenvalues --   -0.37303  -0.36318
 Alpha virt. eigenvalues --    0.05105   0.11303   0.16557   0.20194   0.22552
 Alpha virt. eigenvalues --    0.23789   0.25770   0.26247   0.27057   0.28231
 Alpha virt. eigenvalues --    0.28528   0.29820   0.30971   0.31585   0.32233

 Mulliken charges:
               1
     1  C   -0.299333
     2  C   -0.299095
     3  C   -0.480213
     4  H    0.151784
     5  H    0.151046
     6  H    0.152468
     7  H    0.151646
     8  H    0.158587
     9  H    0.161149
    10  H    0.149700
    11  C   -0.298606
    12  C   -0.300095
    13  C   -0.475946
    14  H    0.149725
    15  H    0.149639
    16  H    0.152979
    17  H    0.152722
    18  H    0.155221
    19  H    0.155333
    20  H    0.161443
    21  C   -0.171799
    22  C   -0.218608
    23  C   -0.170983
    24  C    0.158421
    25  C   -0.172517
    26  C   -0.222743
    27  H    0.225684
    28  H    0.223202
    29  H    0.275463
    30  H    0.276516
    31  H    0.230116
    32  N    0.488122
    33  O   -0.460307
    34  O   -0.460719
 Sum of Mulliken charges =  -0.00000

 Dipole moment (field-independent basis, Debye):
    X=              2.5324    Y=              4.5885    Z=              0.3321  Tot=              5.2515
 Quadrupole moment (field-independent basis, Debye-Ang):
   XX=           -111.4468   YY=            -95.5730   ZZ=            -93.6829
   XY=            -21.8137   XZ=              0.6700   YZ=             -1.2384

 Normal termination of Gaussian 16 at Thu May  6 07:31:02 2021.
