 Gaussian 16, Revision A.03,
 Gaussian 16:  EM64L-G16RevA.03 25-Dec-2016

 -------------
 #p 6-31g* mp2
 -------------

 ------------------------------------------------------
 Input file generated by CHIRIPA (05-May-2021 14:55:21)
 ------------------------------------------------------
 Symbolic Z-matrix:
 Charge =  0 Multiplicity = 1

                         Standard orientation:
 ---------------------------------------------------------------------
 Center     Atomic      Atomic             Coordinates (Angstroms)
 Number     Number       Type             X           Y           Z
 ---------------------------------------------------------------------
      1          6           0        0.604335   -1.590178    1.519396
      2          6           0        0.733261   -1.879074    0.156885
      3          6           0        1.701852   -1.233291   -0.617288
      4          6           0        2.528443   -0.299941    0.006326
      5          6           0        2.424620    0.009507    1.361595
      6          6           0        1.448936   -0.648470    2.116350
      7          1           0       -0.150845   -2.096574    2.113251
      8          1           0        0.078711   -2.609964   -0.309386
      9          1           0        1.823394   -1.437873   -1.674071
     10          1           0        3.091635    0.742867    1.798276
     11          1           0        1.351088   -0.422111    3.174288
     12          7           0        3.557602    0.390175   -0.802978
     13          8           0        4.273564    1.208429   -0.229832
     14          8           0        3.628806    0.099768   -1.995131
     15          6           0       -2.606901    1.057742    0.187687
     16          6           0       -2.854701    2.479167   -0.318408
     17          6           0       -2.022476    3.524704    0.424591
     18          1           0       -2.833426    1.013062    1.261762
     19          1           0       -1.539273    0.819717    0.083241
     20          1           0       -3.921783    2.713940   -0.214323
     21          1           0       -2.627745    2.520420   -1.391443
     22          1           0       -0.953399    3.318122    0.310589
     23          1           0       -2.254789    3.512740    1.494398
     24          1           0       -2.215217    4.533669    0.046832
     25          6           0       -3.431692    0.001279   -0.545343
     26          6           0       -3.183893   -1.420146   -0.039247
     27          6           0       -4.016117   -2.465683   -0.782246
     28          1           0       -4.499321    0.239304   -0.440898
     29          1           0       -3.205168    0.045959   -1.619417
     30          1           0       -3.410849   -1.461399    1.033787
     31          1           0       -2.116811   -1.654919   -0.143334
     32          1           0       -3.783804   -2.453719   -1.852054
     33          1           0       -5.085195   -2.259100   -0.668244
     34          1           0       -3.823377   -3.474648   -0.404488
 ---------------------------------------------------------------------

 SCF Done:  E(RHF) =  -669.535052065     A.U. after   15 cycles
 E2 =    -0.2093086686D+01 EUMP2 =    -0.67162813875065D+03

 The electronic state is 1-A.
 Alpha  occ. eigenvalues --  -20.60817 -20.60812 -15.85872 -11.31253 -11.27832
 Alpha  occ. eigenvalues --  -11.27823 -11.27561 -11.26834 -11.26820 -11.22341
 Alpha  occ. eigenvalues --  -11.21888 -11.21839 -11.21785 -11.21701 -11.21242
 Alpha  occ. eigenvalues --   -1.59893  -1.39445  -1.19435  -1.08917  -1.08799
 Alpha  occ. eigenvalues --   -1.04843  -1.04001  -0.96425  -0.95650  -0.87446
 Alpha  occ. eigenvalues --   -0.86241  -0.82481  -0.80105  -0.78690  -0.77528
 Alpha  occ. eigenvalues --   -0.72089  -0.71218  -0.70520  -0.65591  -0.65079
 Alpha  occ. eigenvalues --   -0.64823  -0.62222  -0.61364  -0.59822  -0.58040
 Alpha  occ. eigenvalues --   -0.55704  -0.55318  -0.53263  -0.53072  -0.52949
 Alpha  occ. eigenvalues --   -0.52834  -0.50365  -0.48856  -0.48843  -0.48395
 Alpha  occ. eigenvalues --   -0.47131  -0.46226  -0.46109  -0.44848  -0.44234
 Alpha  occ. eigenvalues --   -0.37350  -0.36416
 Alpha virt. eigenvalues --    0.05005   0.11055   0.16471   0.20520   0.22736
 Alpha virt. eigenvalues --    0.23879   0.25892   0.26445   0.27325   0.27909
 Alpha virt. eigenvalues --    0.28758   0.30293   0.31257   0.31405   0.31731

 Mulliken charges:
               1
     1  C   -0.167390
     2  C   -0.219187
     3  C   -0.173092
     4  C    0.157913
     5  C   -0.170779
     6  C   -0.218670
     7  H    0.227739
     8  H    0.225007
     9  H    0.275870
    10  H    0.276006
    11  H    0.224011
    12  N    0.488089
    13  O   -0.460164
    14  O   -0.460349
    15  C   -0.301921
    16  C   -0.300077
    17  C   -0.476063
    18  H    0.146082
    19  H    0.155183
    20  H    0.151744
    21  H    0.153977
    22  H    0.157395
    23  H    0.153130
    24  H    0.162222
    25  C   -0.297257
    26  C   -0.306249
    27  C   -0.476024
    28  H    0.151103
    29  H    0.151296
    30  H    0.148925
    31  H    0.148889
    32  H    0.156682
    33  H    0.158943
    34  H    0.157015
 Sum of Mulliken charges =  -0.00000

 Dipole moment (field-independent basis, Debye):
    X=             -3.6050    Y=             -2.3655    Z=              2.8432  Tot=              5.1649
 Quadrupole moment (field-independent basis, Debye-Ang):
   XX=           -113.1318   YY=            -93.3145   ZZ=            -91.3110
   XY=             -4.8964   XZ=              8.0609   YZ=              1.0951

 Normal termination of Gaussian 16 at Thu May  6 04:35:09 2021.
