 Gaussian 16, Revision A.03,
 Gaussian 16:  EM64L-G16RevA.03 25-Dec-2016

 -------------
 #p 6-31g* mp2
 -------------

 ------------------------------------------------------
 Input file generated by CHIRIPA (05-May-2021 14:51:14)
 ------------------------------------------------------
 Symbolic Z-matrix:
 Charge =  0 Multiplicity = 1

                         Standard orientation:
 ---------------------------------------------------------------------
 Center     Atomic      Atomic             Coordinates (Angstroms)
 Number     Number       Type             X           Y           Z
 ---------------------------------------------------------------------
      1          6           0       -3.193299    1.210905   -0.011920
      2          6           0       -2.156592    2.321225    0.162474
      3          6           0       -2.783510    3.715366    0.196227
      4          1           0       -3.754668    1.384633   -0.940160
      5          1           0       -3.921646    1.266652    0.808932
      6          1           0       -1.429624    2.262538   -0.657702
      7          1           0       -1.597497    2.144728    1.090308
      8          1           0       -3.494556    3.798064    1.024584
      9          1           0       -3.325729    3.916543   -0.733358
     10          1           0       -2.024557    4.493913    0.321586
     11          6           0       -2.581923   -0.188623   -0.047529
     12          6           0       -3.618629   -1.298943   -0.221923
     13          6           0       -2.991711   -2.693084   -0.255676
     14          1           0       -1.853576   -0.244371   -0.868381
     15          1           0       -2.020554   -0.362352    0.880710
     16          1           0       -4.177725   -1.122446   -1.149757
     17          1           0       -4.345598   -1.240256    0.598253
     18          1           0       -2.449493   -2.894262    0.673909
     19          1           0       -2.280666   -2.775782   -1.084033
     20          1           0       -3.750665   -3.471631   -0.381035
     21          6           0        3.429950   -0.063050    0.327239
     22          6           0        3.955878    0.985339   -0.653713
     23          6           0        5.040317    1.874103   -0.043889
     24          1           0        3.033025    0.443604    1.217575
     25          1           0        4.266996   -0.687060    0.669818
     26          1           0        3.117865    1.606304   -0.995402
     27          1           0        4.351423    0.476139   -1.541900
     28          1           0        5.894759    1.271511    0.280783
     29          1           0        4.654191    2.408096    0.830387
     30          1           0        5.402051    2.616324   -0.762301
     31          6           0        2.345271   -0.959232   -0.267790
     32          6           0        1.819344   -2.007620    0.713162
     33          6           0        0.734905   -2.896385    0.103339
     34          1           0        1.508226   -0.335222   -0.610368
     35          1           0        2.742197   -1.465886   -1.158125
     36          1           0        1.423799   -1.498421    1.601349
     37          1           0        2.657357   -2.628586    1.054851
     38          1           0        1.121030   -3.430379   -0.770938
     39          1           0       -0.119537   -2.293792   -0.221334
     40          1           0        0.373171   -3.638606    0.821750
 ---------------------------------------------------------------------

 SCF Done:  E(RHF) =  -470.732056655     A.U. after   11 cycles
 E2 =    -0.1583945215D+01 EUMP2 =    -0.47231600187061D+03

 The electronic state is 1-A.
 Alpha  occ. eigenvalues --  -11.21672 -11.21625 -11.21570 -11.21500 -11.21482
 Alpha  occ. eigenvalues --  -11.21420 -11.21351 -11.21289 -11.21122 -11.21047
 Alpha  occ. eigenvalues --  -11.20993 -11.20845  -1.08499  -1.08363  -1.03593
 Alpha  occ. eigenvalues --   -1.03437  -0.96052  -0.95872  -0.87097  -0.86866
 Alpha  occ. eigenvalues --   -0.79738  -0.79441  -0.78350  -0.78144  -0.65123
 Alpha  occ. eigenvalues --   -0.64999  -0.60969  -0.60889  -0.59398  -0.59279
 Alpha  occ. eigenvalues --   -0.57700  -0.57486  -0.55302  -0.55192  -0.52767
 Alpha  occ. eigenvalues --   -0.52703  -0.52432  -0.52193  -0.49954  -0.49888
 Alpha  occ. eigenvalues --   -0.48091  -0.47685  -0.46674  -0.46585  -0.45959
 Alpha  occ. eigenvalues --   -0.45783  -0.45694  -0.45336  -0.43828  -0.43706
 Alpha virt. eigenvalues --    0.21158   0.23331   0.23411   0.24908   0.25088
 Alpha virt. eigenvalues --    0.26534   0.26897   0.27688   0.28824   0.29425
 Alpha virt. eigenvalues --    0.29822   0.31300   0.31472   0.31897   0.32279

 Mulliken charges:
               1
     1  C   -0.298051
     2  C   -0.299795
     3  C   -0.475733
     4  H    0.150045
     5  H    0.149973
     6  H    0.151578
     7  H    0.151708
     8  H    0.155401
     9  H    0.155427
    10  H    0.160386
    11  C   -0.301801
    12  C   -0.299293
    13  C   -0.479351
    14  H    0.150068
    15  H    0.150430
    16  H    0.151875
    17  H    0.151885
    18  H    0.158502
    19  H    0.157678
    20  H    0.160122
    21  C   -0.298082
    22  C   -0.299603
    23  C   -0.475658
    24  H    0.149550
    25  H    0.149413
    26  H    0.151828
    27  H    0.151756
    28  H    0.155128
    29  H    0.155137
    30  H    0.160083
    31  C   -0.299218
    32  C   -0.299154
    33  C   -0.482959
    34  H    0.150178
    35  H    0.149205
    36  H    0.150771
    37  H    0.151086
    38  H    0.153260
    39  H    0.167323
    40  H    0.158900
 Sum of Mulliken charges =  -0.00000

 Dipole moment (field-independent basis, Debye):
    X=             -0.0703    Y=              0.0026    Z=             -0.0082  Tot=              0.0708
 Quadrupole moment (field-independent basis, Debye-Ang):
   XX=            -85.0607   YY=            -86.0389   ZZ=            -83.7401
   XY=             -0.6447   XZ=             -0.5729   YZ=             -0.0911

 Normal termination of Gaussian 16 at Thu May  6 04:01:50 2021.
