 Gaussian 16, Revision A.03,
 Gaussian 16:  EM64L-G16RevA.03 25-Dec-2016

 -------------
 #p 6-31g* mp2
 -------------

 ------------------------------------------------------
 Input file generated by CHIRIPA (05-May-2021 14:57:24)
 ------------------------------------------------------
 Symbolic Z-matrix:
 Charge =  0 Multiplicity = 1

                         Standard orientation:
 ---------------------------------------------------------------------
 Center     Atomic      Atomic             Coordinates (Angstroms)
 Number     Number       Type             X           Y           Z
 ---------------------------------------------------------------------
      1          6           0       -4.787499    1.853060    0.066868
      2          6           0       -5.272362    0.682889   -0.526535
      3          6           0       -4.507523   -0.487362   -0.517401
      4          6           0       -3.256582   -0.451650    0.096732
      5          6           0       -2.745925    0.698519    0.696425
      6          6           0       -3.528048    1.857133    0.675382
      7          1           0       -5.388358    2.757619    0.055147
      8          1           0       -6.250109    0.676798   -0.999841
      9          1           0       -4.858556   -1.407125   -0.969320
     10          1           0       -1.767476    0.673742    1.160583
     11          1           0       -3.148947    2.764452    1.137010
     12          7           0       -2.437732   -1.684383    0.112706
     13          8           0       -1.338844   -1.626876    0.660223
     14          8           0       -2.910311   -2.684763   -0.422594
     15          6           0        4.111478   -2.161849    0.100625
     16          6           0        2.764448   -1.848346   -0.108527
     17          6           0        2.354171   -0.516338   -0.217958
     18          6           0        3.321937    0.481503   -0.112925
     19          6           0        4.671491    0.201135    0.095372
     20          6           0        5.059031   -1.137913    0.201729
     21          1           0        4.421360   -3.199320    0.184440
     22          1           0        2.026374   -2.641483   -0.187444
     23          1           0        1.317938   -0.245414   -0.379954
     24          1           0        5.384144    1.013537    0.169849
     25          1           0        6.105843   -1.378426    0.364153
     26          7           0        2.899630    1.895366   -0.227148
     27          8           0        3.771732    2.756091   -0.131073
     28          8           0        1.704523    2.116056   -0.410587
 ---------------------------------------------------------------------

 SCF Done:  E(RHF) =  -868.341256476     A.U. after   16 cycles
 E2 =    -0.2598214853D+01 EUMP2 =    -0.87093947132903D+03

 The electronic state is 1-A.
 Alpha  occ. eigenvalues --  -20.61261 -20.61202 -20.60469 -20.60443 -15.86249
 Alpha  occ. eigenvalues --  -15.85497 -11.31212 -11.30542 -11.27768 -11.27690
 Alpha  occ. eigenvalues --  -11.27421 -11.27136 -11.26943 -11.26771 -11.26707
 Alpha  occ. eigenvalues --  -11.26611 -11.26115 -11.25866  -1.60293  -1.59535
 Alpha  occ. eigenvalues --   -1.39859  -1.39098  -1.19353  -1.18686  -1.08828
 Alpha  occ. eigenvalues --   -1.08151  -1.04688  -1.04010  -0.95726  -0.95034
 Alpha  occ. eigenvalues --   -0.86112  -0.85440  -0.82574  -0.81858  -0.77658
 Alpha  occ. eigenvalues --   -0.76933  -0.72491  -0.71733  -0.71586  -0.70849
 Alpha  occ. eigenvalues --   -0.70463  -0.69797  -0.65010  -0.64688  -0.64329
 Alpha  occ. eigenvalues --   -0.63993  -0.62037  -0.61337  -0.55222  -0.54564
 Alpha  occ. eigenvalues --   -0.53046  -0.52774  -0.52400  -0.52078  -0.49251
 Alpha  occ. eigenvalues --   -0.49205  -0.48493  -0.48452  -0.45345  -0.44575
 Alpha  occ. eigenvalues --   -0.37322  -0.36686  -0.36266  -0.35604
 Alpha virt. eigenvalues --    0.04802   0.05540   0.11377   0.12030   0.16360
 Alpha virt. eigenvalues --    0.17105   0.21355   0.22308   0.26927   0.27798
 Alpha virt. eigenvalues --    0.28533   0.29293   0.31039   0.31703   0.32174

 Mulliken charges:
               1
     1  C   -0.169742
     2  C   -0.218811
     3  C   -0.171044
     4  C    0.156521
     5  C   -0.168863
     6  C   -0.217638
     7  H    0.227007
     8  H    0.223397
     9  H    0.274230
    10  H    0.278967
    11  H    0.229153
    12  N    0.489801
    13  O   -0.471357
    14  O   -0.458683
    15  C   -0.171423
    16  C   -0.220804
    17  C   -0.172759
    18  C    0.157254
    19  C   -0.172504
    20  C   -0.219153
    21  H    0.224829
    22  H    0.237841
    23  H    0.281209
    24  H    0.272305
    25  H    0.220651
    26  N    0.488613
    27  O   -0.462313
    28  O   -0.466685
 Sum of Mulliken charges =  -0.00000

 Dipole moment (field-independent basis, Debye):
    X=             -1.7124    Y=             -0.6826    Z=              0.3633  Tot=              1.8789
 Quadrupole moment (field-independent basis, Debye-Ang):
   XX=            -69.8573   YY=           -112.7296   ZZ=           -105.1556
   XY=            -26.2805   XZ=              3.8504   YZ=              2.9906

 Normal termination of Gaussian 16 at Thu May  6 06:39:56 2021.
