 Gaussian 16, Revision A.03,
 Gaussian 16:  EM64L-G16RevA.03 25-Dec-2016

 -------------
 #p 6-31g* mp2
 -------------

 ------------------------------------------------------
 Input file generated by CHIRIPA (05-May-2021 14:53:17)
 ------------------------------------------------------
 Symbolic Z-matrix:
 Charge =  0 Multiplicity = 1

                         Standard orientation:
 ---------------------------------------------------------------------
 Center     Atomic      Atomic             Coordinates (Angstroms)
 Number     Number       Type             X           Y           Z
 ---------------------------------------------------------------------
      1          6           0        3.964005    0.711721   -0.159489
      2          6           0        4.944152    1.579877    0.630197
      3          6           0        4.925193    3.043718    0.189058
      4          1           0        4.205895    0.776973   -1.229151
      5          1           0        2.949555    1.117604   -0.043106
      6          1           0        5.956259    1.171669    0.513483
      7          1           0        4.700019    1.512399    1.698121
      8          1           0        3.926906    3.473156    0.321748
      9          1           0        5.190283    3.130491   -0.869620
     10          1           0        5.633213    3.646255    0.766567
     11          6           0        3.971397   -0.754295    0.270010
     12          6           0        2.991251   -1.622451   -0.519675
     13          6           0        3.010209   -3.086292   -0.078536
     14          1           0        4.985847   -1.160179    0.153627
     15          1           0        3.729507   -0.819548    1.339672
     16          1           0        3.235383   -1.554973   -1.587600
     17          1           0        1.979144   -1.214244   -0.402962
     18          1           0        2.745120   -3.173065    0.980142
     19          1           0        4.008497   -3.515730   -0.211227
     20          1           0        2.302190   -3.688830   -0.656046
     21          6           0       -5.236191    1.339489    0.184106
     22          6           0       -4.154810    1.872657   -0.525025
     23          6           0       -2.966207    1.148602   -0.657359
     24          6           0       -2.893225   -0.111259   -0.065145
     25          6           0       -3.953199   -0.669599    0.647596
     26          6           0       -5.132118    0.072297    0.767125
     27          1           0       -6.155766    1.908883    0.281933
     28          1           0       -4.232795    2.856528   -0.978855
     29          1           0       -2.113655    1.537420   -1.200860
     30          1           0       -3.845532   -1.652980    1.088947
     31          1           0       -5.970321   -0.344278    1.318421
     32          7           0       -1.640030   -0.887228   -0.198463
     33          8           0       -1.601000   -1.994964    0.332607
     34          8           0       -0.720535   -0.373004   -0.831503
 ---------------------------------------------------------------------

 SCF Done:  E(RHF) =  -669.536519247     A.U. after   15 cycles
 E2 =    -0.2091194238D+01 EUMP2 =    -0.67162771348504D+03

 The electronic state is 1-A.
 Alpha  occ. eigenvalues --  -20.61068 -20.61049 -15.86072 -11.31362 -11.27917
 Alpha  occ. eigenvalues --  -11.27914 -11.27648 -11.26916 -11.26906 -11.20831
 Alpha  occ. eigenvalues --  -11.20489 -11.20337 -11.20120 -11.19781 -11.19530
 Alpha  occ. eigenvalues --   -1.60109  -1.39666  -1.19524  -1.08936  -1.07271
 Alpha  occ. eigenvalues --   -1.04914  -1.02342  -0.95782  -0.94851  -0.86316
 Alpha  occ. eigenvalues --   -0.85880  -0.82616  -0.78454  -0.77675  -0.76992
 Alpha  occ. eigenvalues --   -0.72285  -0.71418  -0.70632  -0.65179  -0.64916
 Alpha  occ. eigenvalues --   -0.63909  -0.62261  -0.59740  -0.58264  -0.56417
 Alpha  occ. eigenvalues --   -0.55419  -0.54161  -0.53248  -0.53005  -0.51562
 Alpha  occ. eigenvalues --   -0.51272  -0.49140  -0.49045  -0.48797  -0.46743
 Alpha  occ. eigenvalues --   -0.45481  -0.45105  -0.44573  -0.44299  -0.42606
 Alpha  occ. eigenvalues --   -0.37501  -0.36513
 Alpha virt. eigenvalues --    0.04844   0.11143   0.16347   0.21282   0.23932
 Alpha virt. eigenvalues --    0.25504   0.27206   0.27758   0.28159   0.28733
 Alpha virt. eigenvalues --    0.29100   0.30860   0.32369   0.32520   0.32849

 Mulliken charges:
               1
     1  C   -0.297771
     2  C   -0.298662
     3  C   -0.474685
     4  H    0.147489
     5  H    0.153039
     6  H    0.150089
     7  H    0.150152
     8  H    0.153193
     9  H    0.154032
    10  H    0.157254
    11  C   -0.297262
    12  C   -0.311795
    13  C   -0.473103
    14  H    0.143778
    15  H    0.146595
    16  H    0.145390
    17  H    0.183346
    18  H    0.153314
    19  H    0.146118
    20  H    0.163261
    21  C   -0.170445
    22  C   -0.218560
    23  C   -0.170821
    24  C    0.157724
    25  C   -0.170609
    26  C   -0.218606
    27  H    0.226258
    28  H    0.224120
    29  H    0.276025
    30  H    0.276028
    31  H    0.224062
    32  N    0.488914
    33  O   -0.458349
    34  O   -0.459514
 Sum of Mulliken charges =  -0.00000

 Dipole moment (field-independent basis, Debye):
    X=             -4.8772    Y=              2.7214    Z=              0.4400  Tot=              5.6023
 Quadrupole moment (field-independent basis, Debye-Ang):
   XX=            -69.9122   YY=            -94.5711   ZZ=            -93.7218
   XY=             -6.0542   XZ=             -2.9975   YZ=             -2.2676

 Normal termination of Gaussian 16 at Thu May  6 20:30:37 2021.
