 Gaussian 16, Revision A.03,
 Gaussian 16:  EM64L-G16RevA.03 25-Dec-2016

 -------------
 #p 6-31g* mp2
 -------------

 ------------------------------------------------------
 Input file generated by CHIRIPA (05-May-2021 14:57:23)
 ------------------------------------------------------
 Symbolic Z-matrix:
 Charge =  0 Multiplicity = 1

                         Standard orientation:
 ---------------------------------------------------------------------
 Center     Atomic      Atomic             Coordinates (Angstroms)
 Number     Number       Type             X           Y           Z
 ---------------------------------------------------------------------
      1          6           0        5.114127   -2.022649   -0.452694
      2          6           0        5.441107   -0.861340   -1.160484
      3          6           0        4.775581    0.340167   -0.899707
      4          6           0        3.783868    0.344409    0.079975
      5          6           0        3.435409   -0.795955    0.802081
      6          6           0        4.114085   -1.986314    0.524607
      7          1           0        5.636231   -2.951679   -0.661757
      8          1           0        6.217323   -0.886603   -1.920020
      9          1           0        5.008706    1.253929   -1.432726
     10          1           0        2.657104   -0.739625    1.553404
     11          1           0        3.858050   -2.886660    1.075850
     12          7           0        3.072345    1.610490    0.364887
     13          8           0        2.202473    1.587931    1.232902
     14          8           0        3.397999    2.601429   -0.285210
     15          6           0       -1.445784   -0.170070    0.546630
     16          6           0       -2.404384   -0.347002    1.549777
     17          6           0       -3.767607   -0.329829    1.240136
     18          6           0       -4.138510   -0.132425   -0.089056
     19          6           0       -3.207329    0.046776   -1.110858
     20          6           0       -1.849604    0.025909   -0.778150
     21          1           0       -0.388935   -0.184845    0.796127
     22          1           0       -2.093679   -0.499400    2.579477
     23          1           0       -4.530808   -0.464227    1.997023
     24          1           0       -3.547687    0.196603   -2.128270
     25          1           0       -1.107352    0.163587   -1.559273
     26          7           0       -5.578783   -0.112289   -0.429070
     27          8           0       -5.879686    0.063390   -1.607726
     28          8           0       -6.379493   -0.272568    0.489522
 ---------------------------------------------------------------------

 SCF Done:  E(RHF) =  -868.338854639     A.U. after   16 cycles
 E2 =    -0.2598958523D+01 EUMP2 =    -0.87093781316220D+03

 The electronic state is 1-A.
 Alpha  occ. eigenvalues --  -20.61875 -20.61816 -20.60397 -20.60392 -15.86873
 Alpha  occ. eigenvalues --  -15.85450 -11.32125 -11.30720 -11.28721 -11.28619
 Alpha  occ. eigenvalues --  -11.28329 -11.27651 -11.27599 -11.27301 -11.27295
 Alpha  occ. eigenvalues --  -11.26936 -11.26264 -11.26251  -1.60907  -1.59476
 Alpha  occ. eigenvalues --   -1.40468  -1.39032  -1.20270  -1.18884  -1.09676
 Alpha  occ. eigenvalues --   -1.08278  -1.05651  -1.04284  -0.96535  -0.95130
 Alpha  occ. eigenvalues --   -0.87052  -0.85678  -0.83369  -0.81975  -0.78449
 Alpha  occ. eigenvalues --   -0.77052  -0.73089  -0.72230  -0.71670  -0.71360
 Alpha  occ. eigenvalues --   -0.70798  -0.69941  -0.65916  -0.65637  -0.64533
 Alpha  occ. eigenvalues --   -0.64288  -0.63006  -0.61645  -0.56124  -0.54724
 Alpha  occ. eigenvalues --   -0.53986  -0.53730  -0.52605  -0.52376  -0.49860
 Alpha  occ. eigenvalues --   -0.49824  -0.48430  -0.48420  -0.45882  -0.44459
 Alpha  occ. eigenvalues --   -0.38225  -0.37251  -0.36821  -0.35896
 Alpha virt. eigenvalues --    0.04034   0.05499   0.10359   0.11769   0.15569
 Alpha virt. eigenvalues --    0.17025   0.20080   0.21866   0.25614   0.26985
 Alpha virt. eigenvalues --    0.27761   0.28719   0.30402   0.30939   0.32936

 Mulliken charges:
               1
     1  C   -0.170186
     2  C   -0.217962
     3  C   -0.170802
     4  C    0.157856
     5  C   -0.175047
     6  C   -0.217610
     7  H    0.228971
     8  H    0.226792
     9  H    0.277721
    10  H    0.270765
    11  H    0.225626
    12  N    0.488163
    13  O   -0.466978
    14  O   -0.454010
    15  C   -0.170585
    16  C   -0.219584
    17  C   -0.171147
    18  C    0.157676
    19  C   -0.171137
    20  C   -0.218941
    21  H    0.232649
    22  H    0.222261
    23  H    0.274033
    24  H    0.274121
    25  H    0.222527
    26  N    0.488222
    27  O   -0.461661
    28  O   -0.461734
 Sum of Mulliken charges =  -0.00000

 Dipole moment (field-independent basis, Debye):
    X=              8.0162    Y=             -4.5163    Z=              0.1174  Tot=              9.2016
 Quadrupole moment (field-independent basis, Debye-Ang):
   XX=           -126.5177   YY=           -107.6862   ZZ=            -98.6523
   XY=            -15.2298   XZ=            -13.0402   YZ=             -3.6133

 Normal termination of Gaussian 16 at Fri May  7 06:25:43 2021.
