 Gaussian 16, Revision A.03,
 Gaussian 16:  EM64L-G16RevA.03 25-Dec-2016

 -------------
 #p 6-31g* mp2
 -------------

 ------------------------------------------------------
 Input file generated by CHIRIPA (05-May-2021 14:53:12)
 ------------------------------------------------------
 Symbolic Z-matrix:
 Charge =  0 Multiplicity = 1

                         Standard orientation:
 ---------------------------------------------------------------------
 Center     Atomic      Atomic             Coordinates (Angstroms)
 Number     Number       Type             X           Y           Z
 ---------------------------------------------------------------------
      1          6           0        4.153654   -0.140127   -0.188519
      2          6           0        4.076621   -1.648620   -0.426221
      3          6           0        5.230524   -2.171889   -1.282078
      4          1           0        4.157486    0.377601   -1.157482
      5          1           0        5.109676    0.099096    0.297472
      6          1           0        3.120431   -1.885093   -0.910367
      7          1           0        4.072779   -2.162808    0.543424
      8          1           0        6.191837   -1.964781   -0.800844
      9          1           0        5.234078   -1.685488   -2.262895
     10          1           0        5.155744   -3.252392   -1.439498
     11          6           0        3.006941    0.397933    0.665453
     12          6           0        3.083973    1.906425    0.903155
     13          6           0        1.930070    2.429694    1.759011
     14          1           0        2.050918    0.158709    0.179461
     15          1           0        3.003109   -0.119796    1.634415
     16          1           0        3.087815    2.420613   -0.066491
     17          1           0        4.040163    2.142898    1.387300
     18          1           0        1.926517    1.943293    2.739828
     19          1           0        0.968758    2.222586    1.277777
     20          1           0        2.004850    3.510198    1.916431
     21          6           0       -1.837283    1.854365   -1.460022
     22          6           0       -0.990950    1.003968   -0.740947
     23          6           0       -1.511750   -0.082359   -0.031574
     24          6           0       -2.889899   -0.289714   -0.063163
     25          6           0       -3.759049    0.539713   -0.770212
     26          6           0       -3.216200    1.619937   -1.472338
     27          1           0       -1.424148    2.695878   -2.008265
     28          1           0        0.080332    1.183603   -0.729596
     29          1           0       -0.879427   -0.756453    0.533389
     30          1           0       -4.822767    0.335099   -0.762700
     31          1           0       -3.875870    2.278716   -2.029913
     32          7           0       -3.452918   -1.436529    0.683981
     33          8           0       -4.670608   -1.597642    0.640256
     34          8           0       -2.665862   -2.152574    1.299172
 ---------------------------------------------------------------------

 SCF Done:  E(RHF) =  -669.534914111     A.U. after   15 cycles
 E2 =    -0.2092481817D+01 EUMP2 =    -0.67162739592799D+03

 The electronic state is 1-A.
 Alpha  occ. eigenvalues --  -20.60753 -20.60747 -15.85807 -11.31184 -11.27767
 Alpha  occ. eigenvalues --  -11.27755 -11.27509 -11.26774 -11.26737 -11.22418
 Alpha  occ. eigenvalues --  -11.22275 -11.22076 -11.22001 -11.21792 -11.21429
 Alpha  occ. eigenvalues --   -1.59828  -1.39381  -1.19365  -1.09149  -1.08755
 Alpha  occ. eigenvalues --   -1.04777  -1.04160  -0.96612  -0.95587  -0.87622
 Alpha  occ. eigenvalues --   -0.86171  -0.82432  -0.80231  -0.78960  -0.77461
 Alpha  occ. eigenvalues --   -0.72025  -0.71151  -0.70469  -0.65913  -0.65014
 Alpha  occ. eigenvalues --   -0.64733  -0.62220  -0.61445  -0.59973  -0.58216
 Alpha  occ. eigenvalues --   -0.55934  -0.55269  -0.53268  -0.53166  -0.52967
 Alpha  occ. eigenvalues --   -0.52859  -0.50566  -0.48795  -0.48778  -0.48514
 Alpha  occ. eigenvalues --   -0.47263  -0.46462  -0.46396  -0.44784  -0.44434
 Alpha  occ. eigenvalues --   -0.37340  -0.36356
 Alpha virt. eigenvalues --    0.05062   0.11201   0.16451   0.19103   0.22864
 Alpha virt. eigenvalues --    0.23806   0.25050   0.26317   0.27410   0.28259
 Alpha virt. eigenvalues --    0.29603   0.30366   0.31101   0.31426   0.31774

 Mulliken charges:
               1
     1  C   -0.298099
     2  C   -0.300495
     3  C   -0.476190
     4  H    0.148463
     5  H    0.152852
     6  H    0.151372
     7  H    0.155106
     8  H    0.156188
     9  H    0.154851
    10  H    0.163112
    11  C   -0.302752
    12  C   -0.301770
    13  C   -0.480638
    14  H    0.139560
    15  H    0.156256
    16  H    0.148198
    17  H    0.157244
    18  H    0.160693
    19  H    0.151428
    20  H    0.162986
    21  C   -0.172085
    22  C   -0.222903
    23  C   -0.173501
    24  C    0.158673
    25  C   -0.170441
    26  C   -0.218635
    27  H    0.226125
    28  H    0.231004
    29  H    0.276722
    30  H    0.275741
    31  H    0.223487
    32  N    0.488181
    33  O   -0.460608
    34  O   -0.460124
 Sum of Mulliken charges =  -0.00000

 Dipole moment (field-independent basis, Debye):
    X=              2.1355    Y=              3.9972    Z=             -2.5670  Tot=              5.2084
 Quadrupole moment (field-independent basis, Debye-Ang):
   XX=           -101.5079   YY=            -97.5661   ZZ=            -94.1398
   XY=            -13.5658   XZ=             10.3743   YZ=             -0.3807

 Normal termination of Gaussian 16 at Thu May  6 15:20:59 2021.
