 Gaussian 16, Revision A.03,
 Gaussian 16:  EM64L-G16RevA.03 25-Dec-2016

 -------------
 #p 6-31g* mp2
 -------------

 ------------------------------------------------------
 Input file generated by CHIRIPA (05-May-2021 14:53:17)
 ------------------------------------------------------
 Symbolic Z-matrix:
 Charge =  0 Multiplicity = 1

                         Standard orientation:
 ---------------------------------------------------------------------
 Center     Atomic      Atomic             Coordinates (Angstroms)
 Number     Number       Type             X           Y           Z
 ---------------------------------------------------------------------
      1          6           0       -3.450344    0.894166   -0.479864
      2          6           0       -2.231389    0.892935   -1.402974
      3          6           0       -1.595105    2.276085   -1.543803
      4          1           0       -4.194404    1.603988   -0.866481
      5          1           0       -3.151035    1.263684    0.510724
      6          1           0       -2.532610    0.522222   -2.391131
      7          1           0       -1.490224    0.182892   -1.014219
      8          1           0       -1.267130    2.650352   -0.568633
      9          1           0       -2.315439    2.991610   -1.953367
     10          1           0       -0.725535    2.252229   -2.207987
     11          6           0       -4.097416   -0.481431   -0.329007
     12          6           0       -5.316371   -0.480200    0.594103
     13          6           0       -5.952655   -1.863350    0.734932
     14          1           0       -4.396725   -0.850949   -1.319595
     15          1           0       -3.353356   -1.191253    0.057611
     16          1           0       -6.057536    0.229843    0.205349
     17          1           0       -5.015149   -0.109487    1.582260
     18          1           0       -5.232320   -2.578875    1.144497
     19          1           0       -6.280630   -2.237617   -0.240238
     20          1           0       -6.822224   -1.839494    1.399116
     21          6           0        1.047252    0.890877    1.598484
     22          6           0        2.326070    1.454811    1.654375
     23          6           0        3.386882    0.880337    0.947830
     24          6           0        3.132134   -0.262938    0.191976
     25          6           0        1.869228   -0.848279    0.116247
     26          6           0        0.823307   -0.256844    0.830951
     27          1           0        0.228971    1.343729    2.150515
     28          1           0        2.502913    2.346125    2.249633
     29          1           0        4.386794    1.296198    0.973415
     30          1           0        1.723764   -1.737007   -0.485766
     31          1           0       -0.168803   -0.696974    0.785693
     32          7           0        4.247286   -0.880085   -0.560331
     33          8           0        3.996831   -1.887124   -1.218951
     34          8           0        5.350683   -0.345080   -0.477122
 ---------------------------------------------------------------------

 SCF Done:  E(RHF) =  -669.535177282     A.U. after   15 cycles
 E2 =    -0.2092294565D+01 EUMP2 =    -0.67162747184640D+03

 The electronic state is 1-A.
 Alpha  occ. eigenvalues --  -20.60789 -20.60784 -15.85843 -11.31229 -11.27800
 Alpha  occ. eigenvalues --  -11.27795 -11.27558 -11.26821 -11.26811 -11.22300
 Alpha  occ. eigenvalues --  -11.22257 -11.22186 -11.22127 -11.21660 -11.21614
 Alpha  occ. eigenvalues --   -1.59864  -1.39417  -1.19406  -1.09169  -1.08797
 Alpha  occ. eigenvalues --   -1.04817  -1.04181  -0.96625  -0.95628  -0.87638
 Alpha  occ. eigenvalues --   -0.86213  -0.82465  -0.80253  -0.78991  -0.77503
 Alpha  occ. eigenvalues --   -0.72062  -0.71187  -0.70514  -0.65893  -0.65059
 Alpha  occ. eigenvalues --   -0.64786  -0.62215  -0.61528  -0.59985  -0.58233
 Alpha  occ. eigenvalues --   -0.55934  -0.55319  -0.53294  -0.53118  -0.53042
 Alpha  occ. eigenvalues --   -0.52913  -0.50571  -0.48829  -0.48815  -0.48551
 Alpha  occ. eigenvalues --   -0.47292  -0.46509  -0.46462  -0.44818  -0.44456
 Alpha  occ. eigenvalues --   -0.37371  -0.36386
 Alpha virt. eigenvalues --    0.05013   0.11145   0.16405   0.19044   0.22851
 Alpha virt. eigenvalues --    0.23853   0.24710   0.25804   0.27255   0.28403
 Alpha virt. eigenvalues --    0.28972   0.30811   0.31175   0.31558   0.31757

 Mulliken charges:
               1
     1  C   -0.298400
     2  C   -0.303225
     3  C   -0.473865
     4  H    0.153701
     5  H    0.142539
     6  H    0.156107
     7  H    0.146888
     8  H    0.149831
     9  H    0.156884
    10  H    0.165292
    11  C   -0.298024
    12  C   -0.299747
    13  C   -0.476021
    14  H    0.153543
    15  H    0.142865
    16  H    0.154309
    17  H    0.150161
    18  H    0.154642
    19  H    0.157105
    20  H    0.162153
    21  C   -0.171616
    22  C   -0.218539
    23  C   -0.170572
    24  C    0.158697
    25  C   -0.172306
    26  C   -0.216517
    27  H    0.225675
    28  H    0.223744
    29  H    0.275854
    30  H    0.276050
    31  H    0.225219
    32  N    0.488082
    33  O   -0.460209
    34  O   -0.460300
 Sum of Mulliken charges =  -0.00000

 Dipole moment (field-independent basis, Debye):
    X=             -3.9995    Y=              2.2034    Z=              2.5757  Tot=              5.2427
 Quadrupole moment (field-independent basis, Debye-Ang):
   XX=           -117.1423   YY=            -94.5809   ZZ=            -93.0840
   XY=              9.8470   XZ=              9.6673   YZ=              1.1038

 Normal termination of Gaussian 16 at Thu May  6 12:16:05 2021.
