 Gaussian 16, Revision A.03,
 Gaussian 16:  EM64L-G16RevA.03 25-Dec-2016

 -------------
 #p 6-31g* mp2
 -------------

 ------------------------------------------------------
 Input file generated by CHIRIPA (05-May-2021 14:53:15)
 ------------------------------------------------------
 Symbolic Z-matrix:
 Charge =  0 Multiplicity = 1

                         Standard orientation:
 ---------------------------------------------------------------------
 Center     Atomic      Atomic             Coordinates (Angstroms)
 Number     Number       Type             X           Y           Z
 ---------------------------------------------------------------------
      1          6           0       -4.054312    0.536860    0.345321
      2          6           0       -3.766289    2.008313    0.045565
      3          6           0       -4.365765    2.952356    1.088257
      4          1           0       -5.141247    0.385715    0.397014
      5          1           0       -3.656473    0.287567    1.338786
      6          1           0       -4.163333    2.254398   -0.947619
      7          1           0       -2.679917    2.155934   -0.005610
      8          1           0       -3.961346    2.735288    2.082203
      9          1           0       -5.453191    2.834312    1.134842
     10          1           0       -4.147847    3.999129    0.854509
     11          6           0       -3.461473   -0.419247   -0.688182
     12          6           0       -3.749496   -1.890700   -0.388427
     13          6           0       -3.150021   -2.834743   -1.431119
     14          1           0       -3.859312   -0.169954   -1.681647
     15          1           0       -2.374538   -0.268102   -0.739875
     16          1           0       -4.835868   -2.038321   -0.337252
     17          1           0       -3.352452   -2.136785    0.604757
     18          1           0       -2.062594   -2.716699   -1.477703
     19          1           0       -3.554439   -2.617675   -2.425065
     20          1           0       -3.367939   -3.881515   -1.197370
     21          6           0        1.334729   -1.524129    1.405658
     22          6           0        2.710827   -1.620824    1.637009
     23          6           0        3.607221   -0.806805    0.938153
     24          6           0        3.090644    0.096963    0.010984
     25          6           0        1.724984    0.216843   -0.241781
     26          6           0        0.847059   -0.607220    0.468653
     27          1           0        0.645562   -2.160378    1.953043
     28          1           0        3.092398   -2.332004    2.364109
     29          1           0        4.677298   -0.860894    1.097613
     30          1           0        1.374534    0.935303   -0.972820
     31          1           0       -0.221140   -0.529948    0.286923
     32          7           0        4.029841    0.964044   -0.734992
     33          8           0        3.549477    1.752227   -1.546569
     34          8           0        5.228561    0.839062   -0.493986
 ---------------------------------------------------------------------

 SCF Done:  E(RHF) =  -669.535463210     A.U. after   15 cycles
 E2 =    -0.2091359485D+01 EUMP2 =    -0.67162682269483D+03

 The electronic state is 1-A.
 Alpha  occ. eigenvalues --  -20.60760 -20.60755 -15.85814 -11.31187 -11.27761
 Alpha  occ. eigenvalues --  -11.27756 -11.27507 -11.26776 -11.26757 -11.22504
 Alpha  occ. eigenvalues --  -11.22369 -11.22259 -11.22160 -11.21856 -11.21569
 Alpha  occ. eigenvalues --   -1.59836  -1.39389  -1.19363  -1.09269  -1.08756
 Alpha  occ. eigenvalues --   -1.04769  -1.04273  -0.96717  -0.95589  -0.87726
 Alpha  occ. eigenvalues --   -0.86168  -0.82424  -0.80340  -0.79081  -0.77468
 Alpha  occ. eigenvalues --   -0.72032  -0.71159  -0.70472  -0.65995  -0.65015
 Alpha  occ. eigenvalues --   -0.64733  -0.62133  -0.61654  -0.60082  -0.58321
 Alpha  occ. eigenvalues --   -0.56024  -0.55267  -0.53373  -0.53146  -0.53095
 Alpha  occ. eigenvalues --   -0.52856  -0.50658  -0.48798  -0.48787  -0.48640
 Alpha  occ. eigenvalues --   -0.47394  -0.46599  -0.46540  -0.44793  -0.44553
 Alpha  occ. eigenvalues --   -0.37345  -0.36371
 Alpha virt. eigenvalues --    0.05069   0.11253   0.16545   0.18383   0.22932
 Alpha virt. eigenvalues --    0.23635   0.24885   0.26256   0.27232   0.28343
 Alpha virt. eigenvalues --    0.29338   0.30579   0.31061   0.31346   0.31769

 Mulliken charges:
               1
     1  C   -0.298888
     2  C   -0.299502
     3  C   -0.476179
     4  H    0.153462
     5  H    0.147089
     6  H    0.154938
     7  H    0.148759
     8  H    0.155251
     9  H    0.156546
    10  H    0.163542
    11  C   -0.303180
    12  C   -0.300263
    13  C   -0.476441
    14  H    0.155868
    15  H    0.141753
    16  H    0.156613
    17  H    0.146767
    18  H    0.152582
    19  H    0.159269
    20  H    0.162597
    21  C   -0.172702
    22  C   -0.218455
    23  C   -0.171018
    24  C    0.158721
    25  C   -0.173433
    26  C   -0.227241
    27  H    0.226174
    28  H    0.223432
    29  H    0.275664
    30  H    0.275713
    31  H    0.235255
    32  N    0.488126
    33  O   -0.460302
    34  O   -0.460519
 Sum of Mulliken charges =  -0.00000

 Dipole moment (field-independent basis, Debye):
    X=             -3.5145    Y=             -3.0318    Z=              2.5884  Tot=              5.3144
 Quadrupole moment (field-independent basis, Debye-Ang):
   XX=           -110.8567   YY=            -95.4420   ZZ=            -94.1936
   XY=            -11.5374   XZ=             11.2616   YZ=             -1.4945

 Normal termination of Gaussian 16 at Wed May  5 23:29:55 2021.
