 Gaussian 16, Revision A.03,
 Gaussian 16:  EM64L-G16RevA.03 25-Dec-2016

 -------------
 #p 6-31g* mp2
 -------------

 ------------------------------------------------------
 Input file generated by CHIRIPA (05-May-2021 14:55:24)
 ------------------------------------------------------
 Symbolic Z-matrix:
 Charge =  0 Multiplicity = 1

                         Standard orientation:
 ---------------------------------------------------------------------
 Center     Atomic      Atomic             Coordinates (Angstroms)
 Number     Number       Type             X           Y           Z
 ---------------------------------------------------------------------
      1          6           0        4.242798   -1.893514    0.018486
      2          6           0        4.855421   -0.756623    0.555787
      3          6           0        4.220488    0.487481    0.495666
      4          6           0        2.967761    0.558755   -0.111693
      5          6           0        2.331586   -0.555781   -0.656103
      6          6           0        2.985053   -1.789647   -0.584681
      7          1           0        4.743229   -2.855987    0.069579
      8          1           0        5.832166   -0.834307    1.024807
      9          1           0        4.671992    1.383663    0.903611
     10          1           0        1.357533   -0.446949   -1.117400
     11          1           0        2.506896   -2.670891   -1.002796
     12          7           0        2.285775    1.870413   -0.181323
     13          8           0        1.182446    1.906703   -0.721680
     14          8           0        2.867476    2.837364    0.305777
     15          6           0       -4.628341   -0.383265   -0.203606
     16          6           0       -5.545790    0.639908    0.466757
     17          6           0       -6.913989    0.738949   -0.208533
     18          1           0       -4.498485   -0.112870   -1.260474
     19          1           0       -5.116835   -1.367440   -0.190510
     20          1           0       -5.055117    1.621582    0.453635
     21          1           0       -5.673323    0.367153    1.522199
     22          1           0       -7.427245   -0.227746   -0.182655
     23          1           0       -6.805526    1.033811   -1.257290
     24          1           0       -7.553706    1.476077    0.286710
     25          6           0       -3.256870   -0.493733    0.460163
     26          6           0       -2.339421   -1.516908   -0.210201
     27          6           0       -0.971221   -1.615948    0.465089
     28          1           0       -2.768376    0.490440    0.447067
     29          1           0       -3.386725   -0.764128    1.517030
     30          1           0       -2.211887   -1.244152   -1.265642
     31          1           0       -2.830094   -2.498581   -0.197079
     32          1           0       -1.079684   -1.910809    1.513847
     33          1           0       -0.457965   -0.649253    0.439212
     34          1           0       -0.331504   -2.353076   -0.030153
 ---------------------------------------------------------------------

 SCF Done:  E(RHF) =  -669.535089710     A.U. after   15 cycles
 E2 =    -0.2092165519D+01 EUMP2 =    -0.67162725522894D+03

 The electronic state is 1-A.
 Alpha  occ. eigenvalues --  -20.60840 -20.60834 -15.85874 -11.31153 -11.27744
 Alpha  occ. eigenvalues --  -11.27687 -11.27482 -11.26736 -11.26718 -11.21627
 Alpha  occ. eigenvalues --  -11.21341 -11.21262 -11.21193 -11.21134 -11.20841
 Alpha  occ. eigenvalues --   -1.59903  -1.39460  -1.19340  -1.08751  -1.08273
 Alpha  occ. eigenvalues --   -1.04738  -1.03444  -0.95924  -0.95584  -0.86949
 Alpha  occ. eigenvalues --   -0.86132  -0.82430  -0.79519  -0.78064  -0.77479
 Alpha  occ. eigenvalues --   -0.72097  -0.71218  -0.70467  -0.64997  -0.64943
 Alpha  occ. eigenvalues --   -0.64711  -0.62155  -0.60792  -0.59295  -0.57511
 Alpha  occ. eigenvalues --   -0.55370  -0.55075  -0.53138  -0.52847  -0.52562
 Alpha  occ. eigenvalues --   -0.52303  -0.49802  -0.48858  -0.48845  -0.47824
 Alpha  occ. eigenvalues --   -0.46514  -0.45619  -0.45506  -0.44854  -0.43692
 Alpha  occ. eigenvalues --   -0.37323  -0.36287
 Alpha virt. eigenvalues --    0.05028   0.11263   0.16474   0.20613   0.23094
 Alpha virt. eigenvalues --    0.24181   0.26544   0.26749   0.27673   0.28027
 Alpha virt. eigenvalues --    0.28981   0.30009   0.31507   0.32053   0.32196

 Mulliken charges:
               1
     1  C   -0.170540
     2  C   -0.218933
     3  C   -0.170708
     4  C    0.156664
     5  C   -0.167331
     6  C   -0.220415
     7  H    0.225518
     8  H    0.223233
     9  H    0.275332
    10  H    0.279503
    11  H    0.223259
    12  N    0.488955
    13  O   -0.462899
    14  O   -0.459473
    15  C   -0.298420
    16  C   -0.300232
    17  C   -0.475733
    18  H    0.150759
    19  H    0.147429
    20  H    0.155487
    21  H    0.151144
    22  H    0.153823
    23  H    0.155631
    24  H    0.160335
    25  C   -0.300872
    26  C   -0.299107
    27  C   -0.484173
    28  H    0.159560
    29  H    0.148565
    30  H    0.151887
    31  H    0.150344
    32  H    0.157756
    33  H    0.166222
    34  H    0.147428
 Sum of Mulliken charges =  -0.00000

 Dipole moment (field-independent basis, Debye):
    X=              2.3924    Y=             -4.5024    Z=              0.2777  Tot=              5.1061
 Quadrupole moment (field-independent basis, Debye-Ang):
   XX=            -78.7068   YY=            -99.3325   ZZ=            -94.1750
   XY=            -10.4944   XZ=              1.9828   YZ=              1.4231

 Normal termination of Gaussian 16 at Wed May  5 20:45:35 2021.
