 Gaussian 16, Revision A.03,
 Gaussian 16:  EM64L-G16RevA.03 25-Dec-2016

 -------------
 #p 6-31g* mp2
 -------------

 ------------------------------------------------------
 Input file generated by CHIRIPA (05-May-2021 14:57:23)
 ------------------------------------------------------
 Symbolic Z-matrix:
 Charge =  0 Multiplicity = 1

                         Standard orientation:
 ---------------------------------------------------------------------
 Center     Atomic      Atomic             Coordinates (Angstroms)
 Number     Number       Type             X           Y           Z
 ---------------------------------------------------------------------
      1          6           0       -4.907305   -2.216732    0.253809
      2          6           0       -5.667409   -1.174398   -0.286840
      3          6           0       -5.101153    0.088323   -0.485429
      4          6           0       -3.765969    0.274433   -0.130553
      5          6           0       -2.982685   -0.744075    0.410183
      6          6           0       -3.569727   -1.998629    0.599985
      7          1           0       -5.355260   -3.194472    0.404665
      8          1           0       -6.706423   -1.340895   -0.556607
      9          1           0       -5.666682    0.912907   -0.902151
     10          1           0       -1.949403   -0.547704    0.669381
     11          1           0       -2.977018   -2.806271    1.020052
     12          7           0       -3.155497    1.606896   -0.336139
     13          8           0       -1.977123    1.745195   -0.015288
     14          8           0       -3.866942    2.487752   -0.814236
     15          6           0        1.832989    0.499632    1.483393
     16          6           0        3.108818    0.570562    2.052384
     17          6           0        4.242653    0.265572    1.293473
     18          6           0        4.063183   -0.108430   -0.037393
     19          6           0        2.805288   -0.188400   -0.632873
     20          6           0        1.685557    0.121045    0.144940
     21          1           0        0.957677    0.738287    2.080275
     22          1           0        3.226330    0.864282    3.091597
     23          1           0        5.242044    0.312277    1.708749
     24          1           0        2.719898   -0.484308   -1.671412
     25          1           0        0.695956    0.065100   -0.299590
     26          7           0        5.256058   -0.433668   -0.850823
     27          8           0        5.071138   -0.760536   -2.021122
     28          8           0        6.353366   -0.355563   -0.302689
 ---------------------------------------------------------------------

 SCF Done:  E(RHF) =  -868.338898089     A.U. after   16 cycles
 E2 =    -0.2599225622D+01 EUMP2 =    -0.87093812371119D+03

 The electronic state is 1-A.
 Alpha  occ. eigenvalues --  -20.61798 -20.61730 -20.60460 -20.60455 -15.86802
 Alpha  occ. eigenvalues --  -15.85510 -11.32041 -11.30797 -11.28669 -11.28525
 Alpha  occ. eigenvalues --  -11.28241 -11.27572 -11.27510 -11.27368 -11.27332
 Alpha  occ. eigenvalues --  -11.27035 -11.26362 -11.26270  -1.60821  -1.59537
 Alpha  occ. eigenvalues --   -1.40388  -1.39093  -1.20183  -1.18952  -1.09588
 Alpha  occ. eigenvalues --   -1.08352  -1.05570  -1.04341  -0.96455  -0.95204
 Alpha  occ. eigenvalues --   -0.86973  -0.85736  -0.83296  -0.82039  -0.78382
 Alpha  occ. eigenvalues --   -0.77104  -0.73026  -0.72131  -0.71729  -0.71287
 Alpha  occ. eigenvalues --   -0.70859  -0.70040  -0.65838  -0.65568  -0.64598
 Alpha  occ. eigenvalues --   -0.64326  -0.62933  -0.61681  -0.56043  -0.54814
 Alpha  occ. eigenvalues --   -0.53894  -0.53662  -0.52676  -0.52419  -0.49794
 Alpha  occ. eigenvalues --   -0.49745  -0.48490  -0.48479  -0.45813  -0.44516
 Alpha  occ. eigenvalues --   -0.38129  -0.37164  -0.36915  -0.35947
 Alpha virt. eigenvalues --    0.04135   0.05421   0.10470   0.11683   0.15686
 Alpha virt. eigenvalues --    0.16945   0.19203   0.21871   0.25295   0.27015
 Alpha virt. eigenvalues --    0.28320   0.28872   0.30764   0.31276   0.31909

 Mulliken charges:
               1
     1  C   -0.169977
     2  C   -0.217907
     3  C   -0.170012
     4  C    0.159260
     5  C   -0.173273
     6  C   -0.218403
     7  H    0.228837
     8  H    0.226647
     9  H    0.277774
    10  H    0.268077
    11  H    0.225740
    12  N    0.490129
    13  O   -0.471556
    14  O   -0.453490
    15  C   -0.171717
    16  C   -0.218918
    17  C   -0.171827
    18  C    0.158479
    19  C   -0.171897
    20  C   -0.222816
    21  H    0.228343
    22  H    0.222118
    23  H    0.274190
    24  H    0.274669
    25  H    0.232370
    26  N    0.488078
    27  O   -0.461310
    28  O   -0.461606
 Sum of Mulliken charges =  -0.00000

 Dipole moment (field-independent basis, Debye):
    X=             -6.8065    Y=             -3.5377    Z=              3.5463  Tot=              8.4511
 Quadrupole moment (field-independent basis, Debye-Ang):
   XX=           -116.7560   YY=           -107.9121   ZZ=           -102.4964
   XY=             21.7142   XZ=             14.0651   YZ=              0.5097

 Normal termination of Gaussian 16 at Thu May  6 03:23:18 2021.
