 Gaussian 16, Revision A.03,
 Gaussian 16:  EM64L-G16RevA.03 25-Dec-2016

 -------------
 #p 6-31g* mp2
 -------------

 ------------------------------------------------------
 Input file generated by CHIRIPA (05-May-2021 14:53:13)
 ------------------------------------------------------
 Symbolic Z-matrix:
 Charge =  0 Multiplicity = 1

                         Standard orientation:
 ---------------------------------------------------------------------
 Center     Atomic      Atomic             Coordinates (Angstroms)
 Number     Number       Type             X           Y           Z
 ---------------------------------------------------------------------
      1          6           0        3.406656    0.851482    0.043723
      2          6           0        2.449182    1.718158   -0.774875
      3          6           0        2.138785    3.054937   -0.100731
      4          1           0        2.970517    0.670938    1.035757
      5          1           0        4.341074    1.405445    0.209200
      6          1           0        1.517373    1.162189   -0.939939
      7          1           0        2.887564    1.896501   -1.765144
      8          1           0        3.056420    3.632811    0.049626
      9          1           0        1.678444    2.894327    0.879520
     10          1           0        1.452605    3.658516   -0.702985
     11          6           0        3.726560   -0.488147   -0.617173
     12          6           0        4.684033   -1.354823    0.201425
     13          6           0        4.994430   -2.691602   -0.472720
     14          1           0        2.792141   -1.042110   -0.782651
     15          1           0        4.162698   -0.307603   -1.609208
     16          1           0        4.245651   -1.533166    1.191693
     17          1           0        5.615842   -0.798855    0.366488
     18          1           0        5.454771   -2.530993   -1.452971
     19          1           0        4.076795   -3.269476   -0.623077
     20          1           0        5.680610   -3.295181    0.129534
     21          6           0       -1.162913    0.386496    2.081676
     22          6           0       -1.226968    1.209827    0.952719
     23          6           0       -2.122695    0.926647   -0.082669
     24          6           0       -2.943366   -0.193014    0.044411
     25          6           0       -2.903088   -1.032448    1.156624
     26          6           0       -1.999703   -0.730046    2.179852
     27          1           0       -0.464117    0.613943    2.881268
     28          1           0       -0.578312    2.077616    0.873768
     29          1           0       -2.193055    1.547163   -0.967783
     30          1           0       -3.562411   -1.890466    1.206805
     31          1           0       -1.952136   -1.371225    3.055450
     32          7           0       -3.895686   -0.502980   -1.045271
     33          8           0       -4.607965   -1.495344   -0.909234
     34          8           0       -3.911802    0.252304   -2.014769
 ---------------------------------------------------------------------

 SCF Done:  E(RHF) =  -669.535481040     A.U. after   15 cycles
 E2 =    -0.2091907282D+01 EUMP2 =    -0.67162738832132D+03

 The electronic state is 1-A.
 Alpha  occ. eigenvalues --  -20.60777 -20.60771 -15.85830 -11.31205 -11.27776
 Alpha  occ. eigenvalues --  -11.27765 -11.27517 -11.26797 -11.26734 -11.22327
 Alpha  occ. eigenvalues --  -11.22117 -11.22043 -11.22025 -11.21836 -11.21393
 Alpha  occ. eigenvalues --   -1.59852  -1.39405  -1.19378  -1.09024  -1.08769
 Alpha  occ. eigenvalues --   -1.04783  -1.04153  -0.96624  -0.95605  -0.87639
 Alpha  occ. eigenvalues --   -0.86175  -0.82434  -0.80214  -0.78799  -0.77482
 Alpha  occ. eigenvalues --   -0.72048  -0.71175  -0.70488  -0.65726  -0.65028
 Alpha  occ. eigenvalues --   -0.64767  -0.62243  -0.61425  -0.59998  -0.58208
 Alpha  occ. eigenvalues --   -0.55963  -0.55255  -0.53322  -0.53110  -0.53050
 Alpha  occ. eigenvalues --   -0.52812  -0.50545  -0.48806  -0.48802  -0.48521
 Alpha  occ. eigenvalues --   -0.47247  -0.46353  -0.46251  -0.44808  -0.44388
 Alpha  occ. eigenvalues --   -0.37359  -0.36368
 Alpha virt. eigenvalues --    0.05035   0.11212   0.16455   0.19748   0.22782
 Alpha virt. eigenvalues --    0.23895   0.25787   0.26515   0.26542   0.28249
 Alpha virt. eigenvalues --    0.29095   0.30723   0.31013   0.31266   0.31508

 Mulliken charges:
               1
     1  C   -0.296843
     2  C   -0.303638
     3  C   -0.480243
     4  H    0.144344
     5  H    0.151068
     6  H    0.154349
     7  H    0.156918
     8  H    0.162212
     9  H    0.144546
    10  H    0.160937
    11  C   -0.299408
    12  C   -0.299683
    13  C   -0.476133
    14  H    0.152203
    15  H    0.151835
    16  H    0.149987
    17  H    0.152393
    18  H    0.156597
    19  H    0.156344
    20  H    0.160925
    21  C   -0.173748
    22  C   -0.223194
    23  C   -0.173888
    24  C    0.158892
    25  C   -0.171168
    26  C   -0.218481
    27  H    0.225329
    28  H    0.234979
    29  H    0.276127
    30  H    0.275666
    31  H    0.223439
    32  N    0.488032
    33  O   -0.460448
    34  O   -0.460245
 Sum of Mulliken charges =  -0.00000

 Dipole moment (field-independent basis, Debye):
    X=              3.4822    Y=              1.0591    Z=              3.7540  Tot=              5.2287
 Quadrupole moment (field-independent basis, Debye-Ang):
   XX=           -113.7409   YY=            -93.0034   ZZ=            -93.5281
   XY=             -1.7068   XZ=            -12.6903   YZ=             -3.7400

 Normal termination of Gaussian 16 at Thu May  6 20:18:13 2021.
