 Gaussian 16, Revision A.03,
 Gaussian 16:  EM64L-G16RevA.03 25-Dec-2016

 -------------
 #p 6-31g* mp2
 -------------

 ------------------------------------------------------
 Input file generated by CHIRIPA (05-May-2021 14:53:14)
 ------------------------------------------------------
 Symbolic Z-matrix:
 Charge =  0 Multiplicity = 1

                         Standard orientation:
 ---------------------------------------------------------------------
 Center     Atomic      Atomic             Coordinates (Angstroms)
 Number     Number       Type             X           Y           Z
 ---------------------------------------------------------------------
      1          6           0        2.735999   -0.883074    0.234113
      2          6           0        2.273045   -2.184976   -0.420648
      3          6           0        1.013946   -2.758733    0.229941
      4          1           0        2.922688   -1.063163    1.301662
      5          1           0        1.924481   -0.144294    0.178993
      6          1           0        3.085686   -2.920635   -0.365540
      7          1           0        2.087620   -2.001812   -1.486802
      8          1           0        0.186094   -2.045527    0.162125
      9          1           0        1.189830   -2.969570    1.289759
     10          1           0        0.700582   -3.689231   -0.253625
     11          6           0        3.993650   -0.297218   -0.405273
     12          6           0        4.456603    1.004683    0.249488
     13          6           0        5.715702    1.578441   -0.401101
     14          1           0        4.805167   -1.035998   -0.350153
     15          1           0        3.806960   -0.117129   -1.472822
     16          1           0        4.642028    0.821520    1.315642
     17          1           0        3.643962    1.740343    0.194380
     18          1           0        5.539818    1.789278   -1.460919
     19          1           0        6.543554    0.865235   -0.333285
     20          1           0        6.029066    2.508939    0.082465
     21          6           0       -1.717333    2.805840    0.259669
     22          6           0       -1.080634    1.750715    0.921368
     23          6           0       -1.576832    0.447492    0.821622
     24          6           0       -2.716883    0.234366    0.048219
     25          6           0       -3.373595    1.264692   -0.622936
     26          6           0       -2.859768    2.559895   -0.509016
     27          1           0       -1.325027    3.815100    0.342659
     28          1           0       -0.193237    1.938767    1.519036
     29          1           0       -1.103645   -0.387811    1.323397
     30          1           0       -4.256428    1.046128   -1.211369
     31          1           0       -3.356304    3.377383   -1.023999
     32          7           0       -3.251517   -1.141052   -0.064880
     33          8           0       -4.257397   -1.302558   -0.752455
     34          8           0       -2.654561   -2.031555    0.536190
 ---------------------------------------------------------------------

 SCF Done:  E(RHF) =  -669.535485452     A.U. after   15 cycles
 E2 =    -0.2092634869D+01 EUMP2 =    -0.67162812032050D+03

 The electronic state is 1-A.
 Alpha  occ. eigenvalues --  -20.60855 -20.60845 -15.85884 -11.31251 -11.27822
 Alpha  occ. eigenvalues --  -11.27794 -11.27559 -11.26838 -11.26825 -11.21969
 Alpha  occ. eigenvalues --  -11.21643 -11.21585 -11.21478 -11.21380 -11.20636
 Alpha  occ. eigenvalues --   -1.59917  -1.39472  -1.19427  -1.08820  -1.08608
 Alpha  occ. eigenvalues --   -1.04827  -1.03613  -0.96042  -0.95651  -0.87052
 Alpha  occ. eigenvalues --   -0.86223  -0.82483  -0.79695  -0.78452  -0.77517
 Alpha  occ. eigenvalues --   -0.72106  -0.71236  -0.70535  -0.65247  -0.65078
 Alpha  occ. eigenvalues --   -0.64831  -0.62205  -0.60987  -0.59435  -0.57659
 Alpha  occ. eigenvalues --   -0.55395  -0.55265  -0.53157  -0.52961  -0.52679
 Alpha  occ. eigenvalues --   -0.52422  -0.50009  -0.48871  -0.48863  -0.47973
 Alpha  occ. eigenvalues --   -0.46742  -0.45967  -0.45900  -0.44794  -0.43869
 Alpha  occ. eigenvalues --   -0.37405  -0.36411
 Alpha virt. eigenvalues --    0.04940   0.11126   0.16370   0.20731   0.22809
 Alpha virt. eigenvalues --    0.24134   0.25564   0.26831   0.27068   0.28261
 Alpha virt. eigenvalues --    0.29442   0.30722   0.31429   0.31652   0.32172

 Mulliken charges:
               1
     1  C   -0.299944
     2  C   -0.300599
     3  C   -0.480103
     4  H    0.148070
     5  H    0.142279
     6  H    0.151910
     7  H    0.152417
     8  H    0.161915
     9  H    0.151809
    10  H    0.167520
    11  C   -0.297711
    12  C   -0.298933
    13  C   -0.475668
    14  H    0.151613
    15  H    0.150772
    16  H    0.151539
    17  H    0.146255
    18  H    0.155749
    19  H    0.156941
    20  H    0.159451
    21  C   -0.170888
    22  C   -0.220671
    23  C   -0.172947
    24  C    0.157799
    25  C   -0.170809
    26  C   -0.218383
    27  H    0.225983
    28  H    0.225530
    29  H    0.280260
    30  H    0.275801
    31  H    0.223748
    32  N    0.488274
    33  O   -0.459664
    34  O   -0.459317
 Sum of Mulliken charges =  -0.00000

 Dipole moment (field-independent basis, Debye):
    X=              1.7850    Y=              4.7577    Z=              0.3527  Tot=              5.0937
 Quadrupole moment (field-independent basis, Debye-Ang):
   XX=           -103.0466   YY=            -92.0741   ZZ=            -93.2844
   XY=            -15.0978   XZ=              2.1219   YZ=             -0.9186

 Normal termination of Gaussian 16 at Wed May  5 21:52:50 2021.
