 Gaussian 16, Revision A.03,
 Gaussian 16:  EM64L-G16RevA.03 25-Dec-2016

 -------------
 #p 6-31g* mp2
 -------------

 ------------------------------------------------------
 Input file generated by CHIRIPA (05-May-2021 14:57:25)
 ------------------------------------------------------
 Symbolic Z-matrix:
 Charge =  0 Multiplicity = 1

                         Standard orientation:
 ---------------------------------------------------------------------
 Center     Atomic      Atomic             Coordinates (Angstroms)
 Number     Number       Type             X           Y           Z
 ---------------------------------------------------------------------
      1          6           0       -5.512545    1.514946   -0.626201
      2          6           0       -5.389430    1.161754    0.721619
      3          6           0       -4.423017    0.236759    1.127794
      4          6           0       -3.592655   -0.318023    0.155165
      5          6           0       -3.690667    0.013539   -1.195297
      6          6           0       -4.664266    0.940724   -1.578678
      7          1           0       -6.266069    2.234355   -0.932874
      8          1           0       -6.046846    1.606099    1.463513
      9          1           0       -4.305955   -0.054612    2.164528
     10          1           0       -3.020900   -0.446296   -1.911804
     11          1           0       -4.757599    1.213138   -2.626116
     12          7           0       -2.565753   -1.298433    0.573099
     13          8           0       -1.846379   -1.772937   -0.303248
     14          8           0       -2.499685   -1.573810    1.769109
     15          6           0        3.274763   -2.273435   -0.559920
     16          6           0        2.255421   -1.321508   -0.666220
     17          6           0        2.513897    0.027601   -0.406141
     18          6           0        3.808995    0.391351   -0.040496
     19          6           0        4.845763   -0.533473    0.073979
     20          6           0        4.564407   -1.877078   -0.190811
     21          1           0        3.065086   -3.319318   -0.763786
     22          1           0        1.252924   -1.626444   -0.952680
     23          1           0        1.743438    0.785378   -0.480877
     24          1           0        5.835166   -0.199141    0.361590
     25          1           0        5.357998   -2.614173   -0.107465
     26          7           0        4.094743    1.816679    0.237332
     27          8           0        5.244114    2.111512    0.557732
     28          8           0        3.163930    2.612030    0.129432
 ---------------------------------------------------------------------

 SCF Done:  E(RHF) =  -868.340041834     A.U. after   16 cycles
 E2 =    -0.2598217638D+01 EUMP2 =    -0.87093825947195D+03

 The electronic state is 1-A.
 Alpha  occ. eigenvalues --  -20.61550 -20.61479 -20.60205 -20.60200 -15.86548
 Alpha  occ. eigenvalues --  -15.85248 -11.31654 -11.30424 -11.28214 -11.28168
 Alpha  occ. eigenvalues --  -11.27873 -11.27150 -11.27125 -11.26979 -11.26895
 Alpha  occ. eigenvalues --  -11.26598 -11.25980 -11.25728  -1.60575  -1.59283
 Alpha  occ. eigenvalues --   -1.40139  -1.38842  -1.19798  -1.18549  -1.09239
 Alpha  occ. eigenvalues --   -1.07974  -1.05163  -1.03906  -0.96119  -0.94853
 Alpha  occ. eigenvalues --   -0.86574  -0.85308  -0.82964  -0.81680  -0.78042
 Alpha  occ. eigenvalues --   -0.76759  -0.72781  -0.71878  -0.71474  -0.70903
 Alpha  occ. eigenvalues --   -0.70601  -0.69660  -0.65457  -0.65162  -0.64191
 Alpha  occ. eigenvalues --   -0.63865  -0.62517  -0.61245  -0.55667  -0.54406
 Alpha  occ. eigenvalues --   -0.53502  -0.53253  -0.52265  -0.51966  -0.49545
 Alpha  occ. eigenvalues --   -0.49497  -0.48240  -0.48208  -0.45597  -0.44291
 Alpha  occ. eigenvalues --   -0.37756  -0.36752  -0.36517  -0.35503
 Alpha virt. eigenvalues --    0.04454   0.05738   0.10905   0.12150   0.15985
 Alpha virt. eigenvalues --    0.17301   0.21046   0.22387   0.26984   0.27722
 Alpha virt. eigenvalues --    0.28479   0.29126   0.30644   0.31792   0.32335

 Mulliken charges:
               1
     1  C   -0.169571
     2  C   -0.218160
     3  C   -0.169860
     4  C    0.157814
     5  C   -0.170987
     6  C   -0.217963
     7  H    0.227901
     8  H    0.225681
     9  H    0.276841
    10  H    0.272792
    11  H    0.225045
    12  N    0.490506
    13  O   -0.472363
    14  O   -0.455075
    15  C   -0.171778
    16  C   -0.222608
    17  C   -0.173084
    18  C    0.158347
    19  C   -0.173014
    20  C   -0.218431
    21  H    0.226410
    22  H    0.243628
    23  H    0.272270
    24  H    0.272595
    25  H    0.220653
    26  N    0.488275
    27  O   -0.462647
    28  O   -0.463218
 Sum of Mulliken charges =  -0.00000

 Dipole moment (field-independent basis, Debye):
    X=             -5.0860    Y=             -1.6142    Z=             -2.4115  Tot=              5.8556
 Quadrupole moment (field-independent basis, Debye-Ang):
   XX=            -82.1852   YY=           -112.0219   ZZ=           -101.2007
   XY=            -33.2329   XZ=              0.3451   YZ=              0.9828

 Normal termination of Gaussian 16 at Thu May  6 21:19:29 2021.
