 Gaussian 16, Revision A.03,
 Gaussian 16:  EM64L-G16RevA.03 25-Dec-2016

 -------------
 #p 6-31g* mp2
 -------------

 ------------------------------------------------------
 Input file generated by CHIRIPA (05-May-2021 14:57:21)
 ------------------------------------------------------
 Symbolic Z-matrix:
 Charge =  0 Multiplicity = 1

                         Standard orientation:
 ---------------------------------------------------------------------
 Center     Atomic      Atomic             Coordinates (Angstroms)
 Number     Number       Type             X           Y           Z
 ---------------------------------------------------------------------
      1          6           0       -2.046500    2.330541    1.107797
      2          6           0       -2.626467    2.430958   -0.161090
      3          6           0       -3.101139    1.291220   -0.817009
      4          6           0       -2.979251    0.061478   -0.171898
      5          6           0       -2.406325   -0.071044    1.092019
      6          6           0       -1.938471    1.082062    1.729207
      7          1           0       -1.680412    3.221109    1.610055
      8          1           0       -2.711683    3.399235   -0.646088
      9          1           0       -3.554462    1.340306   -1.799611
     10          1           0       -2.335272   -1.050060    1.550163
     11          1           0       -1.488515    1.001073    2.714613
     12          7           0       -3.478156   -1.152188   -0.856375
     13          8           0       -3.359043   -2.223949   -0.266649
     14          8           0       -3.978864   -1.008716   -1.969633
     15          6           0        4.415780    1.391099   -1.093390
     16          6           0        3.288244    1.842480   -0.399533
     17          6           0        2.439726    0.935812    0.242744
     18          6           0        2.750198   -0.421273    0.170504
     19          6           0        3.866072   -0.901974   -0.512899
     20          6           0        4.700594    0.022726   -1.147763
     21          1           0        5.069494    2.102424   -1.589447
     22          1           0        3.064584    2.904597   -0.355636
     23          1           0        1.560191    1.257920    0.786878
     24          1           0        4.063001   -1.966846   -0.539051
     25          1           0        5.575559   -0.330687   -1.685890
     26          7           0        1.859319   -1.390665    0.846531
     27          8           0        2.154816   -2.581109    0.768022
     28          8           0        0.882418   -0.941677    1.442108
 ---------------------------------------------------------------------

 SCF Done:  E(RHF) =  -868.338424028     A.U. after   16 cycles
 E2 =    -0.2600692624D+01 EUMP2 =    -0.87093911665178D+03

 The electronic state is 1-A.
 Alpha  occ. eigenvalues --  -20.61171 -20.61121 -20.60120 -20.60081 -15.86190
 Alpha  occ. eigenvalues --  -15.85153 -11.31484 -11.30503 -11.28072 -11.28024
 Alpha  occ. eigenvalues --  -11.27787 -11.27175 -11.27080 -11.27025 -11.26973
 Alpha  occ. eigenvalues --  -11.26947 -11.26251 -11.26046  -1.60207  -1.59179
 Alpha  occ. eigenvalues --   -1.39769  -1.38729  -1.19653  -1.18715  -1.09062
 Alpha  occ. eigenvalues --   -1.08149  -1.05051  -1.04084  -0.95913  -0.94963
 Alpha  occ. eigenvalues --   -0.86452  -0.85514  -0.82765  -0.81765  -0.77813
 Alpha  occ. eigenvalues --   -0.76784  -0.72444  -0.71519  -0.71374  -0.70765
 Alpha  occ. eigenvalues --   -0.70500  -0.69869  -0.65318  -0.65062  -0.64369
 Alpha  occ. eigenvalues --   -0.64107  -0.62404  -0.61405  -0.55556  -0.54702
 Alpha  occ. eigenvalues --   -0.53378  -0.53158  -0.52447  -0.52185  -0.49185
 Alpha  occ. eigenvalues --   -0.49148  -0.48147  -0.48115  -0.45192  -0.44133
 Alpha  occ. eigenvalues --   -0.37630  -0.36801  -0.36644  -0.35603
 Alpha virt. eigenvalues --    0.04694   0.05749   0.11007   0.11904   0.16220
 Alpha virt. eigenvalues --    0.17178   0.21015   0.22012   0.26883   0.27563
 Alpha virt. eigenvalues --    0.28395   0.28869   0.30648   0.31499   0.32113

 Mulliken charges:
               1
     1  C   -0.180101
     2  C   -0.220322
     3  C   -0.172848
     4  C    0.153386
     5  C   -0.155537
     6  C   -0.214447
     7  H    0.219293
     8  H    0.218317
     9  H    0.272734
    10  H    0.285555
    11  H    0.227669
    12  N    0.487885
    13  O   -0.455603
    14  O   -0.465039
    15  C   -0.170178
    16  C   -0.218715
    17  C   -0.170222
    18  C    0.158163
    19  C   -0.169789
    20  C   -0.218517
    21  H    0.226212
    22  H    0.221303
    23  H    0.272072
    24  H    0.277356
    25  H    0.224915
    26  N    0.491720
    27  O   -0.454668
    28  O   -0.470593
 Sum of Mulliken charges =  -0.00000

 Dipole moment (field-independent basis, Debye):
    X=              5.0920    Y=              7.3063    Z=              0.1476  Tot=              8.9068
 Quadrupole moment (field-independent basis, Debye-Ang):
   XX=            -97.0953   YY=           -103.9362   ZZ=           -103.9433
   XY=             -7.4926   XZ=            -14.1317   YZ=             -0.3594

 Normal termination of Gaussian 16 at Thu May  6 04:52:49 2021.
