 Gaussian 16, Revision A.03,
 Gaussian 16:  EM64L-G16RevA.03 25-Dec-2016

 -------------
 #p 6-31g* mp2
 -------------

 ------------------------------------------------------
 Input file generated by CHIRIPA (05-May-2021 14:51:08)
 ------------------------------------------------------
 Symbolic Z-matrix:
 Charge =  0 Multiplicity = 1

                         Standard orientation:
 ---------------------------------------------------------------------
 Center     Atomic      Atomic             Coordinates (Angstroms)
 Number     Number       Type             X           Y           Z
 ---------------------------------------------------------------------
      1          6           0        4.245914   -0.067303    0.330248
      2          6           0        5.155298   -0.401117   -0.852789
      3          6           0        6.634503   -0.164562   -0.546543
      4          1           0        4.399095    0.981924    0.617655
      5          1           0        4.543896   -0.675169    1.195754
      6          1           0        4.854801    0.206196   -1.716206
      7          1           0        4.999794   -1.449618   -1.137536
      8          1           0        6.956459   -0.781746    0.298460
      9          1           0        6.810642    0.883476   -0.283498
     10          1           0        7.266553   -0.409517   -1.405827
     11          6           0        2.764135   -0.298665    0.039507
     12          6           0        1.854752    0.035149    1.222543
     13          6           0        0.375546   -0.201406    0.916297
     14          1           0        2.466154    0.309201   -0.826000
     15          1           0        2.610954   -1.347892   -0.247901
     16          1           0        2.010255    1.083650    1.507290
     17          1           0        2.155249   -0.572163    2.085960
     18          1           0        0.199408   -1.249444    0.653252
     19          1           0        0.053591    0.415778    0.071294
     20          1           0       -0.256504    0.043549    1.775582
     21          6           0       -3.593452   -0.484386    0.175997
     22          6           0       -4.167235   -1.585140   -0.716807
     23          6           0       -4.338310   -2.914250    0.019394
     24          1           0       -2.623357   -0.812282    0.573921
     25          1           0       -4.254691   -0.342444    1.042029
     26          1           0       -3.505836   -1.724005   -1.581611
     27          1           0       -5.135988   -1.254507   -1.112806
     28          1           0       -5.015117   -2.798012    0.872051
     29          1           0       -3.375703   -3.270178    0.400583
     30          1           0       -4.749764   -3.686970   -0.637469
     31          6           0       -3.416598    0.850354   -0.545751
     32          6           0       -2.842815    1.951108    0.347053
     33          6           0       -2.671740    3.280218   -0.389149
     34          1           0       -2.755359    0.708411   -1.411783
     35          1           0       -4.386693    1.178250   -0.943676
     36          1           0       -1.874062    1.620475    0.743052
     37          1           0       -3.504213    2.089973    1.211857
     38          1           0       -3.634346    3.636145   -0.770337
     39          1           0       -1.994933    3.163980   -1.241805
     40          1           0       -2.260286    4.052936    0.267715
 ---------------------------------------------------------------------

 SCF Done:  E(RHF) =  -470.732169903     A.U. after   11 cycles
 E2 =    -0.1583852101D+01 EUMP2 =    -0.47231602200406D+03

 The electronic state is 1-A.
 Alpha  occ. eigenvalues --  -11.21693 -11.21645 -11.21514 -11.21474 -11.21410
 Alpha  occ. eigenvalues --  -11.21394 -11.21277 -11.21207 -11.21205 -11.21104
 Alpha  occ. eigenvalues --  -11.21015 -11.20998  -1.08507  -1.08314  -1.03620
 Alpha  occ. eigenvalues --   -1.03427  -0.96080  -0.95886  -0.87113  -0.86901
 Alpha  occ. eigenvalues --   -0.79725  -0.79480  -0.78329  -0.78096  -0.65170
 Alpha  occ. eigenvalues --   -0.64940  -0.61154  -0.60729  -0.59463  -0.59232
 Alpha  occ. eigenvalues --   -0.57676  -0.57499  -0.55387  -0.55164  -0.52845
 Alpha  occ. eigenvalues --   -0.52550  -0.52492  -0.52313  -0.50158  -0.49720
 Alpha  occ. eigenvalues --   -0.48000  -0.47810  -0.46822  -0.46376  -0.45934
 Alpha  occ. eigenvalues --   -0.45774  -0.45646  -0.45506  -0.43771  -0.43658
 Alpha virt. eigenvalues --    0.21359   0.22965   0.23968   0.24484   0.25895
 Alpha virt. eigenvalues --    0.26612   0.26990   0.27591   0.27895   0.29566
 Alpha virt. eigenvalues --    0.30685   0.30898   0.31756   0.32028   0.32333

 Mulliken charges:
               1
     1  C   -0.298392
     2  C   -0.299690
     3  C   -0.475752
     4  H    0.149870
     5  H    0.149714
     6  H    0.151998
     7  H    0.151995
     8  H    0.155258
     9  H    0.155282
    10  H    0.160409
    11  C   -0.298910
    12  C   -0.301011
    13  C   -0.480214
    14  H    0.149724
    15  H    0.149756
    16  H    0.152622
    17  H    0.152512
    18  H    0.155068
    19  H    0.158694
    20  H    0.163144
    21  C   -0.305661
    22  C   -0.299233
    23  C   -0.475532
    24  H    0.159479
    25  H    0.148505
    26  H    0.151581
    27  H    0.151527
    28  H    0.155010
    29  H    0.154706
    30  H    0.159889
    31  C   -0.297155
    32  C   -0.308897
    33  C   -0.475290
    34  H    0.148293
    35  H    0.149097
    36  H    0.162790
    37  H    0.150610
    38  H    0.154955
    39  H    0.153745
    40  H    0.159505
 Sum of Mulliken charges =  -0.00000

 Dipole moment (field-independent basis, Debye):
    X=              0.0921    Y=             -0.0284    Z=              0.0350  Tot=              0.1026
 Quadrupole moment (field-independent basis, Debye-Ang):
   XX=            -85.4193   YY=            -85.0216   ZZ=            -84.7732
   XY=             -0.5732   XZ=             -0.2789   YZ=              0.1551

 Normal termination of Gaussian 16 at Wed May  5 19:41:40 2021.
