 Gaussian 16, Revision A.03,
 Gaussian 16:  EM64L-G16RevA.03 25-Dec-2016

 -------------
 #p 6-31g* mp2
 -------------

 ------------------------------------------------------
 Input file generated by CHIRIPA (05-May-2021 14:57:26)
 ------------------------------------------------------
 Symbolic Z-matrix:
 Charge =  0 Multiplicity = 1

                         Standard orientation:
 ---------------------------------------------------------------------
 Center     Atomic      Atomic             Coordinates (Angstroms)
 Number     Number       Type             X           Y           Z
 ---------------------------------------------------------------------
      1          6           0        2.163988    2.128343    1.457981
      2          6           0        1.824985    0.923601    2.082635
      3          6           0        2.101632   -0.299291    1.464128
      4          6           0        2.720956   -0.280395    0.215380
      5          6           0        3.070955    0.903261   -0.432500
      6          6           0        2.784797    2.114353    0.204616
      7          1           0        1.945388    3.073732    1.945680
      8          1           0        1.342783    0.931429    3.056013
      9          1           0        1.849988   -1.246661    1.925195
     10          1           0        3.550861    0.863458   -1.402822
     11          1           0        3.049204    3.048431   -0.282859
     12          7           0        3.018864   -1.568770   -0.449256
     13          8           0        3.565145   -1.525107   -1.549396
     14          8           0        2.700442   -2.597865    0.142527
     15          6           0       -0.976660    1.517723   -1.504198
     16          6           0       -2.187456    2.067852   -1.070781
     17          6           0       -3.134078    1.274049   -0.416308
     18          6           0       -2.835742   -0.072093   -0.210912
     19          6           0       -1.638437   -0.649470   -0.630893
     20          6           0       -0.706490    0.163205   -1.283260
     21          1           0       -0.247002    2.141697   -2.011790
     22          1           0       -2.399970    3.119472   -1.241001
     23          1           0       -4.079413    1.674113   -0.070320
     24          1           0       -1.455009   -1.701089   -0.446854
     25          1           0        0.232994   -0.266740   -1.618763
     26          7           0       -3.830120   -0.922446    0.480835
     27          8           0       -3.543295   -2.105604    0.649669
     28          8           0       -4.877509   -0.389693    0.841094
 ---------------------------------------------------------------------

 SCF Done:  E(RHF) =  -868.337480663     A.U. after   16 cycles
 E2 =    -0.2602329027D+01 EUMP2 =    -0.87093980969003D+03

 The electronic state is 1-A.
 Alpha  occ. eigenvalues --  -20.61616 -20.61604 -20.60822 -20.60808 -15.86654
 Alpha  occ. eigenvalues --  -15.85870 -11.31978 -11.31238 -11.28594 -11.28488
 Alpha  occ. eigenvalues --  -11.28252 -11.27835 -11.27744 -11.27601 -11.27570
 Alpha  occ. eigenvalues --  -11.27463 -11.26875 -11.26762  -1.60701  -1.59897
 Alpha  occ. eigenvalues --   -1.40247  -1.39448  -1.20164  -1.19413  -1.09558
 Alpha  occ. eigenvalues --   -1.08814  -1.05543  -1.04813  -0.96390  -0.95645
 Alpha  occ. eigenvalues --   -0.86943  -0.86215  -0.83210  -0.82474  -0.78272
 Alpha  occ. eigenvalues --   -0.77521  -0.72852  -0.72095  -0.72059  -0.71235
 Alpha  occ. eigenvalues --   -0.71225  -0.70528  -0.65798  -0.65525  -0.65064
 Alpha  occ. eigenvalues --   -0.64827  -0.62879  -0.62162  -0.56019  -0.55335
 Alpha  occ. eigenvalues --   -0.54107  -0.53616  -0.53026  -0.52796  -0.49629
 Alpha  occ. eigenvalues --   -0.49612  -0.48849  -0.48839  -0.45642  -0.44852
 Alpha  occ. eigenvalues --   -0.38152  -0.37450  -0.37123  -0.36330
 Alpha virt. eigenvalues --    0.04205   0.05009   0.10433   0.11222   0.15712
 Alpha virt. eigenvalues --    0.16499   0.20615   0.21321   0.26515   0.26804
 Alpha virt. eigenvalues --    0.27700   0.28279   0.30044   0.30988   0.31756

 Mulliken charges:
               1
     1  C   -0.168777
     2  C   -0.215245
     3  C   -0.169841
     4  C    0.153320
     5  C   -0.179669
     6  C   -0.220199
     7  H    0.228068
     8  H    0.228720
     9  H    0.279660
    10  H    0.275244
    11  H    0.223266
    12  N    0.486190
    13  O   -0.460849
    14  O   -0.456119
    15  C   -0.169888
    16  C   -0.220260
    17  C   -0.172327
    18  C    0.157640
    19  C   -0.174376
    20  C   -0.215959
    21  H    0.221666
    22  H    0.220938
    23  H    0.274628
    24  H    0.280529
    25  H    0.226239
    26  N    0.487622
    27  O   -0.458568
    28  O   -0.461653
 Sum of Mulliken charges =  -0.00000

 Dipole moment (field-independent basis, Debye):
    X=              2.5604    Y=              7.4639    Z=              0.1220  Tot=              7.8918
 Quadrupole moment (field-independent basis, Debye-Ang):
   XX=           -129.2680   YY=           -104.0954   ZZ=           -100.4969
   XY=              2.4484   XZ=             10.6709   YZ=             -1.7333

 Normal termination of Gaussian 16 at Wed May  5 16:31:29 2021.
