 Gaussian 16, Revision A.03,
 Gaussian 16:  EM64L-G16RevA.03 25-Dec-2016

 -------------
 #p 6-31g* mp2
 -------------

 ------------------------------------------------------
 Input file generated by CHIRIPA (05-May-2021 14:57:24)
 ------------------------------------------------------
 Symbolic Z-matrix:
 Charge =  0 Multiplicity = 1

                         Standard orientation:
 ---------------------------------------------------------------------
 Center     Atomic      Atomic             Coordinates (Angstroms)
 Number     Number       Type             X           Y           Z
 ---------------------------------------------------------------------
      1          6           0       -5.043602    1.468274   -1.284117
      2          6           0       -4.371464    2.020694   -0.188862
      3          6           0       -3.528043    1.231226    0.598494
      4          6           0       -3.379181   -0.112966    0.260444
      5          6           0       -4.035159   -0.692540   -0.824487
      6          6           0       -4.873604    0.115805   -1.597881
      7          1           0       -5.696859    2.088884   -1.890331
      8          1           0       -4.501590    3.070734    0.057164
      9          1           0       -2.995618    1.633140    1.451961
     10          1           0       -3.885455   -1.742494   -1.044947
     11          1           0       -5.394329   -0.315911   -2.447888
     12          7           0       -2.488923   -0.958733    1.086592
     13          8           0       -2.374650   -2.140247    0.767839
     14          8           0       -1.922268   -0.424116    2.037236
     15          6           0        2.323787   -2.229931   -0.380026
     16          6           0        3.493419   -1.982237   -1.106062
     17          6           0        4.167781   -0.764911   -0.972258
     18          6           0        3.642122    0.186600   -0.099561
     19          6           0        2.478975   -0.030417    0.637515
     20          6           0        1.821184   -1.254949    0.487915
     21          1           0        1.806363   -3.178377   -0.490103
     22          1           0        3.886052   -2.737581   -1.780851
     23          1           0        5.075200   -0.546889   -1.522235
     24          1           0        2.111849    0.741928    1.302436
     25          1           0        0.913034   -1.444559    1.053033
     26          7           0        4.347267    1.479143    0.050453
     27          8           0        3.863672    2.301062    0.825836
     28          8           0        5.370203    1.645844   -0.610191
 ---------------------------------------------------------------------

 SCF Done:  E(RHF) =  -868.340927117     A.U. after   16 cycles
 E2 =    -0.2598504459D+01 EUMP2 =    -0.87093943157533D+03

 The electronic state is 1-A.
 Alpha  occ. eigenvalues --  -20.61805 -20.61795 -20.60203 -20.60197 -15.86806
 Alpha  occ. eigenvalues --  -15.85245 -11.31819 -11.30422 -11.28357 -11.28328
 Alpha  occ. eigenvalues --  -11.28018 -11.27284 -11.27254 -11.27002 -11.26865
 Alpha  occ. eigenvalues --  -11.26590 -11.25993 -11.25685  -1.60865  -1.59282
 Alpha  occ. eigenvalues --   -1.40422  -1.38840  -1.19957  -1.18552  -1.09419
 Alpha  occ. eigenvalues --   -1.07974  -1.05304  -1.03902  -0.96310  -0.94848
 Alpha  occ. eigenvalues --   -0.86719  -0.85301  -0.83154  -0.81672  -0.78242
 Alpha  occ. eigenvalues --   -0.76753  -0.73024  -0.72166  -0.71468  -0.71058
 Alpha  occ. eigenvalues --   -0.70603  -0.69641  -0.65611  -0.65301  -0.64184
 Alpha  occ. eigenvalues --   -0.63848  -0.62654  -0.61227  -0.55817  -0.54388
 Alpha  occ. eigenvalues --   -0.53652  -0.53389  -0.52280  -0.51953  -0.49800
 Alpha  occ. eigenvalues --   -0.49759  -0.48234  -0.48203  -0.45904  -0.44288
 Alpha  occ. eigenvalues --   -0.37914  -0.36888  -0.36530  -0.35518
 Alpha virt. eigenvalues --    0.04221   0.05735   0.10772   0.12131   0.15795
 Alpha virt. eigenvalues --    0.17289   0.20946   0.22456   0.26889   0.27753
 Alpha virt. eigenvalues --    0.28471   0.29198   0.30557   0.31984   0.32101

 Mulliken charges:
               1
     1  C   -0.169304
     2  C   -0.218306
     3  C   -0.170048
     4  C    0.158323
     5  C   -0.170478
     6  C   -0.218521
     7  H    0.228361
     8  H    0.226790
     9  H    0.276955
    10  H    0.274798
    11  H    0.225149
    12  N    0.488182
    13  O   -0.464008
    14  O   -0.463797
    15  C   -0.172611
    16  C   -0.219087
    17  C   -0.173291
    18  C    0.157991
    19  C   -0.174255
    20  C   -0.229629
    21  H    0.228416
    22  H    0.220023
    23  H    0.272244
    24  H    0.276311
    25  H    0.247167
    26  N    0.488076
    27  O   -0.462175
    28  O   -0.463276
 Sum of Mulliken charges =  -0.00000

 Dipole moment (field-independent basis, Debye):
    X=             -6.1265    Y=             -1.5436    Z=             -3.4064  Tot=              7.1777
 Quadrupole moment (field-independent basis, Debye-Ang):
   XX=           -100.4181   YY=           -104.3353   ZZ=           -103.3273
   XY=            -27.8482   XZ=              6.1633   YZ=              5.1326

 Normal termination of Gaussian 16 at Thu May  6 16:20:53 2021.
