 Gaussian 16, Revision A.03,
 Gaussian 16:  EM64L-G16RevA.03 25-Dec-2016

 -------------
 #p 6-31g* mp2
 -------------

 ------------------------------------------------------
 Input file generated by CHIRIPA (05-May-2021 14:53:17)
 ------------------------------------------------------
 Symbolic Z-matrix:
 Charge =  0 Multiplicity = 1

                         Standard orientation:
 ---------------------------------------------------------------------
 Center     Atomic      Atomic             Coordinates (Angstroms)
 Number     Number       Type             X           Y           Z
 ---------------------------------------------------------------------
      1          6           0       -5.378174   -0.326222    0.085685
      2          6           0       -6.427973    0.735323   -0.244509
      3          6           0       -7.859017    0.217504   -0.096953
      4          1           0       -5.524933   -1.194642   -0.571015
      5          1           0       -5.536487   -0.681241    1.113446
      6          1           0       -6.266869    1.089230   -1.270868
      7          1           0       -6.278577    1.601394    0.412923
      8          1           0       -8.043544   -0.117747    0.928794
      9          1           0       -8.031769   -0.632822   -0.764564
     10          1           0       -8.593253    0.992580   -0.337817
     11          6           0       -3.942652    0.176359   -0.057205
     12          6           0       -2.892853   -0.885186    0.272989
     13          6           0       -1.461809   -0.367368    0.125433
     14          1           0       -3.784339    0.531378   -1.084967
     15          1           0       -3.795893    1.044778    0.599494
     16          1           0       -3.042249   -1.751258   -0.384443
     17          1           0       -3.053957   -1.239093    1.299347
     18          1           0       -1.289058    0.482958    0.793043
     19          1           0       -1.277283   -0.032117   -0.900314
     20          1           0       -0.727573   -1.142444    0.366296
     21          6           0        3.539658   -2.461899   -0.066360
     22          6           0        2.363541   -1.716855    0.068483
     23          6           0        2.407732   -0.319864    0.100272
     24          6           0        3.650740    0.302207   -0.005785
     25          6           0        4.840033   -0.412322   -0.141133
     26          6           0        4.771978   -1.808406   -0.170554
     27          1           0        3.496060   -3.546763   -0.090134
     28          1           0        1.405099   -2.221682    0.149609
     29          1           0        1.512664    0.281431    0.203779
     30          1           0        5.780627    0.119196   -0.219815
     31          1           0        5.686984   -2.384448   -0.275367
     32          7           0        3.710155    1.780659    0.026615
     33          8           0        4.817768    2.304827   -0.068669
     34          8           0        2.647987    2.387306    0.146681
 ---------------------------------------------------------------------

 SCF Done:  E(RHF) =  -669.535203177     A.U. after   15 cycles
 E2 =    -0.2091534405D+01 EUMP2 =    -0.67162673758173D+03

 The electronic state is 1-A.
 Alpha  occ. eigenvalues --  -20.60686 -20.60681 -15.85737 -11.31072 -11.27663
 Alpha  occ. eigenvalues --  -11.27591 -11.27410 -11.26677 -11.26640 -11.22182
 Alpha  occ. eigenvalues --  -11.21920 -11.21769 -11.21725 -11.21624 -11.21208
 Alpha  occ. eigenvalues --   -1.59761  -1.39315  -1.19254  -1.08779  -1.08659
 Alpha  occ. eigenvalues --   -1.04660  -1.03935  -0.96415  -0.95492  -0.87450
 Alpha  occ. eigenvalues --   -0.86057  -0.82333  -0.80018  -0.78551  -0.77369
 Alpha  occ. eigenvalues --   -0.71957  -0.71084  -0.70368  -0.65399  -0.64914
 Alpha  occ. eigenvalues --   -0.64683  -0.62094  -0.61319  -0.59760  -0.57997
 Alpha  occ. eigenvalues --   -0.55669  -0.55180  -0.53125  -0.53008  -0.52979
 Alpha  occ. eigenvalues --   -0.52575  -0.50324  -0.48715  -0.48711  -0.48310
 Alpha  occ. eigenvalues --   -0.47005  -0.46103  -0.46000  -0.44727  -0.44187
 Alpha  occ. eigenvalues --   -0.37247  -0.36255
 Alpha virt. eigenvalues --    0.05156   0.11392   0.16644   0.20351   0.22646
 Alpha virt. eigenvalues --    0.23884   0.25782   0.26315   0.26537   0.27830
 Alpha virt. eigenvalues --    0.28893   0.29302   0.31066   0.31595   0.32257

 Mulliken charges:
               1
     1  C   -0.298728
     2  C   -0.300120
     3  C   -0.475935
     4  H    0.149327
     5  H    0.149809
     6  H    0.152876
     7  H    0.153455
     8  H    0.155298
     9  H    0.154963
    10  H    0.161387
    11  C   -0.299801
    12  C   -0.299850
    13  C   -0.485984
    14  H    0.151633
    15  H    0.153086
    16  H    0.151774
    17  H    0.153428
    18  H    0.163810
    19  H    0.161194
    20  H    0.149559
    21  C   -0.170648
    22  C   -0.225067
    23  C   -0.177591
    24  C    0.158597
    25  C   -0.170395
    26  C   -0.219142
    27  H    0.225288
    28  H    0.226499
    29  H    0.286684
    30  H    0.275165
    31  H    0.222949
    32  N    0.487961
    33  O   -0.460934
    34  O   -0.460547
 Sum of Mulliken charges =  -0.00000

 Dipole moment (field-independent basis, Debye):
    X=             -0.4316    Y=             -5.1277    Z=             -0.1212  Tot=              5.1472
 Quadrupole moment (field-independent basis, Debye-Ang):
   XX=            -92.0217   YY=            -98.6222   ZZ=            -94.6341
   XY=            -19.8919   XZ=             -0.9417   YZ=              0.3620

 Normal termination of Gaussian 16 at Thu May  6 12:17:26 2021.
