 Gaussian 16, Revision A.03,
 Gaussian 16:  EM64L-G16RevA.03 25-Dec-2016

 -------------
 #p 6-31g* mp2
 -------------

 ------------------------------------------------------
 Input file generated by CHIRIPA (05-May-2021 14:51:11)
 ------------------------------------------------------
 Symbolic Z-matrix:
 Charge =  0 Multiplicity = 1

                         Standard orientation:
 ---------------------------------------------------------------------
 Center     Atomic      Atomic             Coordinates (Angstroms)
 Number     Number       Type             X           Y           Z
 ---------------------------------------------------------------------
      1          6           0        4.533815    0.162724    0.071376
      2          6           0        5.731789   -0.723729   -0.270742
      3          6           0        7.043845    0.057918   -0.343767
      4          1           0        4.447166    0.957831   -0.681779
      5          1           0        4.718448    0.661672    1.032811
      6          1           0        5.544350   -1.221925   -1.230577
      7          1           0        5.815482   -1.516931    0.483208
      8          1           0        7.257691    0.542059    0.614606
      9          1           0        6.985019    0.838742   -1.108917
     10          1           0        7.887044   -0.595115   -0.589577
     11          6           0        3.214900   -0.604295    0.148004
     12          6           0        2.016926    0.282158    0.490122
     13          6           0        0.704870   -0.499488    0.563147
     14          1           0        3.030267   -1.103242   -0.813431
     15          1           0        3.301549   -1.399402    0.901159
     16          1           0        1.933234    1.075361   -0.263828
     17          1           0        2.204365    0.780355    1.449957
     18          1           0        0.763696   -1.280312    1.328297
     19          1           0        0.491025   -0.983630   -0.395225
     20          1           0       -0.138329    0.153545    0.808958
     21          6           0       -4.395129   -0.297349    0.099514
     22          6           0       -4.093740   -1.703703   -0.419443
     23          6           0       -5.144534   -2.729113    0.007360
     24          1           0       -4.459439   -0.323949    1.195919
     25          1           0       -5.383544    0.016095   -0.264055
     26          1           0       -3.105592   -2.013852   -0.056143
     27          1           0       -4.029950   -1.673715   -1.514727
     28          1           0       -6.133391   -2.446404   -0.367922
     29          1           0       -5.203781   -2.788473    1.098950
     30          1           0       -4.909472   -3.727532   -0.374434
     31          6           0       -3.353587    0.738920   -0.318895
     32          6           0       -3.654975    2.145275    0.200063
     33          6           0       -2.604181    3.170684   -0.226741
     34          1           0       -2.365171    0.425476    0.044675
     35          1           0       -3.289276    0.765520   -1.415298
     36          1           0       -3.718765    2.115286    1.295348
     37          1           0       -4.643123    2.455423   -0.163238
     38          1           0       -2.544934    3.230044   -1.318330
     39          1           0       -1.615324    2.887974    0.148542
     40          1           0       -2.839244    4.169102    0.155054
 ---------------------------------------------------------------------

 SCF Done:  E(RHF) =  -470.733261975     A.U. after   11 cycles
 E2 =    -0.1582687911D+01 EUMP2 =    -0.47231594988589D+03

 The electronic state is 1-A.
 Alpha  occ. eigenvalues --  -11.21645 -11.21615 -11.21572 -11.21544 -11.21429
 Alpha  occ. eigenvalues --  -11.21368 -11.21341 -11.21273 -11.21131 -11.21080
 Alpha  occ. eigenvalues --  -11.21065 -11.21029  -1.08457  -1.08382  -1.03563
 Alpha  occ. eigenvalues --   -1.03491  -0.96019  -0.95937  -0.87043  -0.86951
 Alpha  occ. eigenvalues --   -0.79635  -0.79546  -0.78272  -0.78188  -0.65089
 Alpha  occ. eigenvalues --   -0.65027  -0.60958  -0.60899  -0.59427  -0.59277
 Alpha  occ. eigenvalues --   -0.57637  -0.57541  -0.55304  -0.55229  -0.52778
 Alpha  occ. eigenvalues --   -0.52629  -0.52448  -0.52336  -0.49960  -0.49875
 Alpha  occ. eigenvalues --   -0.47979  -0.47841  -0.46658  -0.46579  -0.45812
 Alpha  occ. eigenvalues --   -0.45753  -0.45717  -0.45656  -0.43763  -0.43717
 Alpha virt. eigenvalues --    0.21102   0.23016   0.23688   0.24727   0.25923
 Alpha virt. eigenvalues --    0.26639   0.27104   0.27317   0.28027   0.29162
 Alpha virt. eigenvalues --    0.30154   0.31390   0.31747   0.31921   0.32073

 Mulliken charges:
               1
     1  C   -0.298315
     2  C   -0.299665
     3  C   -0.475723
     4  H    0.149838
     5  H    0.149553
     6  H    0.151993
     7  H    0.151936
     8  H    0.155198
     9  H    0.155251
    10  H    0.160299
    11  C   -0.298704
    12  C   -0.299409
    13  C   -0.481970
    14  H    0.149759
    15  H    0.149667
    16  H    0.152639
    17  H    0.151874
    18  H    0.155213
    19  H    0.156441
    20  H    0.164881
    21  C   -0.297508
    22  C   -0.300282
    23  C   -0.475655
    24  H    0.149308
    25  H    0.149208
    26  H    0.153282
    27  H    0.151589
    28  H    0.154985
    29  H    0.155097
    30  H    0.160089
    31  C   -0.307317
    32  C   -0.299221
    33  C   -0.476527
    34  H    0.158856
    35  H    0.149205
    36  H    0.151507
    37  H    0.151887
    38  H    0.155224
    39  H    0.155240
    40  H    0.160273
 Sum of Mulliken charges =  -0.00000

 Dipole moment (field-independent basis, Debye):
    X=              0.0386    Y=             -0.0103    Z=             -0.0024  Tot=              0.0400
 Quadrupole moment (field-independent basis, Debye-Ang):
   XX=            -86.1123   YY=            -85.6858   ZZ=            -83.1058
   XY=             -1.1326   XZ=              0.8527   YZ=             -0.1207

 Normal termination of Gaussian 16 at Wed May  5 23:06:10 2021.
