 Gaussian 16, Revision A.03,
 Gaussian 16:  EM64L-G16RevA.03 25-Dec-2016

 -------------
 #p 6-31g* mp2
 -------------

 ------------------------------------------------------
 Input file generated by CHIRIPA (05-May-2021 14:57:26)
 ------------------------------------------------------
 Symbolic Z-matrix:
 Charge =  0 Multiplicity = 1

                         Standard orientation:
 ---------------------------------------------------------------------
 Center     Atomic      Atomic             Coordinates (Angstroms)
 Number     Number       Type             X           Y           Z
 ---------------------------------------------------------------------
      1          6           0        3.990092    2.474539    0.448503
      2          6           0        2.912240    1.685059    0.862603
      3          6           0        2.909851    0.306951    0.627316
      4          6           0        4.006585   -0.251130   -0.027674
      5          6           0        5.095343    0.508804   -0.452406
      6          6           0        5.076288    1.884931   -0.206525
      7          1           0        3.983618    3.544318    0.635394
      8          1           0        2.067342    2.140241    1.371525
      9          1           0        2.088534   -0.327749    0.937174
     10          1           0        5.923419    0.026442   -0.957415
     11          1           0        5.914736    2.495588   -0.529244
     12          7           0        4.015406   -1.709023   -0.282369
     13          8           0        4.993584   -2.176536   -0.861365
     14          8           0        3.043976   -2.356602    0.101820
     15          6           0       -1.500075   -0.029175    0.284060
     16          6           0       -2.286951   -1.046072    0.834759
     17          6           0       -3.675875   -1.034081    0.675718
     18          6           0       -4.247310    0.014722   -0.043147
     19          6           0       -3.490303    1.042296   -0.603789
     20          6           0       -2.103200    1.009932   -0.432194
     21          1           0       -0.421834   -0.046403    0.412483
     22          1           0       -1.821283   -1.854306    1.391495
     23          1           0       -4.308851   -1.808608    1.091491
     24          1           0       -3.983228    1.834814   -1.153662
     25          1           0       -1.494597    1.801000   -0.860981
     26          7           0       -5.716738    0.038200   -0.218163
     27          8           0       -6.195923    0.973314   -0.855799
     28          8           0       -6.361466   -0.878956    0.285610
 ---------------------------------------------------------------------

 SCF Done:  E(RHF) =  -868.337153989     A.U. after   16 cycles
 E2 =    -0.2599657383D+01 EUMP2 =    -0.87093681137183D+03

 The electronic state is 1-A.
 Alpha  occ. eigenvalues --  -20.61609 -20.61582 -20.60859 -20.60851 -15.86655
 Alpha  occ. eigenvalues --  -15.85912 -11.32113 -11.31327 -11.28795 -11.28610
 Alpha  occ. eigenvalues --  -11.28374 -11.27911 -11.27860 -11.27758 -11.27727
 Alpha  occ. eigenvalues --  -11.27629 -11.26986 -11.26890  -1.60668  -1.59931
 Alpha  occ. eigenvalues --   -1.40223  -1.39483  -1.20276  -1.19506  -1.09637
 Alpha  occ. eigenvalues --   -1.08909  -1.05706  -1.04909  -0.96470  -0.95735
 Alpha  occ. eigenvalues --   -0.87086  -0.86312  -0.83310  -0.82559  -0.78361
 Alpha  occ. eigenvalues --   -0.77581  -0.72872  -0.72130  -0.71991  -0.71407
 Alpha  occ. eigenvalues --   -0.71254  -0.70648  -0.65927  -0.65697  -0.65165
 Alpha  occ. eigenvalues --   -0.64915  -0.63068  -0.62248  -0.56175  -0.55473
 Alpha  occ. eigenvalues --   -0.53999  -0.53778  -0.53241  -0.53003  -0.49639
 Alpha  occ. eigenvalues --   -0.49618  -0.48893  -0.48881  -0.45609  -0.44877
 Alpha  occ. eigenvalues --   -0.38222  -0.37512  -0.37309  -0.36502
 Alpha virt. eigenvalues --    0.04167   0.04942   0.10321   0.11145   0.15632
 Alpha virt. eigenvalues --    0.16410   0.18425   0.21919   0.24800   0.26689
 Alpha virt. eigenvalues --    0.27404   0.29600   0.30017   0.30781   0.32477

 Mulliken charges:
               1
     1  C   -0.170504
     2  C   -0.220169
     3  C   -0.178576
     4  C    0.161851
     5  C   -0.169785
     6  C   -0.217584
     7  H    0.228624
     8  H    0.222395
     9  H    0.270732
    10  H    0.278571
    11  H    0.227078
    12  N    0.488064
    13  O   -0.456084
    14  O   -0.463014
    15  C   -0.172544
    16  C   -0.219185
    17  C   -0.170523
    18  C    0.158897
    19  C   -0.170631
    20  C   -0.220305
    21  H    0.222098
    22  H    0.228326
    23  H    0.277181
    24  H    0.275538
    25  H    0.221330
    26  N    0.487953
    27  O   -0.460502
    28  O   -0.459234
 Sum of Mulliken charges =  -0.00000

 Dipole moment (field-independent basis, Debye):
    X=              5.3525    Y=              5.0460    Z=              1.4635  Tot=              7.5002
 Quadrupole moment (field-independent basis, Debye-Ang):
   XX=           -143.9452   YY=           -104.2460   ZZ=           -103.9026
   XY=             22.5050   XZ=             -2.0324   YZ=             -3.1678

 Normal termination of Gaussian 16 at Wed May  5 22:50:35 2021.
