 Gaussian 16, Revision A.03,
 Gaussian 16:  EM64L-G16RevA.03 25-Dec-2016

 -------------
 #p 6-31g* mp2
 -------------

 ------------------------------------------------------
 Input file generated by CHIRIPA (05-May-2021 14:53:16)
 ------------------------------------------------------
 Symbolic Z-matrix:
 Charge =  0 Multiplicity = 1

                         Standard orientation:
 ---------------------------------------------------------------------
 Center     Atomic      Atomic             Coordinates (Angstroms)
 Number     Number       Type             X           Y           Z
 ---------------------------------------------------------------------
      1          6           0        4.965956   -0.219219    0.027151
      2          6           0        5.067336   -1.544203   -0.729238
      3          6           0        6.297229   -2.360175   -0.330055
      4          1           0        5.874434    0.370725   -0.156095
      5          1           0        4.937713   -0.422495    1.106631
      6          1           0        5.093985   -1.338564   -1.807022
      7          1           0        4.158427   -2.130980   -0.544323
      8          1           0        6.273765   -2.594334    0.739159
      9          1           0        7.214638   -1.797416   -0.530714
     10          1           0        6.350008   -3.303318   -0.882827
     11          6           0        3.741581    0.607802   -0.361009
     12          6           0        3.640201    1.932786    0.395380
     13          6           0        2.410308    2.748758   -0.003802
     14          1           0        3.769824    0.811078   -1.440489
     15          1           0        2.833103    0.017858   -0.177763
     16          1           0        4.549110    2.519563    0.210465
     17          1           0        3.613552    1.727147    1.473164
     18          1           0        1.492899    2.185999    0.196856
     19          1           0        2.433773    2.982917   -1.073017
     20          1           0        2.357529    3.691901    0.548969
     21          6           0       -1.209402    0.227686    1.320852
     22          6           0       -1.525905    0.975192    0.181738
     23          6           0       -2.737558    0.773380   -0.485881
     24          6           0       -3.613294   -0.188476    0.015326
     25          6           0       -3.326613   -0.949095    1.147829
     26          6           0       -2.109179   -0.730382    1.799418
     27          1           0       -0.265915    0.391023    1.833249
     28          1           0       -0.829044    1.719917   -0.192179
     29          1           0       -3.007873    1.338079   -1.369886
     30          1           0       -4.041487   -1.684350    1.496788
     31          1           0       -1.866029   -1.312373    2.683846
     32          7           0       -4.899077   -0.411072   -0.682968
     33          8           0       -5.653540   -1.264482   -0.221327
     34          8           0       -5.128064    0.272084   -1.678709
 ---------------------------------------------------------------------

 SCF Done:  E(RHF) =  -669.535429934     A.U. after   15 cycles
 E2 =    -0.2091133665D+01 EUMP2 =    -0.67162656359928D+03

 The electronic state is 1-A.
 Alpha  occ. eigenvalues --  -20.60740 -20.60735 -15.85793 -11.31160 -11.27729
 Alpha  occ. eigenvalues --  -11.27715 -11.27475 -11.26753 -11.26707 -11.22563
 Alpha  occ. eigenvalues --  -11.22286 -11.22212 -11.22148 -11.22035 -11.21527
 Alpha  occ. eigenvalues --   -1.59816  -1.39369  -1.19331  -1.09200  -1.08729
 Alpha  occ. eigenvalues --   -1.04733  -1.04313  -0.96778  -0.95564  -0.87801
 Alpha  occ. eigenvalues --   -0.86135  -0.82393  -0.80386  -0.78976  -0.77440
 Alpha  occ. eigenvalues --   -0.72012  -0.71138  -0.70450  -0.65849  -0.64985
 Alpha  occ. eigenvalues --   -0.64761  -0.62135  -0.61671  -0.60146  -0.58361
 Alpha  occ. eigenvalues --   -0.56083  -0.55243  -0.53469  -0.53258  -0.53063
 Alpha  occ. eigenvalues --   -0.52768  -0.50721  -0.48793  -0.48767  -0.48665
 Alpha  occ. eigenvalues --   -0.47413  -0.46524  -0.46430  -0.44774  -0.44548
 Alpha  occ. eigenvalues --   -0.37317  -0.36333
 Alpha virt. eigenvalues --    0.05090   0.11300   0.16577   0.19204   0.22422
 Alpha virt. eigenvalues --    0.23770   0.25271   0.25981   0.26876   0.28026
 Alpha virt. eigenvalues --    0.28724   0.30217   0.30906   0.31454   0.31788

 Mulliken charges:
               1
     1  C   -0.298669
     2  C   -0.300165
     3  C   -0.476093
     4  H    0.151684
     5  H    0.148872
     6  H    0.153549
     7  H    0.151910
     8  H    0.155084
     9  H    0.156185
    10  H    0.162186
    11  C   -0.298702
    12  C   -0.300129
    13  C   -0.480288
    14  H    0.152340
    15  H    0.146128
    16  H    0.156788
    17  H    0.150828
    18  H    0.144597
    19  H    0.160004
    20  H    0.164782
    21  C   -0.173093
    22  C   -0.223473
    23  C   -0.171174
    24  C    0.158868
    25  C   -0.171272
    26  C   -0.218479
    27  H    0.225326
    28  H    0.230712
    29  H    0.275951
    30  H    0.275495
    31  H    0.223179
    32  N    0.487926
    33  O   -0.460507
    34  O   -0.460351
 Sum of Mulliken charges =  -0.00000

 Dipole moment (field-independent basis, Debye):
    X=              4.7523    Y=              0.8015    Z=              2.4076  Tot=              5.3874
 Quadrupole moment (field-independent basis, Debye-Ang):
   XX=           -127.4356   YY=            -93.0355   ZZ=            -92.3503
   XY=             -1.7439   XZ=            -10.5006   YZ=             -3.4882

 Normal termination of Gaussian 16 at Thu May  6 15:31:33 2021.
