 Gaussian 16, Revision A.03,
 Gaussian 16:  EM64L-G16RevA.03 25-Dec-2016

 -------------
 #p 6-31g* mp2
 -------------

 ------------------------------------------------------
 Input file generated by CHIRIPA (05-May-2021 14:53:18)
 ------------------------------------------------------
 Symbolic Z-matrix:
 Charge =  0 Multiplicity = 1

                         Standard orientation:
 ---------------------------------------------------------------------
 Center     Atomic      Atomic             Coordinates (Angstroms)
 Number     Number       Type             X           Y           Z
 ---------------------------------------------------------------------
      1          6           0       -4.980498    0.105166    0.391908
      2          6           0       -5.907745    0.642875   -0.698536
      3          6           0       -7.207191    1.221086   -0.137371
      4          1           0       -5.509628   -0.667762    0.965971
      5          1           0       -4.748041    0.914558    1.097772
      6          1           0       -6.137272   -0.166939   -1.402904
      7          1           0       -5.376281    1.414478   -1.270192
      8          1           0       -6.996277    2.046865    0.549801
      9          1           0       -7.761592    0.456462    0.416335
     10          1           0       -7.855125    1.599733   -0.934033
     11          6           0       -3.677290   -0.476183   -0.153445
     12          6           0       -2.750043   -1.013891    0.936998
     13          6           0       -1.450597   -1.592103    0.375834
     14          1           0       -3.909747   -1.285574   -0.859310
     15          1           0       -3.148160    0.296746   -0.727509
     16          1           0       -3.281507   -1.785495    1.508654
     17          1           0       -2.520516   -0.204077    1.641366
     18          1           0       -0.896196   -0.827479   -0.177873
     19          1           0       -1.661511   -2.417881   -0.311339
     20          1           0       -0.802663   -1.970749    1.172495
     21          6           0        3.913317    2.598229    0.161576
     22          6           0        4.931878    1.646097    0.273381
     23          6           0        4.649008    0.284069    0.134050
     24          6           0        3.330578   -0.092248   -0.117775
     25          6           0        2.293934    0.832431   -0.234518
     26          6           0        2.599911    2.189079   -0.091570
     27          1           0        4.142032    3.654196    0.271217
     28          1           0        5.952797    1.960952    0.469942
     29          1           0        5.418285   -0.474174    0.215886
     30          1           0        1.285833    0.488037   -0.430841
     31          1           0        1.806865    2.926301   -0.178894
     32          7           0        3.018885   -1.531318   -0.267193
     33          8           0        1.849240   -1.837076   -0.488730
     34          8           0        3.950127   -2.326252   -0.159942
 ---------------------------------------------------------------------

 SCF Done:  E(RHF) =  -669.535130431     A.U. after   15 cycles
 E2 =    -0.2091580792D+01 EUMP2 =    -0.67162671122308D+03

 The electronic state is 1-A.
 Alpha  occ. eigenvalues --  -20.60784 -20.60775 -15.85824 -11.31205 -11.27777
 Alpha  occ. eigenvalues --  -11.27773 -11.27526 -11.26798 -11.26789 -11.21501
 Alpha  occ. eigenvalues --  -11.21226 -11.21159 -11.21098 -11.21007 -11.20257
 Alpha  occ. eigenvalues --   -1.59856  -1.39408  -1.19381  -1.08775  -1.08189
 Alpha  occ. eigenvalues --   -1.04788  -1.03214  -0.95683  -0.95556  -0.86634
 Alpha  occ. eigenvalues --   -0.86185  -0.82440  -0.79282  -0.78009  -0.77463
 Alpha  occ. eigenvalues --   -0.72044  -0.71176  -0.70494  -0.65037  -0.64862
 Alpha  occ. eigenvalues --   -0.64771  -0.62153  -0.60619  -0.59020  -0.57243
 Alpha  occ. eigenvalues --   -0.55301  -0.54934  -0.53116  -0.52889  -0.52269
 Alpha  occ. eigenvalues --   -0.52040  -0.49620  -0.48807  -0.48777  -0.47568
 Alpha  occ. eigenvalues --   -0.46335  -0.45523  -0.45474  -0.44812  -0.43428
 Alpha  occ. eigenvalues --   -0.37364  -0.36390
 Alpha virt. eigenvalues --    0.05039   0.11259   0.16519   0.20762   0.23006
 Alpha virt. eigenvalues --    0.24102   0.26003   0.27098   0.27660   0.27814
 Alpha virt. eigenvalues --    0.29233   0.30442   0.31534   0.31999   0.32385

 Mulliken charges:
               1
     1  C   -0.297584
     2  C   -0.299191
     3  C   -0.475470
     4  H    0.150302
     5  H    0.147226
     6  H    0.152734
     7  H    0.149996
     8  H    0.154049
     9  H    0.155627
    10  H    0.159706
    11  C   -0.296767
    12  C   -0.303105
    13  C   -0.468356
    14  H    0.151287
    15  H    0.144272
    16  H    0.151595
    17  H    0.145918
    18  H    0.149702
    19  H    0.159587
    20  H    0.166755
    21  C   -0.170364
    22  C   -0.218965
    23  C   -0.170080
    24  C    0.155140
    25  C   -0.172571
    26  C   -0.221482
    27  H    0.225653
    28  H    0.223495
    29  H    0.275710
    30  H    0.284010
    31  H    0.223727
    32  N    0.489997
    33  O   -0.462057
    34  O   -0.460495
 Sum of Mulliken charges =  -0.00000

 Dipole moment (field-independent basis, Debye):
    X=              1.2276    Y=              4.9278    Z=              0.5111  Tot=              5.1040
 Quadrupole moment (field-independent basis, Debye-Ang):
   XX=            -84.1054   YY=            -95.1006   ZZ=            -95.8299
   XY=             16.8953   XZ=              2.8793   YZ=             -0.8681

 Normal termination of Gaussian 16 at Thu May  6 13:58:06 2021.
