 Gaussian 16, Revision A.03,
 Gaussian 16:  EM64L-G16RevA.03 25-Dec-2016

 -------------
 #p 6-31g* mp2
 -------------

 ------------------------------------------------------
 Input file generated by CHIRIPA (05-May-2021 14:51:07)
 ------------------------------------------------------
 Symbolic Z-matrix:
 Charge =  0 Multiplicity = 1

                         Standard orientation:
 ---------------------------------------------------------------------
 Center     Atomic      Atomic             Coordinates (Angstroms)
 Number     Number       Type             X           Y           Z
 ---------------------------------------------------------------------
      1          6           0       -2.992198   -0.187774    0.461949
      2          6           0       -2.415036    1.021284    1.198866
      3          6           0       -0.929109    0.862448    1.522266
      4          1           0       -2.842856   -1.087798    1.073994
      5          1           0       -2.428378   -0.345063   -0.467977
      6          1           0       -2.980666    1.177082    2.126446
      7          1           0       -2.565940    1.918564    0.585080
      8          1           0       -0.347146    0.729761    0.604489
      9          1           0       -0.764229   -0.015933    2.154613
     10          1           0       -0.537047    1.738074    2.048980
     11          6           0       -4.476776   -0.043945    0.131692
     12          6           0       -5.053939   -1.253003   -0.605225
     13          6           0       -6.539865   -1.094167   -0.928626
     14          1           0       -5.040597    0.113344    1.061618
     15          1           0       -4.626118    0.856079   -0.480353
     16          1           0       -4.903034   -2.150283    0.008560
     17          1           0       -4.488308   -1.408801   -1.532805
     18          1           0       -6.704746   -0.215786   -1.560972
     19          1           0       -7.121828   -0.961480   -0.010849
     20          1           0       -6.931927   -1.969793   -1.455339
     21          6           0        4.110610   -0.335395    0.191373
     22          6           0        4.823784   -1.504021   -0.489570
     23          6           0        5.571766   -2.397734    0.500175
     24          1           0        4.847279    0.263552    0.744117
     25          1           0        3.405547   -0.729181    0.936499
     26          1           0        5.526291   -1.108191   -1.234163
     27          1           0        4.085361   -2.100147   -1.040914
     28          1           0        4.880319   -2.820122    1.236442
     29          1           0        6.329437   -1.822531    1.042096
     30          1           0        6.074286   -3.226689   -0.007926
     31          6           0        3.358364    0.567114   -0.785013
     32          6           0        2.645190    1.735740   -0.104071
     33          6           0        1.897208    2.629453   -1.093816
     34          1           0        4.063428    0.960900   -1.530140
     35          1           0        2.621695   -0.031833   -1.337757
     36          1           0        3.383614    2.331866    0.447274
     37          1           0        1.942683    1.339910    0.640522
     38          1           0        1.139538    2.054250   -1.635737
     39          1           0        2.588655    3.051841   -1.830083
     40          1           0        1.394688    3.458409   -0.585714
 ---------------------------------------------------------------------

 SCF Done:  E(RHF) =  -470.732961806     A.U. after   11 cycles
 E2 =    -0.1582873648D+01 EUMP2 =    -0.47231583545425D+03

 The electronic state is 1-A.
 Alpha  occ. eigenvalues --  -11.21631 -11.21623 -11.21567 -11.21468 -11.21436
 Alpha  occ. eigenvalues --  -11.21375 -11.21354 -11.21295 -11.21108 -11.21087
 Alpha  occ. eigenvalues --  -11.21044 -11.21044  -1.08462  -1.08377  -1.03578
 Alpha  occ. eigenvalues --   -1.03467  -0.96034  -0.95922  -0.87041  -0.86953
 Alpha  occ. eigenvalues --   -0.79679  -0.79498  -0.78283  -0.78177  -0.65145
 Alpha  occ. eigenvalues --   -0.64977  -0.61141  -0.60734  -0.59411  -0.59274
 Alpha  occ. eigenvalues --   -0.57621  -0.57548  -0.55435  -0.55093  -0.52723
 Alpha  occ. eigenvalues --   -0.52620  -0.52455  -0.52350  -0.49982  -0.49866
 Alpha  occ. eigenvalues --   -0.48007  -0.47807  -0.46756  -0.46469  -0.45860
 Alpha  occ. eigenvalues --   -0.45758  -0.45713  -0.45541  -0.43804  -0.43728
 Alpha virt. eigenvalues --    0.21254   0.23030   0.23704   0.25044   0.26304
 Alpha virt. eigenvalues --    0.26538   0.27142   0.27596   0.27954   0.29113
 Alpha virt. eigenvalues --    0.30212   0.30911   0.31610   0.31849   0.32409

 Mulliken charges:
               1
     1  C   -0.298519
     2  C   -0.300040
     3  C   -0.479498
     4  H    0.149578
     5  H    0.149259
     6  H    0.151974
     7  H    0.152536
     8  H    0.159529
     9  H    0.154799
    10  H    0.160956
    11  C   -0.298341
    12  C   -0.299664
    13  C   -0.475730
    14  H    0.149640
    15  H    0.149841
    16  H    0.151920
    17  H    0.151900
    18  H    0.155266
    19  H    0.155225
    20  H    0.160312
    21  C   -0.298283
    22  C   -0.299595
    23  C   -0.475675
    24  H    0.149561
    25  H    0.149917
    26  H    0.151798
    27  H    0.151815
    28  H    0.155172
    29  H    0.155120
    30  H    0.160100
    31  C   -0.298062
    32  C   -0.307891
    33  C   -0.475445
    34  H    0.149249
    35  H    0.148660
    36  H    0.151490
    37  H    0.161985
    38  H    0.153664
    39  H    0.155129
    40  H    0.160347
 Sum of Mulliken charges =  -0.00000

 Dipole moment (field-independent basis, Debye):
    X=             -0.0316    Y=              0.0036    Z=              0.0268  Tot=              0.0416
 Quadrupole moment (field-independent basis, Debye-Ang):
   XX=            -85.6128   YY=            -84.8495   ZZ=            -84.4309
   XY=              0.9765   XZ=             -0.9301   YZ=             -0.0009

 Normal termination of Gaussian 16 at Thu May  6 00:29:44 2021.
