 Gaussian 16, Revision A.03,
 Gaussian 16:  EM64L-G16RevA.03 25-Dec-2016

 -------------
 #p 6-31g* mp2
 -------------

 ------------------------------------------------------
 Input file generated by CHIRIPA (05-May-2021 14:53:11)
 ------------------------------------------------------
 Symbolic Z-matrix:
 Charge =  0 Multiplicity = 1

                         Standard orientation:
 ---------------------------------------------------------------------
 Center     Atomic      Atomic             Coordinates (Angstroms)
 Number     Number       Type             X           Y           Z
 ---------------------------------------------------------------------
      1          6           0        3.144669    0.865682   -0.621150
      2          6           0        2.961906    1.979681    0.410154
      3          6           0        3.029951    3.375843   -0.209439
      4          1           0        4.111250    0.997448   -1.126426
      5          1           0        2.371326    0.962172   -1.395764
      6          1           0        3.734518    1.880290    1.183335
      7          1           0        1.995732    1.845137    0.913167
      8          1           0        2.249369    3.499552   -0.967060
      9          1           0        3.998034    3.534905   -0.695357
     10          1           0        2.896859    4.157013    0.545491
     11          6           0        3.079132   -0.535900   -0.016996
     12          6           0        3.261895   -1.649899   -1.048300
     13          6           0        3.193850   -3.046061   -0.428707
     14          1           0        3.852475   -0.632391    0.757618
     15          1           0        2.112551   -0.667666    0.488280
     16          1           0        4.228068   -1.515355   -1.551313
     17          1           0        2.489283   -1.550508   -1.821480
     18          1           0        2.225767   -3.205123    0.057211
     19          1           0        3.974432   -3.169770    0.328914
     20          1           0        3.326942   -3.827231   -1.183637
     21          6           0       -0.442398   -0.933400    1.577189
     22          6           0       -0.718175    0.435086    1.489350
     23          6           0       -1.817391    0.892239    0.756354
     24          6           0       -2.623439   -0.051038    0.120898
     25          6           0       -2.374832   -1.420986    0.189640
     26          6           0       -1.270147   -1.855442    0.928197
     27          1           0        0.413623   -1.279713    2.148758
     28          1           0       -0.077060    1.153433    1.992335
     29          1           0       -2.053968    1.945946    0.671788
     30          1           0       -3.032112   -2.113074   -0.322626
     31          1           0       -1.058394   -2.918827    0.994677
     32          7           0       -3.790025    0.420917   -0.658036
     33          8           0       -4.484803   -0.430371   -1.208700
     34          8           0       -3.987527    1.633185   -0.703152
 ---------------------------------------------------------------------

 SCF Done:  E(RHF) =  -669.534442401     A.U. after   15 cycles
 E2 =    -0.2094060437D+01 EUMP2 =    -0.67162850283773D+03

 The electronic state is 1-A.
 Alpha  occ. eigenvalues --  -20.60835 -20.60829 -15.85890 -11.31284 -11.27866
 Alpha  occ. eigenvalues --  -11.27859 -11.27589 -11.26875 -11.26854 -11.22333
 Alpha  occ. eigenvalues --  -11.22204 -11.22024 -11.21949 -11.21819 -11.21623
 Alpha  occ. eigenvalues --   -1.59910  -1.39462  -1.19472  -1.09101  -1.08843
 Alpha  occ. eigenvalues --   -1.04874  -1.04187  -0.96626  -0.95690  -0.87643
 Alpha  occ. eigenvalues --   -0.86273  -0.82520  -0.80260  -0.78937  -0.77550
 Alpha  occ. eigenvalues --   -0.72107  -0.71234  -0.70594  -0.65780  -0.65117
 Alpha  occ. eigenvalues --   -0.64821  -0.62260  -0.61548  -0.59995  -0.58254
 Alpha  occ. eigenvalues --   -0.55965  -0.55349  -0.53345  -0.53224  -0.53048
 Alpha  occ. eigenvalues --   -0.52947  -0.50561  -0.48878  -0.48860  -0.48561
 Alpha  occ. eigenvalues --   -0.47279  -0.46462  -0.46349  -0.44862  -0.44423
 Alpha  occ. eigenvalues --   -0.37356  -0.36461
 Alpha virt. eigenvalues --    0.04935   0.10996   0.16287   0.19877   0.22826
 Alpha virt. eigenvalues --    0.22931   0.25812   0.26370   0.26786   0.27571
 Alpha virt. eigenvalues --    0.29460   0.30388   0.31020   0.31175   0.31498

 Mulliken charges:
               1
     1  C   -0.297469
     2  C   -0.303105
     3  C   -0.476407
     4  H    0.152153
     5  H    0.153774
     6  H    0.152026
     7  H    0.144162
     8  H    0.158242
     9  H    0.158104
    10  H    0.160062
    11  C   -0.306030
    12  C   -0.299437
    13  C   -0.475300
    14  H    0.147524
    15  H    0.150066
    16  H    0.154471
    17  H    0.155630
    18  H    0.146341
    19  H    0.155614
    20  H    0.163800
    21  C   -0.172065
    22  C   -0.218040
    23  C   -0.171977
    24  C    0.158609
    25  C   -0.170457
    26  C   -0.220784
    27  H    0.228591
    28  H    0.227197
    29  H    0.276204
    30  H    0.276178
    31  H    0.224515
    32  N    0.488058
    33  O   -0.460135
    34  O   -0.460117
 Sum of Mulliken charges =  -0.00000

 Dipole moment (field-independent basis, Debye):
    X=              4.1195    Y=             -1.6400    Z=              2.6360  Tot=              5.1583
 Quadrupole moment (field-independent basis, Debye-Ang):
   XX=           -115.5677   YY=            -91.2178   ZZ=            -94.5341
   XY=              5.5201   XZ=             -6.6431   YZ=              1.1913

 Normal termination of Gaussian 16 at Thu May  6 04:05:31 2021.
