 Gaussian 16, Revision A.03,
 Gaussian 16:  EM64L-G16RevA.03 25-Dec-2016

 -------------
 #p 6-31g* mp2
 -------------

 ------------------------------------------------------
 Input file generated by CHIRIPA (05-May-2021 14:53:12)
 ------------------------------------------------------
 Symbolic Z-matrix:
 Charge =  0 Multiplicity = 1

                         Standard orientation:
 ---------------------------------------------------------------------
 Center     Atomic      Atomic             Coordinates (Angstroms)
 Number     Number       Type             X           Y           Z
 ---------------------------------------------------------------------
      1          6           0       -5.516471   -0.374291   -0.340810
      2          6           0       -6.504273    0.792648   -0.318766
      3          6           0       -7.763197    0.517115   -1.141557
      4          1           0       -5.236487   -0.589778   -1.381060
      5          1           0       -6.015632   -1.275396    0.041608
      6          1           0       -6.002985    1.691607   -0.699816
      7          1           0       -6.781790    1.005506    0.721567
      8          1           0       -8.288417   -0.363922   -0.758778
      9          1           0       -7.505187    0.326078   -2.188236
     10          1           0       -8.455526    1.364266   -1.111978
     11          6           0       -4.252856   -0.113907    0.477239
     12          6           0       -3.265054   -1.280847    0.455195
     13          6           0       -2.006130   -1.005313    1.277986
     14          1           0       -3.753695    0.787198    0.094821
     15          1           0       -4.532840    0.101579    1.517489
     16          1           0       -2.987536   -1.493704   -0.585138
     17          1           0       -3.766342   -2.179806    0.836245
     18          1           0       -2.264140   -0.814277    2.324665
     19          1           0       -1.480910   -0.124277    0.895207
     20          1           0       -1.313801   -1.852465    1.248407
     21          6           0        6.079408   -0.696428   -0.728981
     22          6           0        4.994245   -1.569974   -0.603044
     23          6           0        3.735674   -1.089523   -0.229265
     24          6           0        3.597339    0.276468    0.012031
     25          6           0        4.659225    1.172008   -0.104995
     26          6           0        5.908735    0.669367   -0.479993
     27          1           0        7.053578   -1.078272   -1.019815
     28          1           0        5.123860   -2.631151   -0.795784
     29          1           0        2.878557   -1.743554   -0.124314
     30          1           0        4.499115    2.224760    0.093744
     31          1           0        6.749703    1.350106   -0.577017
     32          7           0        2.269742    0.796844    0.408380
     33          8           0        2.173961    2.004574    0.615384
     34          8           0        1.350090   -0.012867    0.504527
 ---------------------------------------------------------------------

 SCF Done:  E(RHF) =  -669.535795192     A.U. after   15 cycles
 E2 =    -0.2090792345D+01 EUMP2 =    -0.67162658753659D+03

 The electronic state is 1-A.
 Alpha  occ. eigenvalues --  -20.60905 -20.60891 -15.85934 -11.31273 -11.27838
 Alpha  occ. eigenvalues --  -11.27835 -11.27579 -11.26849 -11.26840 -11.20963
 Alpha  occ. eigenvalues --  -11.20629 -11.20555 -11.20452 -11.20383 -11.19372
 Alpha  occ. eigenvalues --   -1.59967  -1.39522  -1.19443  -1.08845  -1.07545
 Alpha  occ. eigenvalues --   -1.04842  -1.02565  -0.95688  -0.94980  -0.86242
 Alpha  occ. eigenvalues --   -0.85989  -0.82516  -0.78657  -0.77568  -0.77325
 Alpha  occ. eigenvalues --   -0.72156  -0.71282  -0.70552  -0.65099  -0.64845
 Alpha  occ. eigenvalues --   -0.64182  -0.62189  -0.59959  -0.58423  -0.56601
 Alpha  occ. eigenvalues --   -0.55347  -0.54260  -0.53173  -0.52934  -0.51666
 Alpha  occ. eigenvalues --   -0.51410  -0.49166  -0.48913  -0.48654  -0.46938
 Alpha  occ. eigenvalues --   -0.45687  -0.44932  -0.44866  -0.44755  -0.42825
 Alpha  occ. eigenvalues --   -0.37424  -0.36444
 Alpha virt. eigenvalues --    0.04964   0.11211   0.16460   0.21335   0.23699
 Alpha virt. eigenvalues --    0.25305   0.27250   0.27512   0.28133   0.28344
 Alpha virt. eigenvalues --    0.29128   0.30903   0.32269   0.32445   0.32651

 Mulliken charges:
               1
     1  C   -0.297383
     2  C   -0.299125
     3  C   -0.475189
     4  H    0.148026
     5  H    0.147241
     6  H    0.152241
     7  H    0.151229
     8  H    0.153947
     9  H    0.154160
    10  H    0.158618
    11  C   -0.297958
    12  C   -0.300035
    13  C   -0.476712
    14  H    0.152207
    15  H    0.148047
    16  H    0.148595
    17  H    0.145291
    18  H    0.147701
    19  H    0.180016
    20  H    0.155626
    21  C   -0.170652
    22  C   -0.218544
    23  C   -0.170880
    24  C    0.157772
    25  C   -0.170611
    26  C   -0.218594
    27  H    0.225900
    28  H    0.223760
    29  H    0.275810
    30  H    0.275800
    31  H    0.223719
    32  N    0.490820
    33  O   -0.459862
    34  O   -0.460981
 Sum of Mulliken charges =  -0.00000

 Dipole moment (field-independent basis, Debye):
    X=              5.0206    Y=             -1.7310    Z=             -1.4007  Tot=              5.4923
 Quadrupole moment (field-independent basis, Debye-Ang):
   XX=            -62.9745   YY=            -91.6522   ZZ=            -95.4764
   XY=             -3.6120   XZ=             -5.9173   YZ=             -0.3501

 Normal termination of Gaussian 16 at Thu May  6 10:26:46 2021.
