 Gaussian 16, Revision A.03,
 Gaussian 16:  EM64L-G16RevA.03 25-Dec-2016

 -------------
 #p 6-31g* mp2
 -------------

 ------------------------------------------------------
 Input file generated by CHIRIPA (05-May-2021 14:55:22)
 ------------------------------------------------------
 Symbolic Z-matrix:
 Charge =  0 Multiplicity = 1

                         Standard orientation:
 ---------------------------------------------------------------------
 Center     Atomic      Atomic             Coordinates (Angstroms)
 Number     Number       Type             X           Y           Z
 ---------------------------------------------------------------------
      1          6           0        4.342616    0.977933    0.619287
      2          6           0        3.169210    1.062808    1.375883
      3          6           0        2.090576    0.213760    1.110907
      4          6           0        2.220204   -0.712603    0.077302
      5          6           0        3.376138   -0.821497   -0.694222
      6          6           0        4.442159    0.037709   -0.411533
      7          1           0        5.175626    1.641439    0.832007
      8          1           0        3.089088    1.792036    2.177040
      9          1           0        1.170554    0.257999    1.681012
     10          1           0        3.426332   -1.558569   -1.486449
     11          1           0        5.352224   -0.030457   -1.000753
     12          7           0        1.084979   -1.616829   -0.212592
     13          8           0        1.224237   -2.424394   -1.128606
     14          8           0        0.077427   -1.500874    0.481692
     15          6           0       -2.509910    1.190852    0.030906
     16          6           0       -1.766894    1.764151   -1.176255
     17          6           0       -0.626493    2.701504   -0.777948
     18          1           0       -2.907160    2.017672    0.635476
     19          1           0       -1.796648    0.651386    0.669365
     20          1           0       -2.481599    2.301199   -1.812960
     21          1           0       -1.371531    0.935866   -1.778125
     22          1           0        0.108339    2.173862   -0.161329
     23          1           0       -1.008037    3.546953   -0.196363
     24          1           0       -0.108941    3.099886   -1.656180
     25          6           0       -3.652786    0.251902   -0.351113
     26          6           0       -4.395802   -0.321398    0.856050
     27          6           0       -5.536203   -1.258750    0.457742
     28          1           0       -4.366048    0.791367   -0.989571
     29          1           0       -3.255535   -0.574919   -0.955682
     30          1           0       -4.791165    0.506888    1.457918
     31          1           0       -3.681098   -0.858445    1.492754
     32          1           0       -5.154659   -2.104199   -0.123843
     33          1           0       -6.271035   -0.731107   -0.158877
     34          1           0       -6.053755   -1.657132    1.335974
 ---------------------------------------------------------------------

 SCF Done:  E(RHF) =  -669.536221977     A.U. after   15 cycles
 E2 =    -0.2093021562D+01 EUMP2 =    -0.67162924353831D+03

 The electronic state is 1-A.
 Alpha  occ. eigenvalues --  -20.61028 -20.61022 -15.86053 -11.31345 -11.27905
 Alpha  occ. eigenvalues --  -11.27894 -11.27621 -11.26903 -11.26892 -11.21001
 Alpha  occ. eigenvalues --  -11.20792 -11.20694 -11.20498 -11.20403 -11.20261
 Alpha  occ. eigenvalues --   -1.60084  -1.39641  -1.19511  -1.08915  -1.07603
 Alpha  occ. eigenvalues --   -1.04904  -1.02835  -0.95765  -0.95293  -0.86342
 Alpha  occ. eigenvalues --   -0.86284  -0.82601  -0.78902  -0.77687  -0.77376
 Alpha  occ. eigenvalues --   -0.72283  -0.71400  -0.70617  -0.65172  -0.64903
 Alpha  occ. eigenvalues --   -0.64183  -0.62255  -0.60226  -0.58685  -0.56913
 Alpha  occ. eigenvalues --   -0.55402  -0.54618  -0.53209  -0.52989  -0.52036
 Alpha  occ. eigenvalues --   -0.51733  -0.49270  -0.49029  -0.49009  -0.47234
 Alpha  occ. eigenvalues --   -0.45921  -0.45227  -0.44910  -0.44632  -0.43038
 Alpha  occ. eigenvalues --   -0.37471  -0.36468
 Alpha virt. eigenvalues --    0.04818   0.11082   0.16306   0.20937   0.23472
 Alpha virt. eigenvalues --    0.24724   0.26270   0.27483   0.27980   0.28600
 Alpha virt. eigenvalues --    0.29104   0.30950   0.31614   0.32237   0.32405

 Mulliken charges:
               1
     1  C   -0.170180
     2  C   -0.218557
     3  C   -0.171135
     4  C    0.158913
     5  C   -0.170699
     6  C   -0.218148
     7  H    0.226408
     8  H    0.224879
     9  H    0.277064
    10  H    0.275923
    11  H    0.224105
    12  N    0.489760
    13  O   -0.458609
    14  O   -0.462519
    15  C   -0.304596
    16  C   -0.299447
    17  C   -0.478307
    18  H    0.141998
    19  H    0.164657
    20  H    0.149670
    21  H    0.155808
    22  H    0.150156
    23  H    0.152170
    24  H    0.157873
    25  C   -0.297784
    26  C   -0.300626
    27  C   -0.475818
    28  H    0.144017
    29  H    0.159635
    30  H    0.146315
    31  H    0.159153
    32  H    0.158703
    33  H    0.151863
    34  H    0.157355
 Sum of Mulliken charges =  -0.00000

 Dipole moment (field-independent basis, Debye):
    X=              4.2287    Y=              2.9461    Z=              1.0265  Tot=              5.2551
 Quadrupole moment (field-independent basis, Debye-Ang):
   XX=            -76.8125   YY=            -99.3697   ZZ=            -92.2844
   XY=              2.4529   XZ=              0.3919   YZ=              1.4190

 Normal termination of Gaussian 16 at Wed May  5 20:38:15 2021.
