 Gaussian 16, Revision A.03,
 Gaussian 16:  EM64L-G16RevA.03 25-Dec-2016

 -------------
 #p 6-31g* mp2
 -------------

 ------------------------------------------------------
 Input file generated by CHIRIPA (05-May-2021 14:55:19)
 ------------------------------------------------------
 Symbolic Z-matrix:
 Charge =  0 Multiplicity = 1

                         Standard orientation:
 ---------------------------------------------------------------------
 Center     Atomic      Atomic             Coordinates (Angstroms)
 Number     Number       Type             X           Y           Z
 ---------------------------------------------------------------------
      1          6           0        4.326448   -1.833432   -0.022137
      2          6           0        5.031868   -0.644105    0.188589
      3          6           0        4.367125    0.585795    0.185269
      4          6           0        2.990288    0.589551   -0.032895
      5          6           0        2.259559   -0.578341   -0.245856
      6          6           0        2.944981   -1.796819   -0.238306
      7          1           0        4.850868   -2.784412   -0.017916
      8          1           0        6.104774   -0.669513    0.356726
      9          1           0        4.888618    1.521589    0.345750
     10          1           0        1.190468   -0.521123   -0.410746
     11          1           0        2.394562   -2.718888   -0.402237
     12          7           0        2.275609    1.885546   -0.038648
     13          8           0        1.062246    1.861931   -0.233145
     14          8           0        2.942340    2.900421    0.151448
     15          6           0       -3.626182   -1.155845    0.106499
     16          6           0       -2.104293   -1.058796   -0.004959
     17          6           0       -1.414019   -2.416574    0.128286
     18          1           0       -3.888578   -1.608967    1.072300
     19          1           0       -4.001074   -1.836608   -0.670297
     20          1           0       -1.732515   -0.377340    0.770937
     21          1           0       -1.845495   -0.605676   -0.970527
     22          1           0       -1.756754   -3.101408   -0.654105
     23          1           0       -1.643133   -2.871775    1.097254
     24          1           0       -0.326615   -2.323956    0.045596
     25          6           0       -4.330493    0.193398   -0.024717
     26          6           0       -5.852381    0.096349    0.086742
     27          6           0       -6.542655    1.454127   -0.046503
     28          1           0       -3.955600    0.874160    0.752080
     29          1           0       -4.068096    0.646520   -0.990518
     30          1           0       -6.111179   -0.356771    1.052310
     31          1           0       -6.224159   -0.585107   -0.689155
     32          1           0       -6.313541    1.909327   -1.015471
     33          1           0       -6.199920    2.138960    0.735888
     34          1           0       -7.630059    1.361509    0.036187
 ---------------------------------------------------------------------

 SCF Done:  E(RHF) =  -669.535342102     A.U. after   15 cycles
 E2 =    -0.2091774794D+01 EUMP2 =    -0.67162711689627D+03

 The electronic state is 1-A.
 Alpha  occ. eigenvalues --  -20.60753 -20.60748 -15.85802 -11.31154 -11.27734
 Alpha  occ. eigenvalues --  -11.27694 -11.27478 -11.26750 -11.26731 -11.21655
 Alpha  occ. eigenvalues --  -11.21589 -11.21395 -11.21351 -11.21125 -11.20813
 Alpha  occ. eigenvalues --   -1.59827  -1.39380  -1.19333  -1.08731  -1.08348
 Alpha  occ. eigenvalues --   -1.04741  -1.03533  -0.96019  -0.95564  -0.87028
 Alpha  occ. eigenvalues --   -0.86134  -0.82402  -0.79573  -0.78109  -0.77450
 Alpha  occ. eigenvalues --   -0.72022  -0.71149  -0.70455  -0.64992  -0.64968
 Alpha  occ. eigenvalues --   -0.64745  -0.62193  -0.60914  -0.59372  -0.57597
 Alpha  occ. eigenvalues --   -0.55281  -0.55231  -0.53076  -0.52851  -0.52724
 Alpha  occ. eigenvalues --   -0.52400  -0.49916  -0.48784  -0.48780  -0.47887
 Alpha  occ. eigenvalues --   -0.46577  -0.45660  -0.45557  -0.44786  -0.43777
 Alpha  occ. eigenvalues --   -0.37317  -0.36335
 Alpha virt. eigenvalues --    0.05070   0.11310   0.16542   0.19939   0.23060
 Alpha virt. eigenvalues --    0.23954   0.26174   0.26783   0.27073   0.28046
 Alpha virt. eigenvalues --    0.28882   0.30147   0.31425   0.31646   0.32824

 Mulliken charges:
               1
     1  C   -0.170498
     2  C   -0.219004
     3  C   -0.170400
     4  C    0.158483
     5  C   -0.178235
     6  C   -0.222041
     7  H    0.225615
     8  H    0.223379
     9  H    0.275441
    10  H    0.285489
    11  H    0.225164
    12  N    0.487905
    13  O   -0.460843
    14  O   -0.460507
    15  C   -0.299215
    16  C   -0.303583
    17  C   -0.479079
    18  H    0.148999
    19  H    0.148140
    20  H    0.161693
    21  H    0.156203
    22  H    0.156595
    23  H    0.158694
    24  H    0.145769
    25  C   -0.298990
    26  C   -0.299854
    27  C   -0.475770
    28  H    0.154048
    29  H    0.152705
    30  H    0.150920
    31  H    0.150565
    32  H    0.156244
    33  H    0.156779
    34  H    0.159187
 Sum of Mulliken charges =  -0.00000

 Dipole moment (field-independent basis, Debye):
    X=              2.4111    Y=             -4.4554    Z=              0.0400  Tot=              5.0662
 Quadrupole moment (field-independent basis, Debye-Ang):
   XX=            -76.3065   YY=           -100.5532   ZZ=            -94.4339
   XY=             -9.6144   XZ=              0.8560   YZ=              0.8377

 Normal termination of Gaussian 16 at Wed May  5 22:07:45 2021.
