 Gaussian 16, Revision A.03,
 Gaussian 16:  EM64L-G16RevA.03 25-Dec-2016

 -------------
 #p 6-31g* mp2
 -------------

 ------------------------------------------------------
 Input file generated by CHIRIPA (05-May-2021 14:53:18)
 ------------------------------------------------------
 Symbolic Z-matrix:
 Charge =  0 Multiplicity = 1

                         Standard orientation:
 ---------------------------------------------------------------------
 Center     Atomic      Atomic             Coordinates (Angstroms)
 Number     Number       Type             X           Y           Z
 ---------------------------------------------------------------------
      1          6           0        3.561804    0.736752   -0.135801
      2          6           0        2.535817    1.246668    0.876781
      3          6           0        1.882294    2.560068    0.445872
      4          1           0        4.335847    1.502666   -0.281324
      5          1           0        3.069893    0.600658   -1.108888
      6          1           0        3.029203    1.380443    1.848012
      7          1           0        1.764230    0.479373    1.020053
      8          1           0        1.364902    2.437124   -0.511097
      9          1           0        2.637063    3.343313    0.321566
     10          1           0        1.152342    2.906440    1.184152
     11          6           0        4.223764   -0.575453    0.280916
     12          6           0        5.249751   -1.085369   -0.731666
     13          6           0        5.903274   -2.398769   -0.300757
     14          1           0        4.715675   -0.439359    1.254003
     15          1           0        3.449720   -1.341367    0.426439
     16          1           0        6.021338   -0.318074   -0.874939
     17          1           0        4.756365   -1.219143   -1.702897
     18          1           0        5.148505   -3.182014   -0.176451
     19          1           0        6.420666   -2.275825    0.656212
     20          1           0        6.633226   -2.745141   -1.039037
     21          6           0       -4.401712   -2.151826    0.333015
     22          6           0       -4.425184   -1.524183   -0.916798
     23          6           0       -3.675338   -0.366323   -1.144038
     24          6           0       -2.909712    0.138931   -0.094360
     25          6           0       -2.865552   -0.463524    1.161978
     26          6           0       -3.623343   -1.620431    1.366592
     27          1           0       -4.987297   -3.050910    0.500753
     28          1           0       -5.028761   -1.934635   -1.721327
     29          1           0       -3.675178    0.139767   -2.101792
     30          1           0       -2.254245   -0.030793    1.944579
     31          1           0       -3.603193   -2.105751    2.338242
     32          7           0       -2.111678    1.364202   -0.322953
     33          8           0       -1.445291    1.789430    0.618189
     34          8           0       -2.167676    1.876141   -1.438938
 ---------------------------------------------------------------------

 SCF Done:  E(RHF) =  -669.535735200     A.U. after   15 cycles
 E2 =    -0.2091418497D+01 EUMP2 =    -0.67162715369718D+03

 The electronic state is 1-A.
 Alpha  occ. eigenvalues --  -20.60944 -20.60933 -15.85970 -11.31301 -11.27864
 Alpha  occ. eigenvalues --  -11.27861 -11.27602 -11.26873 -11.26863 -11.21159
 Alpha  occ. eigenvalues --  -11.20813 -11.20754 -11.20554 -11.20467 -11.19323
 Alpha  occ. eigenvalues --   -1.60000  -1.39556  -1.19470  -1.08872  -1.07691
 Alpha  occ. eigenvalues --   -1.04866  -1.02665  -0.95719  -0.95074  -0.86269
 Alpha  occ. eigenvalues --   -0.86091  -0.82546  -0.78783  -0.77600  -0.77459
 Alpha  occ. eigenvalues --   -0.72198  -0.71318  -0.70577  -0.65126  -0.64869
 Alpha  occ. eigenvalues --   -0.64334  -0.62213  -0.60069  -0.58533  -0.56670
 Alpha  occ. eigenvalues --   -0.55372  -0.54384  -0.53197  -0.52958  -0.51735
 Alpha  occ. eigenvalues --   -0.51510  -0.49236  -0.48947  -0.48729  -0.47066
 Alpha  occ. eigenvalues --   -0.45841  -0.45015  -0.44920  -0.44900  -0.42897
 Alpha  occ. eigenvalues --   -0.37448  -0.36468
 Alpha virt. eigenvalues --    0.04912   0.11184   0.16399   0.21298   0.23518
 Alpha virt. eigenvalues --    0.25213   0.27144   0.27354   0.28007   0.28328
 Alpha virt. eigenvalues --    0.29042   0.30866   0.32023   0.32357   0.32615

 Mulliken charges:
               1
     1  C   -0.297692
     2  C   -0.299941
     3  C   -0.470635
     4  H    0.148271
     5  H    0.149271
     6  H    0.145806
     7  H    0.148562
     8  H    0.162784
     9  H    0.143629
    10  H    0.173071
    11  C   -0.296989
    12  C   -0.298970
    13  C   -0.475102
    14  H    0.147838
    15  H    0.146291
    16  H    0.151804
    17  H    0.151278
    18  H    0.153276
    19  H    0.154416
    20  H    0.158837
    21  C   -0.170633
    22  C   -0.218571
    23  C   -0.170734
    24  C    0.157943
    25  C   -0.171055
    26  C   -0.218520
    27  H    0.226036
    28  H    0.223840
    29  H    0.275846
    30  H    0.275803
    31  H    0.223926
    32  N    0.489916
    33  O   -0.459878
    34  O   -0.459724
 Sum of Mulliken charges =  -0.00000

 Dipole moment (field-independent basis, Debye):
    X=             -3.1370    Y=             -4.2242    Z=              0.7917  Tot=              5.3209
 Quadrupole moment (field-independent basis, Debye-Ang):
   XX=            -79.3119   YY=            -97.2753   ZZ=            -90.3800
   XY=             13.3787   XZ=             -0.1199   YZ=              0.6870

 Normal termination of Gaussian 16 at Thu May  6 14:00:14 2021.
