 Gaussian 16, Revision A.03,
 Gaussian 16:  EM64L-G16RevA.03 25-Dec-2016

 -------------
 #p 6-31g* mp2
 -------------

 ------------------------------------------------------
 Input file generated by CHIRIPA (05-May-2021 14:53:13)
 ------------------------------------------------------
 Symbolic Z-matrix:
 Charge =  0 Multiplicity = 1

                         Standard orientation:
 ---------------------------------------------------------------------
 Center     Atomic      Atomic             Coordinates (Angstroms)
 Number     Number       Type             X           Y           Z
 ---------------------------------------------------------------------
      1          6           0       -4.007920    0.995767    0.342591
      2          6           0       -2.954786    1.752914   -0.467113
      3          6           0       -2.565920    3.087287    0.170089
      4          1           0       -4.901130    1.626177    0.450782
      5          1           0       -3.624187    0.820626    1.357218
      6          1           0       -3.339841    1.925361   -1.480331
      7          1           0       -2.064051    1.120554   -0.573553
      8          1           0       -2.157213    2.930415    1.173559
      9          1           0       -3.440252    3.739795    0.261628
     10          1           0       -1.811972    3.611822   -0.425129
     11          6           0       -4.406983   -0.340188   -0.281669
     12          6           0       -5.460118   -1.097335    0.528034
     13          6           0       -5.848983   -2.431708   -0.109168
     14          1           0       -4.790716   -0.165047   -1.296297
     15          1           0       -3.513774   -0.970598   -0.389861
     16          1           0       -6.350852   -0.464975    0.634474
     17          1           0       -5.075062   -1.269782    1.541252
     18          1           0       -4.974652   -3.084216   -0.200707
     19          1           0       -6.257690   -2.274836   -1.112638
     20          1           0       -6.602932   -2.956242    0.486050
     21          6           0        0.777349   -0.418814   -0.225626
     22          6           0        1.397620    0.834601   -0.198472
     23          6           0        2.787466    0.936739   -0.086927
     24          6           0        3.529703   -0.240353   -0.004285
     25          6           0        2.941021   -1.503742   -0.028674
     26          6           0        1.549668   -1.581934   -0.140790
     27          1           0       -0.302903   -0.488857   -0.312499
     28          1           0        0.800347    1.739582   -0.264183
     29          1           0        3.293521    1.894225   -0.063553
     30          1           0        3.562964   -2.388089    0.038664
     31          1           0        1.070668   -2.556700   -0.161632
     32          7           0        5.001868   -0.144900    0.114104
     33          8           0        5.633363   -1.196933    0.185363
     34          8           0        5.496382    0.980143    0.133397
 ---------------------------------------------------------------------

 SCF Done:  E(RHF) =  -669.535395441     A.U. after   15 cycles
 E2 =    -0.2091589300D+01 EUMP2 =    -0.67162698474140D+03

 The electronic state is 1-A.
 Alpha  occ. eigenvalues --  -20.60735 -20.60730 -15.85788 -11.31150 -11.27720
 Alpha  occ. eigenvalues --  -11.27714 -11.27444 -11.26736 -11.26712 -11.22875
 Alpha  occ. eigenvalues --  -11.22439 -11.22402 -11.22350 -11.22200 -11.21771
 Alpha  occ. eigenvalues --   -1.59811  -1.39364  -1.19322  -1.09455  -1.08718
 Alpha  occ. eigenvalues --   -1.04725  -1.04517  -0.96944  -0.95556  -0.87959
 Alpha  occ. eigenvalues --   -0.86122  -0.82390  -0.80597  -0.79251  -0.77433
 Alpha  occ. eigenvalues --   -0.72007  -0.71134  -0.70465  -0.66103  -0.64974
 Alpha  occ. eigenvalues --   -0.64728  -0.62121  -0.61864  -0.60325  -0.58552
 Alpha  occ. eigenvalues --   -0.56221  -0.55261  -0.53637  -0.53359  -0.53055
 Alpha  occ. eigenvalues --   -0.52806  -0.50882  -0.48895  -0.48764  -0.48761
 Alpha  occ. eigenvalues --   -0.47635  -0.46790  -0.46692  -0.44773  -0.44770
 Alpha  occ. eigenvalues --   -0.37302  -0.36329
 Alpha virt. eigenvalues --    0.05101   0.11321   0.16594   0.18255   0.22236
 Alpha virt. eigenvalues --    0.23246   0.24416   0.25810   0.26285   0.28342
 Alpha virt. eigenvalues --    0.29491   0.30166   0.30870   0.31216   0.32108

 Mulliken charges:
               1
     1  C   -0.299309
     2  C   -0.304615
     3  C   -0.478413
     4  H    0.154540
     5  H    0.150776
     6  H    0.157586
     7  H    0.142194
     8  H    0.156868
     9  H    0.161702
    10  H    0.158876
    11  C   -0.298091
    12  C   -0.300509
    13  C   -0.475968
    14  H    0.152644
    15  H    0.141951
    16  H    0.154778
    17  H    0.152912
    18  H    0.153741
    19  H    0.156716
    20  H    0.163142
    21  C   -0.176417
    22  C   -0.222811
    23  C   -0.170985
    24  C    0.158342
    25  C   -0.170828
    26  C   -0.218842
    27  H    0.231901
    28  H    0.226680
    29  H    0.275613
    30  H    0.275409
    31  H    0.223415
    32  N    0.488024
    33  O   -0.460528
    34  O   -0.460494
 Sum of Mulliken charges =  -0.00000

 Dipole moment (field-independent basis, Debye):
    X=             -5.4799    Y=             -0.2668    Z=             -0.3905  Tot=              5.5003
 Quadrupole moment (field-independent basis, Debye-Ang):
   XX=           -130.2765   YY=            -89.9929   ZZ=            -95.4679
   XY=             -1.2754   XZ=             -1.2451   YZ=             -0.6048

 Normal termination of Gaussian 16 at Wed May  5 15:33:31 2021.
