 Gaussian 16, Revision A.03,
 Gaussian 16:  EM64L-G16RevA.03 25-Dec-2016

 -------------
 #p 6-31g* mp2
 -------------

 ------------------------------------------------------
 Input file generated by CHIRIPA (05-May-2021 14:53:16)
 ------------------------------------------------------
 Symbolic Z-matrix:
 Charge =  0 Multiplicity = 1

                         Standard orientation:
 ---------------------------------------------------------------------
 Center     Atomic      Atomic             Coordinates (Angstroms)
 Number     Number       Type             X           Y           Z
 ---------------------------------------------------------------------
      1          6           0        4.065616   -0.406601   -0.152349
      2          6           0        4.993703   -1.284137    0.688228
      3          6           0        5.006650   -2.741951    0.227353
      4          1           0        3.046741   -0.815260   -0.109485
      5          1           0        4.378490   -0.456734   -1.204486
      6          1           0        4.680019   -1.231271    1.738668
      7          1           0        6.010449   -0.873231    0.643513
      8          1           0        5.340679   -2.814209   -0.812745
      9          1           0        4.002690   -3.174283    0.288632
     10          1           0        5.676551   -3.351361    0.841935
     11          6           0        4.041885    1.053530    0.296184
     12          6           0        3.113798    1.931067   -0.544393
     13          6           0        3.100851    3.388880   -0.083518
     14          1           0        3.729011    1.103664    1.348320
     15          1           0        5.060759    1.462190    0.253319
     16          1           0        2.097051    1.520161   -0.499678
     17          1           0        3.427481    1.878201   -1.594833
     18          1           0        4.104810    3.821213   -0.144797
     19          1           0        2.766821    3.461139    0.956580
     20          1           0        2.430950    3.998291   -0.698100
     21          6           0       -0.839523   -1.070013   -0.586108
     22          6           0       -1.066931    0.289619   -0.349035
     23          6           0       -2.352402    0.753703   -0.054521
     24          6           0       -3.392003   -0.173692   -0.004955
     25          6           0       -3.197337   -1.534510   -0.236409
     26          6           0       -1.903576   -1.976142   -0.529139
     27          1           0        0.162282   -1.421804   -0.814201
     28          1           0       -0.242474    0.995605   -0.392613
     29          1           0       -2.556607    1.800832    0.133202
     30          1           0       -4.039215   -2.214299   -0.185958
     31          1           0       -1.729917   -3.032622   -0.712815
     32          7           0       -4.757262    0.305727    0.305891
     33          8           0       -5.656252   -0.531549    0.343639
     34          8           0       -4.902512    1.509695    0.505896
 ---------------------------------------------------------------------

 SCF Done:  E(RHF) =  -669.535526791     A.U. after   15 cycles
 E2 =    -0.2091438558D+01 EUMP2 =    -0.67162696534878D+03

 The electronic state is 1-A.
 Alpha  occ. eigenvalues --  -20.60741 -20.60736 -15.85794 -11.31158 -11.27728
 Alpha  occ. eigenvalues --  -11.27721 -11.27465 -11.26744 -11.26717 -11.22717
 Alpha  occ. eigenvalues --  -11.22440 -11.22383 -11.22306 -11.21935 -11.21842
 Alpha  occ. eigenvalues --   -1.59817  -1.39370  -1.19330  -1.09388  -1.08725
 Alpha  occ. eigenvalues --   -1.04734  -1.04438  -0.96863  -0.95560  -0.87877
 Alpha  occ. eigenvalues --   -0.86135  -0.82394  -0.80513  -0.79217  -0.77441
 Alpha  occ. eigenvalues --   -0.72013  -0.71140  -0.70439  -0.66049  -0.64981
 Alpha  occ. eigenvalues --   -0.64739  -0.62156  -0.61766  -0.60233  -0.58483
 Alpha  occ. eigenvalues --   -0.56152  -0.55229  -0.53543  -0.53285  -0.53063
 Alpha  occ. eigenvalues --   -0.52842  -0.50798  -0.48851  -0.48768  -0.48736
 Alpha  occ. eigenvalues --   -0.47541  -0.46760  -0.46652  -0.44776  -0.44699
 Alpha  occ. eigenvalues --   -0.37311  -0.36337
 Alpha virt. eigenvalues --    0.05092   0.11310   0.16575   0.18320   0.22608
 Alpha virt. eigenvalues --    0.22883   0.24781   0.26223   0.26272   0.27507
 Alpha virt. eigenvalues --    0.29337   0.30451   0.30862   0.31215   0.31709

 Mulliken charges:
               1
     1  C   -0.298835
     2  C   -0.300430
     3  C   -0.475761
     4  H    0.140817
     5  H    0.151614
     6  H    0.154090
     7  H    0.155162
     8  H    0.156247
     9  H    0.151782
    10  H    0.163730
    11  C   -0.298558
    12  C   -0.305312
    13  C   -0.476749
    14  H    0.152016
    15  H    0.154219
    16  H    0.142883
    17  H    0.155702
    18  H    0.159725
    19  H    0.157094
    20  H    0.161589
    21  C   -0.176188
    22  C   -0.226796
    23  C   -0.172510
    24  C    0.159005
    25  C   -0.171129
    26  C   -0.218838
    27  H    0.228357
    28  H    0.234913
    29  H    0.276229
    30  H    0.275477
    31  H    0.223510
    32  N    0.487917
    33  O   -0.460555
    34  O   -0.460419
 Sum of Mulliken charges =  -0.00000

 Dipole moment (field-independent basis, Debye):
    X=              5.0826    Y=             -1.6272    Z=             -1.0610  Tot=              5.4412
 Quadrupole moment (field-independent basis, Debye-Ang):
   XX=           -125.5335   YY=            -90.5969   ZZ=            -95.2113
   XY=              7.3122   XZ=              3.5137   YZ=              0.2436

 Normal termination of Gaussian 16 at Wed May  5 17:12:08 2021.
