 Gaussian 16, Revision A.03,
 Gaussian 16:  EM64L-G16RevA.03 25-Dec-2016

 -------------
 #p 6-31g* mp2
 -------------

 ------------------------------------------------------
 Input file generated by CHIRIPA (05-May-2021 14:51:13)
 ------------------------------------------------------
 Symbolic Z-matrix:
 Charge =  0 Multiplicity = 1

                         Standard orientation:
 ---------------------------------------------------------------------
 Center     Atomic      Atomic             Coordinates (Angstroms)
 Number     Number       Type             X           Y           Z
 ---------------------------------------------------------------------
      1          6           0       -3.717974   -0.385200   -0.121670
      2          6           0       -5.137696   -0.936124   -0.259002
      3          6           0       -5.177078   -2.463914   -0.304815
      4          1           0       -3.109276   -0.744042   -0.962898
      5          1           0       -3.260879   -0.792225    0.790903
      6          1           0       -5.592468   -0.527094   -1.170315
      7          1           0       -5.743135   -0.575772    0.582548
      8          1           0       -4.748140   -2.887907    0.608883
      9          1           0       -4.596617   -2.838951   -1.153940
     10          1           0       -6.201519   -2.836335   -0.403213
     11          6           0       -3.662203    1.140707   -0.074500
     12          6           0       -2.242482    1.691631    0.062831
     13          6           0       -2.203100    3.219421    0.108645
     14          1           0       -4.119298    1.547732   -0.987073
     15          1           0       -4.270901    1.499549    0.766727
     16          1           0       -1.637042    1.331280   -0.778718
     17          1           0       -1.787709    1.282601    0.974145
     18          1           0       -2.783561    3.594459    0.957770
     19          1           0       -2.632038    3.643414   -0.805053
     20          1           0       -1.178658    3.591843    0.207043
     21          6           0        4.418272   -0.599537    0.161277
     22          6           0        5.401052    0.339317   -0.539212
     23          6           0        6.853843   -0.117720   -0.403898
     24          1           0        4.684092   -0.671101    1.224838
     25          1           0        4.526153   -1.610068   -0.256552
     26          1           0        5.290380    1.348073   -0.121147
     27          1           0        5.132746    0.408805   -1.601191
     28          1           0        6.986336   -1.113930   -0.838194
     29          1           0        7.144864   -0.169325    0.650259
     30          1           0        7.539328    0.567758   -0.911925
     31          6           0        2.961905   -0.155971    0.034893
     32          6           0        1.979125   -1.094824    0.735382
     33          6           0        0.526334   -0.637787    0.600068
     34          1           0        2.854024    0.854561    0.452723
     35          1           0        2.696086   -0.084406   -1.028668
     36          1           0        2.247431   -1.164312    1.797360
     37          1           0        2.089797   -2.103580    0.317318
     38          1           0        0.235313   -0.586183   -0.454088
     39          1           0        0.393843    0.358422    1.034365
     40          1           0       -0.159150   -1.323265    1.108095
 ---------------------------------------------------------------------

 SCF Done:  E(RHF) =  -470.732207228     A.U. after   11 cycles
 E2 =    -0.1583413995D+01 EUMP2 =    -0.47231562122293D+03

 The electronic state is 1-A.
 Alpha  occ. eigenvalues --  -11.21593 -11.21559 -11.21537 -11.21431 -11.21387
 Alpha  occ. eigenvalues --  -11.21330 -11.21328 -11.21267 -11.21065 -11.21044
 Alpha  occ. eigenvalues --  -11.21002 -11.20963  -1.08415  -1.08349  -1.03531
 Alpha  occ. eigenvalues --   -1.03432  -0.95960  -0.95912  -0.87023  -0.86892
 Alpha  occ. eigenvalues --   -0.79748  -0.79387  -0.78288  -0.78059  -0.65069
 Alpha  occ. eigenvalues --   -0.64967  -0.60988  -0.60784  -0.59326  -0.59305
 Alpha  occ. eigenvalues --   -0.57677  -0.57417  -0.55272  -0.55179  -0.52743
 Alpha  occ. eigenvalues --   -0.52564  -0.52465  -0.52244  -0.49997  -0.49789
 Alpha  occ. eigenvalues --   -0.48187  -0.47542  -0.46758  -0.46409  -0.45923
 Alpha  occ. eigenvalues --   -0.45738  -0.45540  -0.45432  -0.43751  -0.43688
 Alpha virt. eigenvalues --    0.21991   0.23046   0.23878   0.24642   0.25480
 Alpha virt. eigenvalues --    0.25967   0.26795   0.27473   0.27886   0.29574
 Alpha virt. eigenvalues --    0.30303   0.30966   0.31770   0.31810   0.32282

 Mulliken charges:
               1
     1  C   -0.298678
     2  C   -0.299615
     3  C   -0.475558
     4  H    0.149644
     5  H    0.150284
     6  H    0.151768
     7  H    0.151771
     8  H    0.154945
     9  H    0.155053
    10  H    0.160085
    11  C   -0.298201
    12  C   -0.302209
    13  C   -0.475986
    14  H    0.148750
    15  H    0.148881
    16  H    0.153858
    17  H    0.156611
    18  H    0.154571
    19  H    0.154768
    20  H    0.159415
    21  C   -0.298154
    22  C   -0.299604
    23  C   -0.475687
    24  H    0.149590
    25  H    0.149508
    26  H    0.151854
    27  H    0.151851
    28  H    0.155167
    29  H    0.155161
    30  H    0.160205
    31  C   -0.298117
    32  C   -0.301078
    33  C   -0.475409
    34  H    0.149255
    35  H    0.149251
    36  H    0.151288
    37  H    0.151377
    38  H    0.155707
    39  H    0.157773
    40  H    0.159902
 Sum of Mulliken charges =  -0.00000

 Dipole moment (field-independent basis, Debye):
    X=              0.0035    Y=             -0.0043    Z=              0.0057  Tot=              0.0080
 Quadrupole moment (field-independent basis, Debye-Ang):
   XX=            -86.2964   YY=            -85.8965   ZZ=            -82.9758
   XY=              0.1305   XZ=             -0.0604   YZ=              0.4236

 Normal termination of Gaussian 16 at Wed May  5 19:59:46 2021.
