 Gaussian 16, Revision A.03,
 Gaussian 16:  EM64L-G16RevA.03 25-Dec-2016

 -------------
 #p 6-31g* mp2
 -------------

 ------------------------------------------------------
 Input file generated by CHIRIPA (05-May-2021 14:51:09)
 ------------------------------------------------------
 Symbolic Z-matrix:
 Charge =  0 Multiplicity = 1

                         Standard orientation:
 ---------------------------------------------------------------------
 Center     Atomic      Atomic             Coordinates (Angstroms)
 Number     Number       Type             X           Y           Z
 ---------------------------------------------------------------------
      1          6           0       -2.311012    1.268016    0.065418
      2          6           0       -1.395911    1.831978    1.152855
      3          6           0       -1.570338    3.338169    1.349725
      4          1           0       -2.109578    1.788677   -0.880775
      5          1           0       -3.355996    1.486108    0.325880
      6          1           0       -0.353043    1.611675    0.891112
      7          1           0       -1.599413    1.309781    2.096525
      8          1           0       -2.601026    3.572599    1.634900
      9          1           0       -1.347575    3.876209    0.422638
     10          1           0       -0.906702    3.720363    2.131629
     11          6           0       -2.148238   -0.236562   -0.143097
     12          6           0       -3.063340   -0.800524   -1.230534
     13          6           0       -2.888912   -2.306715   -1.427403
     14          1           0       -1.103255   -0.454655   -0.403559
     15          1           0       -2.349672   -0.757223    0.803097
     16          1           0       -2.859838   -0.278328   -2.174204
     17          1           0       -4.106207   -0.580222   -0.968791
     18          1           0       -3.111676   -2.844755   -0.500316
     19          1           0       -1.858224   -2.541146   -1.712579
     20          1           0       -3.552548   -2.688910   -2.209308
     21          6           0        1.921469   -0.841801    0.657020
     22          6           0        1.760473   -2.356771    0.526885
     23          6           0        1.142677   -2.994678    1.771551
     24          1           0        2.546139   -0.619758    1.533050
     25          1           0        0.938481   -0.390997    0.851710
     26          1           0        2.743267   -2.804441    0.331123
     27          1           0        1.136272   -2.575240   -0.349048
     28          1           0        0.150424   -2.575423    1.967150
     29          1           0        1.766549   -2.805927    2.651186
     30          1           0        1.036690   -4.077954    1.656923
     31          6           0        2.537781   -0.189652   -0.579341
     32          6           0        2.698777    1.325317   -0.449206
     33          6           0        3.316573    1.963225   -1.693873
     34          1           0        3.520770   -0.640456   -0.774031
     35          1           0        1.913112   -0.411695   -1.455371
     36          1           0        3.322978    1.543787    0.426727
     37          1           0        1.715983    1.772987   -0.253444
     38          1           0        2.692702    1.774473   -2.573507
     39          1           0        4.308828    1.543970   -1.889472
     40          1           0        3.422561    3.046501   -1.579244
 ---------------------------------------------------------------------

 SCF Done:  E(RHF) =  -470.732092621     A.U. after   11 cycles
 E2 =    -0.1585730595D+01 EUMP2 =    -0.47231782321591D+03

 The electronic state is 1-A.
 Alpha  occ. eigenvalues --  -11.21674 -11.21640 -11.21624 -11.21575 -11.21485
 Alpha  occ. eigenvalues --  -11.21424 -11.21411 -11.21279 -11.21134 -11.21110
 Alpha  occ. eigenvalues --  -11.21108 -11.21020  -1.08557  -1.08397  -1.03602
 Alpha  occ. eigenvalues --   -1.03523  -0.96048  -0.95973  -0.87061  -0.86992
 Alpha  occ. eigenvalues --   -0.79690  -0.79589  -0.78537  -0.78070  -0.65512
 Alpha  occ. eigenvalues --   -0.64744  -0.61134  -0.60818  -0.59415  -0.59339
 Alpha  occ. eigenvalues --   -0.57654  -0.57589  -0.55423  -0.55187  -0.52742
 Alpha  occ. eigenvalues --   -0.52671  -0.52466  -0.52400  -0.50044  -0.49886
 Alpha  occ. eigenvalues --   -0.48089  -0.47870  -0.46965  -0.46638  -0.46389
 Alpha  occ. eigenvalues --   -0.45811  -0.45747  -0.44770  -0.43842  -0.43770
 Alpha virt. eigenvalues --    0.19694   0.22041   0.23853   0.24342   0.25341
 Alpha virt. eigenvalues --    0.26108   0.26837   0.27654   0.28200   0.30290
 Alpha virt. eigenvalues --    0.31251   0.31496   0.31630   0.31729   0.32331

 Mulliken charges:
               1
     1  C   -0.297763
     2  C   -0.312351
     3  C   -0.474998
     4  H    0.149212
     5  H    0.150041
     6  H    0.163438
     7  H    0.152102
     8  H    0.155418
     9  H    0.154940
    10  H    0.160746
    11  C   -0.305389
    12  C   -0.299412
    13  C   -0.476526
    14  H    0.155792
    15  H    0.149897
    16  H    0.151964
    17  H    0.152421
    18  H    0.155700
    19  H    0.155320
    20  H    0.160708
    21  C   -0.309324
    22  C   -0.299892
    23  C   -0.476468
    24  H    0.149710
    25  H    0.160939
    26  H    0.151815
    27  H    0.151811
    28  H    0.156605
    29  H    0.154830
    30  H    0.160067
    31  C   -0.298778
    32  C   -0.306668
    33  C   -0.475203
    34  H    0.150042
    35  H    0.148324
    36  H    0.152406
    37  H    0.157785
    38  H    0.154811
    39  H    0.155519
    40  H    0.160408
 Sum of Mulliken charges =  -0.00000

 Dipole moment (field-independent basis, Debye):
    X=             -0.0258    Y=              0.0189    Z=              0.0138  Tot=              0.0348
 Quadrupole moment (field-independent basis, Debye-Ang):
   XX=            -83.5578   YY=            -86.3009   ZZ=            -84.8887
   XY=             -0.1788   XZ=              0.2418   YZ=              0.0644

 Normal termination of Gaussian 16 at Wed May  5 19:43:46 2021.
