 Gaussian 16, Revision A.03,
 Gaussian 16:  EM64L-G16RevA.03 25-Dec-2016

 -------------
 #p 6-31g* mp2
 -------------

 ------------------------------------------------------
 Input file generated by CHIRIPA (05-May-2021 14:57:21)
 ------------------------------------------------------
 Symbolic Z-matrix:
 Charge =  0 Multiplicity = 1

                         Standard orientation:
 ---------------------------------------------------------------------
 Center     Atomic      Atomic             Coordinates (Angstroms)
 Number     Number       Type             X           Y           Z
 ---------------------------------------------------------------------
      1          6           0       -1.133345    0.031838    2.141862
      2          6           0       -1.416669   -1.181893    1.506957
      3          6           0       -2.349883   -1.238561    0.467510
      4          6           0       -2.984039   -0.056958    0.086787
      5          6           0       -2.723280    1.167583    0.699808
      6          6           0       -1.786403    1.200642    1.736975
      7          1           0       -0.406979    0.066689    2.948444
      8          1           0       -0.911022   -2.091183    1.819300
      9          1           0       -2.588216   -2.164717   -0.041264
     10          1           0       -3.243418    2.057347    0.366350
     11          1           0       -1.568361    2.144653    2.228243
     12          7           0       -3.973929   -0.104453   -1.012423
     13          8           0       -4.519044    0.950607   -1.329183
     14          8           0       -4.185947   -1.195839   -1.536409
     15          6           0        2.618536    2.561400   -0.384028
     16          6           0        3.876458    1.955752   -0.469722
     17          6           0        4.000489    0.564645   -0.406574
     18          6           0        2.840456   -0.193747   -0.256728
     19          6           0        1.573112    0.380129   -0.168439
     20          6           0        1.472898    1.773046   -0.233925
     21          1           0        2.531436    3.642748   -0.433992
     22          1           0        4.767896    2.565495   -0.586323
     23          1           0        4.961937    0.069701   -0.470348
     24          1           0        0.702614   -0.254069   -0.052493
     25          1           0        0.494679    2.240668   -0.167105
     26          7           0        2.959156   -1.667407   -0.188637
     27          8           0        1.921856   -2.313283   -0.056382
     28          8           0        4.087244   -2.148681   -0.268813
 ---------------------------------------------------------------------

 SCF Done:  E(RHF) =  -868.337898160     A.U. after   16 cycles
 E2 =    -0.2603337223D+01 EUMP2 =    -0.87094123538285D+03

 The electronic state is 1-A.
 Alpha  occ. eigenvalues --  -20.61259 -20.61213 -20.61147 -20.61124 -15.86283
 Alpha  occ. eigenvalues --  -15.86197 -11.31722 -11.31466 -11.28373 -11.28192
 Alpha  occ. eigenvalues --  -11.28056 -11.27987 -11.27879 -11.27781 -11.27401
 Alpha  occ. eigenvalues --  -11.27092 -11.27039 -11.26958  -1.60310  -1.60213
 Alpha  occ. eigenvalues --   -1.39871  -1.39760  -1.19938  -1.19641  -1.09275
 Alpha  occ. eigenvalues --   -1.09083  -1.05311  -1.05012  -0.96076  -0.95929
 Alpha  occ. eigenvalues --   -0.86692  -0.86404  -0.82871  -0.82764  -0.77938
 Alpha  occ. eigenvalues --   -0.77803  -0.72514  -0.72403  -0.71631  -0.71546
 Alpha  occ. eigenvalues --   -0.70941  -0.70774  -0.65521  -0.65311  -0.65211
 Alpha  occ. eigenvalues --   -0.65021  -0.62587  -0.62432  -0.55739  -0.55612
 Alpha  occ. eigenvalues --   -0.53718  -0.53349  -0.53294  -0.52979  -0.49271
 Alpha  occ. eigenvalues --   -0.49240  -0.49172  -0.49153  -0.45314  -0.45131
 Alpha  occ. eigenvalues --   -0.38062  -0.37660  -0.36924  -0.36433
 Alpha virt. eigenvalues --    0.04342   0.04885   0.10371   0.11275   0.15855
 Alpha virt. eigenvalues --    0.16294   0.20788   0.21623   0.26494   0.27666
 Alpha virt. eigenvalues --    0.27983   0.28271   0.30638   0.31063   0.32226

 Mulliken charges:
               1
     1  C   -0.175509
     2  C   -0.227813
     3  C   -0.170145
     4  C    0.158397
     5  C   -0.176650
     6  C   -0.224588
     7  H    0.231309
     8  H    0.241906
     9  H    0.282967
    10  H    0.275958
    11  H    0.223300
    12  N    0.488182
    13  O   -0.460970
    14  O   -0.455865
    15  C   -0.170528
    16  C   -0.219404
    17  C   -0.170312
    18  C    0.153839
    19  C   -0.177825
    20  C   -0.225924
    21  H    0.225544
    22  H    0.223982
    23  H    0.275696
    24  H    0.288190
    25  H    0.223717
    26  N    0.488150
    27  O   -0.467646
    28  O   -0.457957
 Sum of Mulliken charges =  -0.00000

 Dipole moment (field-independent basis, Debye):
    X=              2.9047    Y=              5.1052    Z=              3.6958  Tot=              6.9396
 Quadrupole moment (field-independent basis, Debye-Ang):
   XX=           -123.4338   YY=           -102.4502   ZZ=           -105.1560
   XY=             14.3264   XZ=            -12.6123   YZ=             -1.2775

 Normal termination of Gaussian 16 at Thu May  6 11:09:47 2021.
