 Gaussian 16, Revision A.03,
 Gaussian 16:  EM64L-G16RevA.03 25-Dec-2016

 -------------
 #p 6-31g* mp2
 -------------

 ------------------------------------------------------
 Input file generated by CHIRIPA (05-May-2021 14:55:22)
 ------------------------------------------------------
 Symbolic Z-matrix:
 Charge =  0 Multiplicity = 1

                         Standard orientation:
 ---------------------------------------------------------------------
 Center     Atomic      Atomic             Coordinates (Angstroms)
 Number     Number       Type             X           Y           Z
 ---------------------------------------------------------------------
      1          6           0       -2.507106    0.254366    2.251359
      2          6           0       -1.555402   -0.767872    2.175123
      3          6           0       -1.152460   -1.271765    0.934850
      4          6           0       -1.724364   -0.727793   -0.214198
      5          6           0       -2.674767    0.291108   -0.171010
      6          6           0       -3.062771    0.779667    1.080113
      7          1           0       -2.814318    0.639846    3.219047
      8          1           0       -1.122174   -1.177733    3.083073
      9          1           0       -0.417621   -2.062775    0.846917
     10          1           0       -3.088815    0.679601   -1.093537
     11          1           0       -3.802080    1.573588    1.136288
     12          7           0       -1.305694   -1.253125   -1.532963
     13          8           0       -1.824583   -0.756934   -2.530554
     14          8           0       -0.466581   -2.151124   -1.544050
     15          6           0        1.686981    1.252478    0.159485
     16          6           0        1.380288    2.298951   -0.912345
     17          6           0        0.160170    3.154831   -0.570914
     18          1           0        0.809203    0.605462    0.292980
     19          1           0        1.850791    1.759274    1.120589
     20          1           0        1.218468    1.790435   -1.871430
     21          1           0        2.258966    2.943431   -1.043440
     22          1           0        0.315481    3.688064    0.372560
     23          1           0       -0.730929    2.528517   -0.460134
     24          1           0       -0.041015    3.896215   -1.350488
     25          6           0        2.904035    0.389023   -0.167550
     26          6           0        3.210728   -0.657449    0.904281
     27          6           0        4.430846   -1.513329    0.562848
     28          1           0        2.740224   -0.117772   -1.128654
     29          1           0        3.781813    1.036039   -0.301046
     30          1           0        2.332049   -1.301929    1.035376
     31          1           0        3.372547   -0.148933    1.863365
     32          1           0        5.321945   -0.887015    0.452068
     33          1           0        4.275535   -2.046562   -0.380626
     34          1           0        4.632030   -2.254713    1.342422
 ---------------------------------------------------------------------

 SCF Done:  E(RHF) =  -669.534336845     A.U. after   15 cycles
 E2 =    -0.2095951361D+01 EUMP2 =    -0.67163028820595D+03

 The electronic state is 1-A.
 Alpha  occ. eigenvalues --  -20.60922 -20.60917 -15.85967 -11.31306 -11.27899
 Alpha  occ. eigenvalues --  -11.27877 -11.27630 -11.26918 -11.26897 -11.21532
 Alpha  occ. eigenvalues --  -11.21345 -11.21110 -11.21050 -11.20918 -11.20882
 Alpha  occ. eigenvalues --   -1.59994  -1.39547  -1.19527  -1.08902  -1.08214
 Alpha  occ. eigenvalues --   -1.04924  -1.03352  -0.95791  -0.95739  -0.86819
 Alpha  occ. eigenvalues --   -0.86308  -0.82565  -0.79430  -0.78049  -0.77612
 Alpha  occ. eigenvalues --   -0.72185  -0.71338  -0.70612  -0.65164  -0.64948
 Alpha  occ. eigenvalues --   -0.64808  -0.62266  -0.60765  -0.59169  -0.57418
 Alpha  occ. eigenvalues --   -0.55401  -0.55098  -0.53354  -0.52993  -0.52501
 Alpha  occ. eigenvalues --   -0.52239  -0.49761  -0.48946  -0.48941  -0.47727
 Alpha  occ. eigenvalues --   -0.46443  -0.45538  -0.45457  -0.44923  -0.43584
 Alpha  occ. eigenvalues --   -0.37431  -0.36424
 Alpha virt. eigenvalues --    0.04860   0.11028   0.16366   0.20754   0.22977
 Alpha virt. eigenvalues --    0.24079   0.25902   0.27090   0.27585   0.28363
 Alpha virt. eigenvalues --    0.28770   0.30671   0.31225   0.31840   0.32117

 Mulliken charges:
               1
     1  C   -0.170572
     2  C   -0.213397
     3  C   -0.178834
     4  C    0.162926
     5  C   -0.174256
     6  C   -0.215859
     7  H    0.226625
     8  H    0.224816
     9  H    0.277504
    10  H    0.276894
    11  H    0.224977
    12  N    0.489022
    13  O   -0.459973
    14  O   -0.461042
    15  C   -0.305739
    16  C   -0.301552
    17  C   -0.479228
    18  H    0.155654
    19  H    0.144748
    20  H    0.158704
    21  H    0.151376
    22  H    0.151176
    23  H    0.154738
    24  H    0.159855
    25  C   -0.299509
    26  C   -0.298278
    27  C   -0.476323
    28  H    0.159512
    29  H    0.148415
    30  H    0.145748
    31  H    0.148042
    32  H    0.154925
    33  H    0.161446
    34  H    0.157458
 Sum of Mulliken charges =  -0.00000

 Dipole moment (field-independent basis, Debye):
    X=             -1.5928    Y=              1.7403    Z=              4.5813  Tot=              5.1531
 Quadrupole moment (field-independent basis, Debye-Ang):
   XX=            -88.3586   YY=            -96.3405   ZZ=            -95.8699
   XY=             -3.6169   XZ=             -6.3054   YZ=             -5.1748

 Normal termination of Gaussian 16 at Thu May  6 10:58:50 2021.
