 Gaussian 16, Revision A.03,
 Gaussian 16:  EM64L-G16RevA.03 25-Dec-2016

 -------------
 #p 6-31g* mp2
 -------------

 ------------------------------------------------------
 Input file generated by CHIRIPA (05-May-2021 14:57:26)
 ------------------------------------------------------
 Symbolic Z-matrix:
 Charge =  0 Multiplicity = 1

                         Standard orientation:
 ---------------------------------------------------------------------
 Center     Atomic      Atomic             Coordinates (Angstroms)
 Number     Number       Type             X           Y           Z
 ---------------------------------------------------------------------
      1          6           0       -0.680327   -1.207239   -0.540132
      2          6           0       -1.463730   -1.782048    0.466047
      3          6           0       -2.773551   -1.344233    0.683379
      4          6           0       -3.270286   -0.325040   -0.127664
      5          6           0       -2.514630    0.267560   -1.138158
      6          6           0       -1.207349   -0.186070   -1.337617
      7          1           0        0.336187   -1.553487   -0.702018
      8          1           0       -1.057060   -2.575266    1.086910
      9          1           0       -3.401977   -1.771669    1.455259
     10          1           0       -2.947647    1.056548   -1.740995
     11          1           0       -0.601248    0.262176   -2.119770
     12          7           0       -4.655591    0.146826    0.092956
     13          8           0       -5.069888    1.046199   -0.635141
     14          8           0       -5.300864   -0.391632    0.989795
     15          6           0        1.194973    2.001029    0.796653
     16          6           0        1.872208    1.285557    1.789615
     17          6           0        2.897234    0.397312    1.450664
     18          6           0        3.220532    0.248299    0.102864
     19          6           0        2.564358    0.946831   -0.909450
     20          6           0        1.542597    1.829685   -0.547341
     21          1           0        0.399976    2.688944    1.068952
     22          1           0        1.604370    1.416618    2.834187
     23          1           0        3.437913   -0.169211    2.199087
     24          1           0        2.853814    0.795032   -1.942209
     25          1           0        1.018365    2.384006   -1.320617
     26          7           0        4.303953   -0.689192   -0.268226
     27          8           0        4.569814   -0.802615   -1.462835
     28          8           0        4.866763   -1.292824    0.642549
 ---------------------------------------------------------------------

 SCF Done:  E(RHF) =  -868.336709466     A.U. after   16 cycles
 E2 =    -0.2602911815D+01 EUMP2 =    -0.87093962128157D+03

 The electronic state is 1-A.
 Alpha  occ. eigenvalues --  -20.61636 -20.61628 -20.61156 -20.61149 -15.86692
 Alpha  occ. eigenvalues --  -15.86210 -11.32124 -11.31563 -11.28682 -11.28627
 Alpha  occ. eigenvalues --  -11.28289 -11.28153 -11.28111 -11.27776 -11.27676
 Alpha  occ. eigenvalues --  -11.27592 -11.27145 -11.27076  -1.60718  -1.60234
 Alpha  occ. eigenvalues --   -1.40266  -1.39787  -1.20278  -1.19729  -1.09630
 Alpha  occ. eigenvalues --   -1.09102  -1.05687  -1.05138  -0.96456  -0.95944
 Alpha  occ. eigenvalues --   -0.87063  -0.86520  -0.83294  -0.82789  -0.78366
 Alpha  occ. eigenvalues --   -0.77853  -0.72891  -0.72423  -0.72068  -0.71564
 Alpha  occ. eigenvalues --   -0.71294  -0.70787  -0.65898  -0.65699  -0.65372
 Alpha  occ. eigenvalues --   -0.65124  -0.63032  -0.62477  -0.56077  -0.55611
 Alpha  occ. eigenvalues --   -0.54272  -0.53758  -0.53254  -0.53120  -0.49661
 Alpha  occ. eigenvalues --   -0.49652  -0.49185  -0.49179  -0.45655  -0.45197
 Alpha  occ. eigenvalues --   -0.38499  -0.37646  -0.37304  -0.36408
 Alpha virt. eigenvalues --    0.04146   0.04685   0.09914   0.11340   0.15574
 Alpha virt. eigenvalues --    0.16221   0.19789   0.21524   0.25323   0.27461
 Alpha virt. eigenvalues --    0.27752   0.28033   0.29643   0.31441   0.31882

 Mulliken charges:
               1
     1  C   -0.165646
     2  C   -0.220625
     3  C   -0.171881
     4  C    0.157604
     5  C   -0.176545
     6  C   -0.215738
     7  H    0.230096
     8  H    0.225576
     9  H    0.276048
    10  H    0.273357
    11  H    0.216635
    12  N    0.487928
    13  O   -0.461344
    14  O   -0.459560
    15  C   -0.165190
    16  C   -0.217876
    17  C   -0.173298
    18  C    0.155884
    19  C   -0.181847
    20  C   -0.217066
    21  H    0.231457
    22  H    0.227634
    23  H    0.277530
    24  H    0.275254
    25  H    0.222458
    26  N    0.487013
    27  O   -0.459867
    28  O   -0.457991
 Sum of Mulliken charges =  -0.00000

 Dipole moment (field-independent basis, Debye):
    X=              1.1767    Y=              1.6762    Z=              0.7405  Tot=              2.1777
 Quadrupole moment (field-independent basis, Debye-Ang):
   XX=           -163.0089   YY=           -100.4449   ZZ=            -97.2391
   XY=             13.9704   XZ=              6.2112   YZ=             -2.7432

 Normal termination of Gaussian 16 at Thu May  6 21:21:50 2021.
