 Gaussian 16, Revision A.03,
 Gaussian 16:  EM64L-G16RevA.03 25-Dec-2016

 -------------
 #p 6-31g* mp2
 -------------

 ------------------------------------------------------
 Input file generated by CHIRIPA (05-May-2021 14:51:14)
 ------------------------------------------------------
 Symbolic Z-matrix:
 Charge =  0 Multiplicity = 1

                         Standard orientation:
 ---------------------------------------------------------------------
 Center     Atomic      Atomic             Coordinates (Angstroms)
 Number     Number       Type             X           Y           Z
 ---------------------------------------------------------------------
      1          6           0       -4.235138   -0.164070    0.198520
      2          6           0       -4.961433    0.928989   -0.586149
      3          6           0       -6.483083    0.807032   -0.499536
      4          1           0       -4.547724   -1.147128   -0.179410
      5          1           0       -4.548147   -0.119805    1.250879
      6          1           0       -4.646102    0.883563   -1.636444
      7          1           0       -4.646937    1.909563   -0.206435
      8          1           0       -6.816343    0.874434    0.541135
      9          1           0       -6.815503   -0.157395   -0.896999
     10          1           0       -6.982231    1.598289   -1.067537
     11          6           0       -2.713287   -0.055562    0.121556
     12          6           0       -1.986992   -1.148620    0.906225
     13          6           0       -0.465342   -1.026664    0.819612
     14          1           0       -2.400278   -0.099826   -0.930804
     15          1           0       -2.400701    0.927497    0.499486
     16          1           0       -2.301489   -2.129194    0.526511
     17          1           0       -2.302323   -1.103194    1.956520
     18          1           0       -0.132922   -0.062236    1.217075
     19          1           0       -0.132083   -1.094065   -0.221059
     20          1           0        0.033806   -1.817920    1.387612
     21          6           0        3.938942    0.715988   -0.156399
     22          6           0        3.216292    2.032355    0.131601
     23          6           0        4.159342    3.235865    0.135533
     24          1           0        4.725567    0.564782    0.595467
     25          1           0        4.445720    0.789062   -1.128629
     26          1           0        2.709883    1.956329    1.102366
     27          1           0        2.431170    2.180351   -0.620926
     28          1           0        4.655189    3.339916   -0.834988
     29          1           0        4.935485    3.114620    0.898095
     30          1           0        3.621901    4.166350    0.343414
     31          6           0        3.009484   -0.496357   -0.163677
     32          6           0        3.732132   -1.812723   -0.451677
     33          6           0        2.789084   -3.016233   -0.455609
     34          1           0        2.502706   -0.569431    0.808553
     35          1           0        2.222859   -0.345151   -0.915542
     36          1           0        4.517256   -1.960721    0.300849
     37          1           0        4.238543   -1.736697   -1.422442
     38          1           0        2.012940   -2.894990   -1.218171
     39          1           0        2.293236   -3.120286    0.514912
     40          1           0        3.326523   -3.946720   -0.663491
 ---------------------------------------------------------------------

 SCF Done:  E(RHF) =  -470.732196629     A.U. after   11 cycles
 E2 =    -0.1583775576D+01 EUMP2 =    -0.47231597220462D+03

 The electronic state is 1-A.
 Alpha  occ. eigenvalues --  -11.21588 -11.21562 -11.21524 -11.21524 -11.21379
 Alpha  occ. eigenvalues --  -11.21319 -11.21307 -11.21203 -11.21061 -11.21043
 Alpha  occ. eigenvalues --  -11.21006 -11.20957  -1.08411  -1.08342  -1.03523
 Alpha  occ. eigenvalues --   -1.03441  -0.95957  -0.95906  -0.86998  -0.86912
 Alpha  occ. eigenvalues --   -0.79702  -0.79445  -0.78295  -0.78025  -0.65057
 Alpha  occ. eigenvalues --   -0.64969  -0.60927  -0.60853  -0.59405  -0.59200
 Alpha  occ. eigenvalues --   -0.57682  -0.57414  -0.55278  -0.55158  -0.52722
 Alpha  occ. eigenvalues --   -0.52603  -0.52533  -0.52163  -0.49947  -0.49821
 Alpha  occ. eigenvalues --   -0.47970  -0.47786  -0.46653  -0.46525  -0.45946
 Alpha  occ. eigenvalues --   -0.45732  -0.45548  -0.45386  -0.43726  -0.43672
 Alpha virt. eigenvalues --    0.21650   0.23088   0.23618   0.24693   0.25245
 Alpha virt. eigenvalues --    0.26117   0.26863   0.27434   0.27978   0.29301
 Alpha virt. eigenvalues --    0.30004   0.30994   0.31700   0.32196   0.32325

 Mulliken charges:
               1
     1  C   -0.298159
     2  C   -0.299578
     3  C   -0.475678
     4  H    0.149602
     5  H    0.149480
     6  H    0.151772
     7  H    0.151887
     8  H    0.155165
     9  H    0.155158
    10  H    0.160174
    11  C   -0.298268
    12  C   -0.301573
    13  C   -0.475610
    14  H    0.148930
    15  H    0.149601
    16  H    0.151634
    17  H    0.151130
    18  H    0.154863
    19  H    0.158563
    20  H    0.160113
    21  C   -0.297852
    22  C   -0.299711
    23  C   -0.475588
    24  H    0.149021
    25  H    0.148852
    26  H    0.151405
    27  H    0.151974
    28  H    0.155166
    29  H    0.155084
    30  H    0.159962
    31  C   -0.301120
    32  C   -0.299797
    33  C   -0.476179
    34  H    0.156206
    35  H    0.150228
    36  H    0.151236
    37  H    0.151140
    38  H    0.154704
    39  H    0.156672
    40  H    0.159389
 Sum of Mulliken charges =  -0.00000

 Dipole moment (field-independent basis, Debye):
    X=              0.0014    Y=             -0.0050    Z=              0.0078  Tot=              0.0094
 Quadrupole moment (field-independent basis, Debye-Ang):
   XX=            -86.6083   YY=            -85.4624   ZZ=            -83.0909
   XY=             -0.5187   XZ=              0.1829   YZ=              0.3255

 Normal termination of Gaussian 16 at Wed May  5 15:22:58 2021.
