 Gaussian 16, Revision A.03,
 Gaussian 16:  EM64L-G16RevA.03 25-Dec-2016

 -------------
 #p 6-31g* mp2
 -------------

 ------------------------------------------------------
 Input file generated by CHIRIPA (05-May-2021 14:55:25)
 ------------------------------------------------------
 Symbolic Z-matrix:
 Charge =  0 Multiplicity = 1

                         Standard orientation:
 ---------------------------------------------------------------------
 Center     Atomic      Atomic             Coordinates (Angstroms)
 Number     Number       Type             X           Y           Z
 ---------------------------------------------------------------------
      1          6           0       -3.112124    2.019425    0.228238
      2          6           0       -1.919186    1.676376    0.873014
      3          6           0       -1.422422    0.371599    0.799997
      4          6           0       -2.147512   -0.569178    0.070290
      5          6           0       -3.339047   -0.258220   -0.583040
      6          6           0       -3.817005    1.052737   -0.496454
      7          1           0       -3.490718    3.035407    0.290229
      8          1           0       -1.369658    2.425051    1.436529
      9          1           0       -0.501519    0.078818    1.289522
     10          1           0       -3.864623   -1.026327   -1.137296
     11          1           0       -4.743732    1.316301   -0.998205
     12          7           0       -1.631565   -1.953758   -0.014192
     13          8           0       -2.289131   -2.764187   -0.663383
     14          8           0       -0.579370   -2.202345    0.570382
     15          6           0        2.948237    1.123063   -0.429975
     16          6           0        2.044459    2.199420    0.172211
     17          6           0        2.237234    3.567499   -0.482765
     18          1           0        3.996755    1.435068   -0.328946
     19          1           0        2.747410    1.046290   -1.507551
     20          1           0        2.245952    2.273174    1.248582
     21          1           0        0.997980    1.884728    0.069907
     22          1           0        2.016738    3.516296   -1.553914
     23          1           0        3.271800    3.906949   -0.368542
     24          1           0        1.581470    4.321956   -0.037088
     25          6           0        2.767083   -0.250148    0.214387
     26          6           0        3.670860   -1.326505   -0.387798
     27          6           0        3.478085   -2.694584    0.267177
     28          1           0        2.967909   -0.173375    1.291963
     29          1           0        1.718564   -0.562153    0.113358
     30          1           0        4.717339   -1.011813   -0.285495
     31          1           0        3.469367   -1.400259   -1.464170
     32          1           0        2.443518   -3.034035    0.152954
     33          1           0        3.698581   -2.643381    1.338326
     34          1           0        4.133849   -3.449041   -0.178501
 ---------------------------------------------------------------------

 SCF Done:  E(RHF) =  -669.535644037     A.U. after   15 cycles
 E2 =    -0.2094376953D+01 EUMP2 =    -0.67163002098987D+03

 The electronic state is 1-A.
 Alpha  occ. eigenvalues --  -20.61025 -20.61018 -15.86038 -11.31315 -11.27883
 Alpha  occ. eigenvalues --  -11.27836 -11.27601 -11.26878 -11.26847 -11.21858
 Alpha  occ. eigenvalues --  -11.21402 -11.21286 -11.20994 -11.20899 -11.20050
 Alpha  occ. eigenvalues --   -1.60076  -1.39634  -1.19490  -1.08897  -1.08228
 Alpha  occ. eigenvalues --   -1.04879  -1.03269  -0.95747  -0.95691  -0.86712
 Alpha  occ. eigenvalues --   -0.86273  -0.82587  -0.79446  -0.78094  -0.77512
 Alpha  occ. eigenvalues --   -0.72262  -0.71385  -0.70591  -0.65145  -0.64941
 Alpha  occ. eigenvalues --   -0.64801  -0.62215  -0.60657  -0.59169  -0.57296
 Alpha  occ. eigenvalues --   -0.55378  -0.54954  -0.53233  -0.52957  -0.52420
 Alpha  occ. eigenvalues --   -0.52106  -0.49676  -0.49025  -0.48969  -0.47705
 Alpha  occ. eigenvalues --   -0.46477  -0.45650  -0.45460  -0.44721  -0.43519
 Alpha  occ. eigenvalues --   -0.37466  -0.36405
 Alpha virt. eigenvalues --    0.04802   0.11105   0.16169   0.20874   0.23267
 Alpha virt. eigenvalues --    0.24467   0.25792   0.26933   0.27279   0.28334
 Alpha virt. eigenvalues --    0.29761   0.30756   0.31705   0.31960   0.32577

 Mulliken charges:
               1
     1  C   -0.171011
     2  C   -0.219118
     3  C   -0.171724
     4  C    0.155549
     5  C   -0.170807
     6  C   -0.218638
     7  H    0.226364
     8  H    0.226733
     9  H    0.281877
    10  H    0.275812
    11  H    0.223970
    12  N    0.489875
    13  O   -0.458196
    14  O   -0.461975
    15  C   -0.296510
    16  C   -0.309240
    17  C   -0.473917
    18  H    0.149489
    19  H    0.150154
    20  H    0.148137
    21  H    0.151159
    22  H    0.157030
    23  H    0.157693
    24  H    0.153699
    25  C   -0.310693
    26  C   -0.297972
    27  C   -0.482615
    28  H    0.145417
    29  H    0.165267
    30  H    0.147724
    31  H    0.151026
    32  H    0.178083
    33  H    0.151235
    34  H    0.156123
 Sum of Mulliken charges =  -0.00000

 Dipole moment (field-independent basis, Debye):
    X=             -2.0323    Y=              4.6887    Z=              0.2552  Tot=              5.1166
 Quadrupole moment (field-independent basis, Debye-Ang):
   XX=            -84.0266   YY=           -101.6222   ZZ=            -93.4312
   XY=             -8.4571   XZ=              2.1847   YZ=              1.5305

 Normal termination of Gaussian 16 at Wed May  5 19:11:56 2021.
