 Gaussian 16, Revision A.03,
 Gaussian 16:  EM64L-G16RevA.03 25-Dec-2016

 -------------
 #p 6-31g* mp2
 -------------

 ------------------------------------------------------
 Input file generated by CHIRIPA (05-May-2021 14:51:13)
 ------------------------------------------------------
 Symbolic Z-matrix:
 Charge =  0 Multiplicity = 1

                         Standard orientation:
 ---------------------------------------------------------------------
 Center     Atomic      Atomic             Coordinates (Angstroms)
 Number     Number       Type             X           Y           Z
 ---------------------------------------------------------------------
      1          6           0       -4.128646   -0.691671   -0.071623
      2          6           0       -5.050165    0.478767    0.273141
      3          6           0       -6.531052    0.103379    0.211076
      4          1           0       -4.373463   -1.058796   -1.077720
      5          1           0       -4.326821   -1.521581    0.620743
      6          1           0       -4.849345    1.306724   -0.418794
      7          1           0       -4.802998    0.843271    1.278458
      8          1           0       -6.753009   -0.706288    0.913768
      9          1           0       -6.799619   -0.240202   -0.793128
     10          1           0       -7.171836    0.954715    0.461041
     11          6           0       -2.645053   -0.332018   -0.013929
     12          6           0       -1.723534   -1.502456   -0.358693
     13          6           0       -0.242647   -1.127068   -0.296628
     14          1           0       -2.446879    0.497892   -0.706295
     15          1           0       -2.400237    0.035106    0.992168
     16          1           0       -1.970701   -1.866960   -1.364010
     17          1           0       -1.924355   -2.330413    0.333242
     18          1           0        0.025920   -0.783488    0.707576
     19          1           0       -0.020690   -0.317401   -0.999320
     20          1           0        0.398137   -1.978404   -0.546593
     21          6           0        3.003602    1.032298   -0.364265
     22          6           0        2.422439    2.160884    0.488101
     23          6           0        1.658578    3.194223   -0.340465
     24          1           0        3.671331    1.461559   -1.123749
     25          1           0        2.188260    0.536592   -0.909139
     26          1           0        3.238467    2.653423    1.032269
     27          1           0        1.756164    1.728871    1.245767
     28          1           0        0.825484    2.722543   -0.871571
     29          1           0        2.316208    3.652349   -1.086282
     30          1           0        1.251638    3.991949    0.288735
     31          6           0        3.770098   -0.008608    0.449817
     32          6           0        4.351261   -1.137195   -0.402549
     33          6           0        5.115122   -2.170533    0.426017
     34          1           0        4.585439    0.487098    0.994691
     35          1           0        3.102368   -0.437870    1.209301
     36          1           0        5.017535   -0.705181   -1.160216
     37          1           0        3.535232   -1.629734   -0.946717
     38          1           0        4.457491   -2.628660    1.171834
     39          1           0        5.948216   -1.698853    0.957123
     40          1           0        5.522061   -2.968260   -0.203183
 ---------------------------------------------------------------------

 SCF Done:  E(RHF) =  -470.732957436     A.U. after   11 cycles
 E2 =    -0.1583576548D+01 EUMP2 =    -0.47231653398400D+03

 The electronic state is 1-A.
 Alpha  occ. eigenvalues --  -11.21692 -11.21635 -11.21523 -11.21510 -11.21469
 Alpha  occ. eigenvalues --  -11.21405 -11.21279 -11.21215 -11.21184 -11.21097
 Alpha  occ. eigenvalues --  -11.21020 -11.21016  -1.08499  -1.08321  -1.03606
 Alpha  occ. eigenvalues --   -1.03447  -0.96072  -0.95887  -0.87093  -0.86907
 Alpha  occ. eigenvalues --   -0.79687  -0.79505  -0.78315  -0.78128  -0.65129
 Alpha  occ. eigenvalues --   -0.64962  -0.61021  -0.60852  -0.59422  -0.59264
 Alpha  occ. eigenvalues --   -0.57663  -0.57508  -0.55367  -0.55191  -0.52757
 Alpha  occ. eigenvalues --   -0.52598  -0.52515  -0.52295  -0.50061  -0.49807
 Alpha  occ. eigenvalues --   -0.48051  -0.47782  -0.46784  -0.46505  -0.45931
 Alpha  occ. eigenvalues --   -0.45801  -0.45632  -0.45381  -0.43844  -0.43688
 Alpha virt. eigenvalues --    0.20405   0.22862   0.23650   0.24714   0.25331
 Alpha virt. eigenvalues --    0.25922   0.27135   0.27493   0.28030   0.29510
 Alpha virt. eigenvalues --    0.29969   0.31111   0.31747   0.32113   0.32248

 Mulliken charges:
               1
     1  C   -0.298334
     2  C   -0.299724
     3  C   -0.475758
     4  H    0.149805
     5  H    0.149667
     6  H    0.152138
     7  H    0.152053
     8  H    0.155214
     9  H    0.155241
    10  H    0.160430
    11  C   -0.298476
    12  C   -0.300487
    13  C   -0.479757
    14  H    0.149569
    15  H    0.149765
    16  H    0.152402
    17  H    0.152267
    18  H    0.156730
    19  H    0.157191
    20  H    0.161226
    21  C   -0.304449
    22  C   -0.299809
    23  C   -0.476127
    24  H    0.148440
    25  H    0.158816
    26  H    0.151449
    27  H    0.152120
    28  H    0.154703
    29  H    0.154948
    30  H    0.160002
    31  C   -0.298201
    32  C   -0.300641
    33  C   -0.475662
    34  H    0.148771
    35  H    0.150250
    36  H    0.151614
    37  H    0.152736
    38  H    0.155006
    39  H    0.155024
    40  H    0.159847
 Sum of Mulliken charges =  -0.00000

 Dipole moment (field-independent basis, Debye):
    X=             -0.0633    Y=             -0.0257    Z=             -0.0080  Tot=              0.0688
 Quadrupole moment (field-independent basis, Debye-Ang):
   XX=            -85.7783   YY=            -85.2257   ZZ=            -83.9994
   XY=              0.7877   XZ=             -0.3647   YZ=              0.0531

 Normal termination of Gaussian 16 at Wed May  5 18:21:34 2021.
