 Gaussian 16, Revision A.03,
 Gaussian 16:  EM64L-G16RevA.03 25-Dec-2016

 -------------
 #p 6-31g* mp2
 -------------

 ------------------------------------------------------
 Input file generated by CHIRIPA (05-May-2021 14:57:25)
 ------------------------------------------------------
 Symbolic Z-matrix:
 Charge =  0 Multiplicity = 1

                         Standard orientation:
 ---------------------------------------------------------------------
 Center     Atomic      Atomic             Coordinates (Angstroms)
 Number     Number       Type             X           Y           Z
 ---------------------------------------------------------------------
      1          6           0        5.320384   -1.137198   -1.336709
      2          6           0        4.314761   -1.931311   -0.775790
      3          6           0        3.341714   -1.364492    0.052729
      4          6           0        3.404692    0.005928    0.300263
      5          6           0        4.394015    0.823582   -0.243770
      6          6           0        5.356737    0.235294   -1.069380
      7          1           0        6.072260   -1.585856   -1.979192
      8          1           0        4.284054   -2.997481   -0.981661
      9          1           0        2.552073   -1.955920    0.500053
     10          1           0        4.398547    1.883497   -0.020214
     11          1           0        6.136551    0.854459   -1.503626
     12          7           0        2.380036    0.617358    1.175839
     13          8           0        2.457536    1.827144    1.378439
     14          8           0        1.518812   -0.124768    1.642936
     15          6           0       -2.373350    2.275884   -0.566401
     16          6           0       -1.908184    1.394897    0.415436
     17          6           0       -2.565297    0.183682    0.651457
     18          6           0       -3.689600   -0.116012   -0.116277
     19          6           0       -4.177423    0.740911   -1.101673
     20          6           0       -3.504491    1.946659   -1.320492
     21          1           0       -1.856744    3.214662   -0.743068
     22          1           0       -1.029973    1.647958    1.002591
     23          1           0       -2.226680   -0.516725    1.405239
     24          1           0       -5.055479    0.461046   -1.670980
     25          1           0       -3.867999    2.628919   -2.083662
     26          7           0       -4.393630   -1.395378    0.124483
     27          8           0       -5.381937   -1.636104   -0.565399
     28          8           0       -3.943811   -2.133192    0.998513
 ---------------------------------------------------------------------

 SCF Done:  E(RHF) =  -868.340866340     A.U. after   16 cycles
 E2 =    -0.2598529718D+01 EUMP2 =    -0.87093939605814D+03

 The electronic state is 1-A.
 Alpha  occ. eigenvalues --  -20.61735 -20.61724 -20.60088 -20.60076 -15.86735
 Alpha  occ. eigenvalues --  -15.85126 -11.31776 -11.30301 -11.28321 -11.28280
 Alpha  occ. eigenvalues --  -11.27990 -11.27257 -11.27221 -11.26903 -11.26701
 Alpha  occ. eigenvalues --  -11.26527 -11.25915 -11.25572  -1.60791  -1.59164
 Alpha  occ. eigenvalues --   -1.40348  -1.38722  -1.19918  -1.18441  -1.09377
 Alpha  occ. eigenvalues --   -1.07879  -1.05268  -1.03778  -0.96263  -0.94747
 Alpha  occ. eigenvalues --   -0.86682  -0.85194  -0.83105  -0.81558  -0.78187
 Alpha  occ. eigenvalues --   -0.76628  -0.72961  -0.72087  -0.71350  -0.71020
 Alpha  occ. eigenvalues --   -0.70486  -0.69554  -0.65572  -0.65267  -0.64075
 Alpha  occ. eigenvalues --   -0.63739  -0.62616  -0.61097  -0.55784  -0.54318
 Alpha  occ. eigenvalues --   -0.53618  -0.53353  -0.52174  -0.51835  -0.49730
 Alpha  occ. eigenvalues --   -0.49699  -0.48114  -0.48087  -0.45821  -0.44169
 Alpha  occ. eigenvalues --   -0.37881  -0.36856  -0.36451  -0.35386
 Alpha virt. eigenvalues --    0.04290   0.05848   0.10804   0.12248   0.15852
 Alpha virt. eigenvalues --    0.17390   0.20979   0.22519   0.26924   0.27798
 Alpha virt. eigenvalues --    0.28602   0.29240   0.30594   0.32059   0.32116

 Mulliken charges:
               1
     1  C   -0.169592
     2  C   -0.218635
     3  C   -0.170025
     4  C    0.157920
     5  C   -0.170906
     6  C   -0.218709
     7  H    0.227965
     8  H    0.226726
     9  H    0.278030
    10  H    0.274959
    11  H    0.224854
    12  N    0.488694
    13  O   -0.463569
    14  O   -0.464100
    15  C   -0.173194
    16  C   -0.226848
    17  C   -0.173164
    18  C    0.157366
    19  C   -0.173575
    20  C   -0.219083
    21  H    0.224562
    22  H    0.245811
    23  H    0.280797
    24  H    0.271795
    25  H    0.219189
    26  N    0.487933
    27  O   -0.464126
    28  O   -0.461075
 Sum of Mulliken charges =  -0.00000

 Dipole moment (field-independent basis, Debye):
    X=              6.6038    Y=              2.2806    Z=             -3.8455  Tot=              7.9749
 Quadrupole moment (field-independent basis, Debye-Ang):
   XX=            -96.8633   YY=           -102.3645   ZZ=           -105.0681
   XY=            -23.3924   XZ=             -5.1005   YZ=             -2.4415

 Normal termination of Gaussian 16 at Fri May  7 09:37:26 2021.
