 Gaussian 16, Revision A.03,
 Gaussian 16:  EM64L-G16RevA.03 25-Dec-2016

 -------------
 #p 6-31g* mp2
 -------------

 ------------------------------------------------------
 Input file generated by CHIRIPA (05-May-2021 14:53:13)
 ------------------------------------------------------
 Symbolic Z-matrix:
 Charge =  0 Multiplicity = 1

                         Standard orientation:
 ---------------------------------------------------------------------
 Center     Atomic      Atomic             Coordinates (Angstroms)
 Number     Number       Type             X           Y           Z
 ---------------------------------------------------------------------
      1          6           0       -3.957224   -0.416424   -0.105193
      2          6           0       -5.431600   -0.113043    0.163434
      3          6           0       -6.357385   -0.678903   -0.913840
      4          1           0       -3.677242   -0.004706   -1.084500
      5          1           0       -3.820411   -1.504584   -0.172914
      6          1           0       -5.565351    0.974167    0.232003
      7          1           0       -5.708055   -0.525365    1.142300
      8          1           0       -6.253329   -1.766829   -0.978577
      9          1           0       -6.109814   -0.258778   -1.894046
     10          1           0       -7.406571   -0.450454   -0.701993
     11          6           0       -3.019242    0.142804    0.963067
     12          6           0       -1.544866   -0.160578    0.694441
     13          6           0       -0.619081    0.405283    1.771714
     14          1           0       -3.156055    1.230963    1.030788
     15          1           0       -3.299224   -0.268915    1.942375
     16          1           0       -1.268410    0.251744   -0.284426
     17          1           0       -1.411115   -1.247787    0.625871
     18          1           0       -0.866652   -0.014843    2.751920
     19          1           0       -0.723137    1.493208    1.836451
     20          1           0        0.430106    0.176833    1.559868
     21          6           0        1.359450    2.154592   -0.889713
     22          6           0        1.115339    0.948941   -1.555550
     23          6           0        1.865898   -0.191981   -1.256373
     24          6           0        2.857216   -0.091082   -0.281490
     25          6           0        3.124280    1.095727    0.399284
     26          6           0        2.361374    2.224014    0.083861
     27          1           0        0.771602    3.035979   -1.128430
     28          1           0        0.337871    0.892092   -2.312092
     29          1           0        1.697961   -1.138072   -1.756502
     30          1           0        3.906046    1.121472    1.148681
     31          1           0        2.553160    3.159005    0.602566
     32          7           0        3.658334   -1.292237    0.043834
     33          8           0        4.525989   -1.177235    0.906728
     34          8           0        3.403426   -2.325960   -0.570232
 ---------------------------------------------------------------------

 SCF Done:  E(RHF) =  -669.533600592     A.U. after   15 cycles
 E2 =    -0.2095247951D+01 EUMP2 =    -0.67162884854265D+03

 The electronic state is 1-A.
 Alpha  occ. eigenvalues --  -20.60833 -20.60828 -15.85887 -11.31285 -11.27822
 Alpha  occ. eigenvalues --  -11.27815 -11.27565 -11.26855 -11.26845 -11.21889
 Alpha  occ. eigenvalues --  -11.21762 -11.21714 -11.21619 -11.21337 -11.21110
 Alpha  occ. eigenvalues --   -1.59909  -1.39460  -1.19467  -1.08861  -1.08687
 Alpha  occ. eigenvalues --   -1.04862  -1.03749  -0.96199  -0.95673  -0.87219
 Alpha  occ. eigenvalues --   -0.86257  -0.82503  -0.79834  -0.78535  -0.77541
 Alpha  occ. eigenvalues --   -0.72102  -0.71238  -0.70545  -0.65371  -0.65100
 Alpha  occ. eigenvalues --   -0.64848  -0.62203  -0.61188  -0.59659  -0.57917
 Alpha  occ. eigenvalues --   -0.55557  -0.55348  -0.53579  -0.52951  -0.52695
 Alpha  occ. eigenvalues --   -0.52093  -0.50152  -0.48867  -0.48856  -0.48158
 Alpha  occ. eigenvalues --   -0.46892  -0.46079  -0.46005  -0.44856  -0.44017
 Alpha  occ. eigenvalues --   -0.37398  -0.36355
 Alpha virt. eigenvalues --    0.04971   0.11109   0.16422   0.20895   0.22743
 Alpha virt. eigenvalues --    0.24192   0.25869   0.26609   0.27644   0.28215
 Alpha virt. eigenvalues --    0.28268   0.30614   0.31310   0.31520   0.31924

 Mulliken charges:
               1
     1  C   -0.297474
     2  C   -0.299568
     3  C   -0.475747
     4  H    0.144208
     5  H    0.151393
     6  H    0.150872
     7  H    0.153571
     8  H    0.156335
     9  H    0.153753
    10  H    0.161093
    11  C   -0.297914
    12  C   -0.300571
    13  C   -0.476659
    14  H    0.146233
    15  H    0.151536
    16  H    0.146393
    17  H    0.153399
    18  H    0.155425
    19  H    0.147895
    20  H    0.167218
    21  C   -0.169001
    22  C   -0.216135
    23  C   -0.170396
    24  C    0.159040
    25  C   -0.174440
    26  C   -0.214506
    27  H    0.225736
    28  H    0.224049
    29  H    0.276318
    30  H    0.276110
    31  H    0.224056
    32  N    0.487821
    33  O   -0.460014
    34  O   -0.460030
 Sum of Mulliken charges =  -0.00000

 Dipole moment (field-independent basis, Debye):
    X=             -2.7185    Y=              4.2232    Z=             -1.1640  Tot=              5.1556
 Quadrupole moment (field-independent basis, Debye-Ang):
   XX=           -110.7956   YY=            -93.9035   ZZ=            -92.5241
   XY=             14.0073   XZ=             -1.1229   YZ=              0.1705

 Normal termination of Gaussian 16 at Thu May  6 05:45:40 2021.
