 Gaussian 16, Revision A.03,
 Gaussian 16:  EM64L-G16RevA.03 25-Dec-2016

 -------------
 #p 6-31g* mp2
 -------------

 ------------------------------------------------------
 Input file generated by CHIRIPA (05-May-2021 14:55:24)
 ------------------------------------------------------
 Symbolic Z-matrix:
 Charge =  0 Multiplicity = 1

                         Standard orientation:
 ---------------------------------------------------------------------
 Center     Atomic      Atomic             Coordinates (Angstroms)
 Number     Number       Type             X           Y           Z
 ---------------------------------------------------------------------
      1          6           0       -1.180559    1.347245    0.706477
      2          6           0       -2.196687    2.136652    0.157990
      3          6           0       -3.430512    1.572264   -0.179192
      4          6           0       -3.614761    0.209046    0.046592
      5          6           0       -2.621937   -0.603789    0.591467
      6          6           0       -1.396047   -0.018050    0.921087
      7          1           0       -0.225176    1.793968    0.965471
      8          1           0       -2.032153    3.197230   -0.009785
      9          1           0       -4.234433    2.160165   -0.605221
     10          1           0       -2.815626   -1.658159    0.747055
     11          1           0       -0.608718   -0.633549    1.346902
     12          7           0       -4.916756   -0.399749   -0.306365
     13          8           0       -5.054029   -1.603166   -0.097607
     14          8           0       -5.775333    0.338023   -0.785087
     15          6           0        4.802202    0.186887   -0.337040
     16          6           0        6.245251    0.035415    0.145298
     17          6           0        7.133166    1.209376   -0.268484
     18          1           0        4.796434    0.284982   -1.431247
     19          1           0        4.385525    1.121718    0.062791
     20          1           0        6.658632   -0.899540   -0.254193
     21          1           0        6.247571   -0.062525    1.238468
     22          1           0        6.747226    2.147866    0.142476
     23          1           0        7.160623    1.306094   -1.358665
     24          1           0        8.160362    1.080515    0.086653
     25          6           0        3.902251   -0.978905    0.068846
     26          6           0        2.459202   -0.827434   -0.413492
     27          6           0        1.571286   -2.001395    0.000291
     28          1           0        4.318927   -1.913738   -0.330984
     29          1           0        3.908018   -1.077002    1.163054
     30          1           0        2.456882   -0.729495   -1.506661
     31          1           0        2.045821    0.107521   -0.014001
     32          1           0        1.543830   -2.098114    1.090471
     33          1           0        1.957227   -2.939885   -0.410670
     34          1           0        0.544091   -1.872534   -0.354847
 ---------------------------------------------------------------------

 SCF Done:  E(RHF) =  -669.534763934     A.U. after   15 cycles
 E2 =    -0.2092271067D+01 EUMP2 =    -0.67162703500084D+03

 The electronic state is 1-A.
 Alpha  occ. eigenvalues --  -20.60744 -20.60739 -15.85796 -11.31166 -11.27727
 Alpha  occ. eigenvalues --  -11.27711 -11.27460 -11.26751 -11.26659 -11.22565
 Alpha  occ. eigenvalues --  -11.22170 -11.22154 -11.22046 -11.22042 -11.21560
 Alpha  occ. eigenvalues --   -1.59819  -1.39373  -1.19333  -1.09182  -1.08726
 Alpha  occ. eigenvalues --   -1.04745  -1.04278  -0.96739  -0.95562  -0.87770
 Alpha  occ. eigenvalues --   -0.86121  -0.82396  -0.80355  -0.78966  -0.77443
 Alpha  occ. eigenvalues --   -0.72015  -0.71142  -0.70443  -0.65852  -0.64980
 Alpha  occ. eigenvalues --   -0.64769  -0.62215  -0.61593  -0.60066  -0.58322
 Alpha  occ. eigenvalues --   -0.56040  -0.55236  -0.53557  -0.53214  -0.52979
 Alpha  occ. eigenvalues --   -0.52649  -0.50655  -0.48773  -0.48769  -0.48655
 Alpha  occ. eigenvalues --   -0.47397  -0.46510  -0.46429  -0.44778  -0.44524
 Alpha  occ. eigenvalues --   -0.37303  -0.36309
 Alpha virt. eigenvalues --    0.05065   0.11247   0.16475   0.19715   0.22620
 Alpha virt. eigenvalues --    0.23981   0.25243   0.25945   0.26811   0.28122
 Alpha virt. eigenvalues --    0.28851   0.29998   0.30916   0.31183   0.31994

 Mulliken charges:
               1
     1  C   -0.174022
     2  C   -0.218417
     3  C   -0.171182
     4  C    0.159065
     5  C   -0.174572
     6  C   -0.220154
     7  H    0.225707
     8  H    0.223313
     9  H    0.275479
    10  H    0.275959
    11  H    0.233370
    12  N    0.488045
    13  O   -0.460357
    14  O   -0.460529
    15  C   -0.298169
    16  C   -0.300159
    17  C   -0.476009
    18  H    0.151580
    19  H    0.146618
    20  H    0.153672
    21  H    0.152166
    22  H    0.154633
    23  H    0.156203
    24  H    0.162066
    25  C   -0.298766
    26  C   -0.298934
    27  C   -0.485842
    28  H    0.153069
    29  H    0.149097
    30  H    0.157694
    31  H    0.142565
    32  H    0.149289
    33  H    0.162790
    34  H    0.164732
 Sum of Mulliken charges =  -0.00000

 Dipole moment (field-independent basis, Debye):
    X=              4.7560    Y=              2.0936    Z=              1.1682  Tot=              5.3261
 Quadrupole moment (field-independent basis, Debye-Ang):
   XX=           -127.8985   YY=            -90.2713   ZZ=            -94.2009
   XY=             -9.3994   XZ=             -3.9605   YZ=             -0.5576

 Normal termination of Gaussian 16 at Thu May  6 11:02:02 2021.
