 Gaussian 16, Revision A.03,
 Gaussian 16:  EM64L-G16RevA.03 25-Dec-2016

 -------------
 #p 6-31g* mp2
 -------------

 ------------------------------------------------------
 Input file generated by CHIRIPA (05-May-2021 14:55:24)
 ------------------------------------------------------
 Symbolic Z-matrix:
 Charge =  0 Multiplicity = 1

                         Standard orientation:
 ---------------------------------------------------------------------
 Center     Atomic      Atomic             Coordinates (Angstroms)
 Number     Number       Type             X           Y           Z
 ---------------------------------------------------------------------
      1          6           0        4.363591    2.053168    0.308067
      2          6           0        3.031474    2.075080    0.734100
      3          6           0        2.213825    0.953548    0.566281
      4          6           0        2.763443   -0.178133   -0.034144
      5          6           0        4.086822   -0.230855   -0.469090
      6          6           0        4.886093    0.902299   -0.291112
      7          1           0        4.991622    2.928915    0.442379
      8          1           0        2.623007    2.967477    1.199749
      9          1           0        1.179154    0.943256    0.886854
     10          1           0        4.465704   -1.135017   -0.929912
     11          1           0        5.920277    0.882425   -0.622943
     12          7           0        1.907563   -1.371601   -0.217184
     13          8           0        2.415667   -2.356306   -0.748995
     14          8           0        0.744826   -1.299738    0.174627
     15          6           0       -3.599421   -0.620580    0.466866
     16          6           0       -2.940799   -1.808857   -0.234704
     17          6           0       -2.710562   -2.995057    0.702159
     18          1           0       -2.970115   -0.306368    1.310779
     19          1           0       -4.558808   -0.942330    0.895173
     20          1           0       -1.983584   -1.484614   -0.662751
     21          1           0       -3.571650   -2.120153   -1.077162
     22          1           0       -3.659806   -3.346155    1.119613
     23          1           0       -2.062716   -2.707005    1.536379
     24          1           0       -2.238834   -3.833345    0.180042
     25          6           0       -3.836105    0.573054   -0.456687
     26          6           0       -4.494727    1.761330    0.244883
     27          6           0       -4.724963    2.947532   -0.691979
     28          1           0       -2.876717    0.894804   -0.884993
     29          1           0       -4.465411    0.258842   -1.300600
     30          1           0       -3.863875    2.072628    1.087343
     31          1           0       -5.451941    1.437089    0.672931
     32          1           0       -5.372809    2.659479   -1.526199
     33          1           0       -3.775720    3.298629   -1.109434
     34          1           0       -5.196692    3.785819   -0.169862
 ---------------------------------------------------------------------

 SCF Done:  E(RHF) =  -669.536131806     A.U. after   15 cycles
 E2 =    -0.2091191449D+01 EUMP2 =    -0.67162732325477D+03

 The electronic state is 1-A.
 Alpha  occ. eigenvalues --  -20.60995 -20.60986 -15.86027 -11.31335 -11.27900
 Alpha  occ. eigenvalues --  -11.27891 -11.27629 -11.26900 -11.26890 -11.21200
 Alpha  occ. eigenvalues --  -11.20810 -11.20741 -11.20444 -11.20150 -11.19616
 Alpha  occ. eigenvalues --   -1.60053  -1.39610  -1.19502  -1.08908  -1.07618
 Alpha  occ. eigenvalues --   -1.04896  -1.02632  -0.95753  -0.95117  -0.86297
 Alpha  occ. eigenvalues --   -0.86147  -0.82588  -0.78779  -0.77646  -0.77341
 Alpha  occ. eigenvalues --   -0.72257  -0.71366  -0.70610  -0.65162  -0.64899
 Alpha  occ. eigenvalues --   -0.64244  -0.62245  -0.60002  -0.58565  -0.56696
 Alpha  occ. eigenvalues --   -0.55400  -0.54410  -0.53228  -0.52987  -0.51819
 Alpha  occ. eigenvalues --   -0.51547  -0.49109  -0.49000  -0.48987  -0.47074
 Alpha  occ. eigenvalues --   -0.45846  -0.45134  -0.44905  -0.44585  -0.42909
 Alpha  occ. eigenvalues --   -0.37478  -0.36497
 Alpha virt. eigenvalues --    0.04866   0.11158   0.16350   0.21209   0.23473
 Alpha virt. eigenvalues --    0.25163   0.26959   0.27407   0.28241   0.28493
 Alpha virt. eigenvalues --    0.28858   0.30924   0.32115   0.32407   0.32714

 Mulliken charges:
               1
     1  C   -0.170548
     2  C   -0.218483
     3  C   -0.170798
     4  C    0.157825
     5  C   -0.170563
     6  C   -0.218545
     7  H    0.226190
     8  H    0.224006
     9  H    0.275148
    10  H    0.275987
    11  H    0.223988
    12  N    0.491681
    13  O   -0.458393
    14  O   -0.463678
    15  C   -0.297071
    16  C   -0.305235
    17  C   -0.471604
    18  H    0.147559
    19  H    0.145333
    20  H    0.173472
    21  H    0.144340
    22  H    0.145025
    23  H    0.159671
    24  H    0.163040
    25  C   -0.297515
    26  C   -0.298471
    27  C   -0.474862
    28  H    0.148033
    29  H    0.148749
    30  H    0.148103
    31  H    0.151700
    32  H    0.155556
    33  H    0.152448
    34  H    0.157912
 Sum of Mulliken charges =  -0.00000

 Dipole moment (field-independent basis, Debye):
    X=              3.3636    Y=              4.1244    Z=              0.6075  Tot=              5.3566
 Quadrupole moment (field-independent basis, Debye-Ang):
   XX=            -75.6226   YY=            -96.5778   ZZ=            -95.0145
   XY=              9.7428   XZ=              0.0105   YZ=              1.7057

 Normal termination of Gaussian 16 at Thu May  6 15:59:47 2021.
