 Gaussian 16, Revision A.03,
 Gaussian 16:  EM64L-G16RevA.03 25-Dec-2016

 -------------
 #p 6-31g* mp2
 -------------

 ------------------------------------------------------
 Input file generated by CHIRIPA (05-May-2021 14:53:17)
 ------------------------------------------------------
 Symbolic Z-matrix:
 Charge =  0 Multiplicity = 1

                         Standard orientation:
 ---------------------------------------------------------------------
 Center     Atomic      Atomic             Coordinates (Angstroms)
 Number     Number       Type             X           Y           Z
 ---------------------------------------------------------------------
      1          6           0        3.503934    0.038851   -0.299712
      2          6           0        3.583713   -1.285821    0.459804
      3          6           0        4.419406   -2.337001   -0.271243
      4          1           0        3.078062   -0.142171   -1.296110
      5          1           0        4.520678    0.423658   -0.459558
      6          1           0        2.567048   -1.667322    0.619382
      7          1           0        4.009267   -1.101593    1.454581
      8          1           0        5.444332   -1.980929   -0.417325
      9          1           0        3.993919   -2.549872   -1.257269
     10          1           0        4.463134   -3.276013    0.289296
     11          6           0        2.671862    1.099796    0.418468
     12          6           0        2.592083    2.424468   -0.341048
     13          6           0        1.756390    3.475648    0.389999
     14          1           0        1.655118    0.714989    0.578314
     15          1           0        3.097734    1.280818    1.414866
     16          1           0        2.166529    2.240240   -1.335824
     17          1           0        3.608748    2.805969   -0.500626
     18          1           0        2.181877    3.688519    1.376025
     19          1           0        0.731464    3.119576    0.536081
     20          1           0        1.712662    4.414661   -0.170540
     21          6           0       -3.939167    1.563230   -0.099737
     22          6           0       -2.566089    1.721968   -0.314167
     23          6           0       -1.710733    0.616451   -0.286880
     24          6           0       -2.264820   -0.638911   -0.041231
     25          6           0       -3.628549   -0.829415    0.176126
     26          6           0       -4.465087    0.290289    0.144296
     27          1           0       -4.596319    2.427533   -0.122699
     28          1           0       -2.154869    2.709357   -0.503919
     29          1           0       -0.643946    0.710797   -0.449607
     30          1           0       -4.009139   -1.826265    0.362830
     31          1           0       -5.531039    0.164020    0.311168
     32          7           0       -1.369253   -1.816782   -0.009938
     33          8           0       -1.882171   -2.912144    0.208545
     34          8           0       -0.171348   -1.622333   -0.204488
 ---------------------------------------------------------------------

 SCF Done:  E(RHF) =  -669.536158446     A.U. after   15 cycles
 E2 =    -0.2093054784D+01 EUMP2 =    -0.67162921323046D+03

 The electronic state is 1-A.
 Alpha  occ. eigenvalues --  -20.61028 -20.61015 -15.86051 -11.31322 -11.27880
 Alpha  occ. eigenvalues --  -11.27867 -11.27604 -11.26878 -11.26862 -11.21649
 Alpha  occ. eigenvalues --  -11.21460 -11.21017 -11.20667 -11.20408 -11.20072
 Alpha  occ. eigenvalues --   -1.60079  -1.39639  -1.19486  -1.08898  -1.07955
 Alpha  occ. eigenvalues --   -1.04876  -1.03058  -0.95750  -0.95560  -0.86594
 Alpha  occ. eigenvalues --   -0.86276  -0.82589  -0.79201  -0.77765  -0.77508
 Alpha  occ. eigenvalues --   -0.72288  -0.71387  -0.70601  -0.65153  -0.64928
 Alpha  occ. eigenvalues --   -0.64549  -0.62222  -0.60423  -0.59023  -0.57117
 Alpha  occ. eigenvalues --   -0.55379  -0.54881  -0.53206  -0.52967  -0.52302
 Alpha  occ. eigenvalues --   -0.51968  -0.49560  -0.49039  -0.49025  -0.47483
 Alpha  occ. eigenvalues --   -0.46216  -0.45324  -0.45166  -0.44711  -0.43289
 Alpha  occ. eigenvalues --   -0.37459  -0.36468
 Alpha virt. eigenvalues --    0.04832   0.11152   0.16309   0.19119   0.23112
 Alpha virt. eigenvalues --    0.24415   0.26377   0.26681   0.27910   0.28311
 Alpha virt. eigenvalues --    0.29751   0.31151   0.31832   0.32069   0.32752

 Mulliken charges:
               1
     1  C   -0.294889
     2  C   -0.310613
     3  C   -0.474881
     4  H    0.151630
     5  H    0.144742
     6  H    0.181228
     7  H    0.144894
     8  H    0.148770
     9  H    0.157373
    10  H    0.159966
    11  C   -0.306347
    12  C   -0.301361
    13  C   -0.475718
    14  H    0.156646
    15  H    0.149133
    16  H    0.148354
    17  H    0.154425
    18  H    0.159394
    19  H    0.143342
    20  H    0.159039
    21  C   -0.170156
    22  C   -0.222136
    23  C   -0.175345
    24  C    0.155808
    25  C   -0.169766
    26  C   -0.218791
    27  H    0.226355
    28  H    0.226273
    29  H    0.284902
    30  H    0.275869
    31  H    0.223974
    32  N    0.493064
    33  O   -0.457996
    34  O   -0.467179
 Sum of Mulliken charges =  -0.00000

 Dipole moment (field-independent basis, Debye):
    X=             -3.3346    Y=              3.9531    Z=             -0.0922  Tot=              5.1725
 Quadrupole moment (field-independent basis, Debye-Ang):
   XX=            -77.6621   YY=            -99.4822   ZZ=            -95.4428
   XY=             -4.1550   XZ=              0.1814   YZ=             -0.9376

 Normal termination of Gaussian 16 at Wed May  5 22:03:23 2021.
