 Gaussian 16, Revision A.03,
 Gaussian 16:  EM64L-G16RevA.03 25-Dec-2016

 -------------
 #p 6-31g* mp2
 -------------

 ------------------------------------------------------
 Input file generated by CHIRIPA (05-May-2021 14:51:11)
 ------------------------------------------------------
 Symbolic Z-matrix:
 Charge =  0 Multiplicity = 1

                         Standard orientation:
 ---------------------------------------------------------------------
 Center     Atomic      Atomic             Coordinates (Angstroms)
 Number     Number       Type             X           Y           Z
 ---------------------------------------------------------------------
      1          6           0        3.418394    0.802113   -0.279262
      2          6           0        3.055964    1.871241    0.752046
      3          6           0        3.874952    3.151997    0.588597
      4          1           0        4.488456    0.568062   -0.194812
      5          1           0        3.266225    1.209471   -1.288370
      6          1           0        3.207451    1.461525    1.758923
      7          1           0        1.986599    2.102636    0.665261
      8          1           0        3.716232    3.586773   -0.403561
      9          1           0        4.944021    2.942020    0.696315
     10          1           0        3.599665    3.902684    1.335957
     11          6           0        2.608107   -0.484166   -0.128765
     12          6           0        2.970538   -1.553294   -1.160072
     13          6           0        2.151549   -2.834050   -0.996623
     14          1           0        2.760276   -0.891524    0.880343
     15          1           0        1.538045   -0.250115   -0.213214
     16          1           0        4.039902   -1.784688   -1.073287
     17          1           0        2.819050   -1.143578   -2.166949
     18          1           0        1.082480   -2.624073   -1.104341
     19          1           0        2.310269   -3.268826   -0.004465
     20          1           0        2.426837   -3.584736   -1.743983
     21          6           0       -3.251583    0.564842    0.256176
     22          6           0       -4.162799    0.987762   -0.896564
     23          6           0       -4.631359    2.438353   -0.778110
     24          1           0       -3.785147    0.702869    1.206545
     25          1           0       -2.378780    1.231623    0.288029
     26          1           0       -5.032934    0.319520   -0.927091
     27          1           0       -3.627070    0.848531   -1.844310
     28          1           0       -3.774992    3.120391   -0.770324
     29          1           0       -5.188843    2.588373    0.152108
     30          1           0       -5.281514    2.719634   -1.612401
     31          6           0       -2.774919   -0.882789    0.151850
     32          6           0       -1.863703   -1.305710    1.304590
     33          6           0       -1.395142   -2.756301    1.186136
     34          1           0       -3.647720   -1.549571    0.119998
     35          1           0       -2.241354   -1.020817   -0.798519
     36          1           0       -2.399430   -1.166479    2.252337
     37          1           0       -0.993567   -0.637467    1.335117
     38          1           0       -0.837658   -2.906321    0.255918
     39          1           0       -2.251510   -3.438338    1.178350
     40          1           0       -0.744988   -3.037581    2.020427
 ---------------------------------------------------------------------

 SCF Done:  E(RHF) =  -470.733173085     A.U. after   11 cycles
 E2 =    -0.1583104495D+01 EUMP2 =    -0.47231627758035D+03

 The electronic state is 1-A.
 Alpha  occ. eigenvalues --  -11.21642 -11.21641 -11.21614 -11.21561 -11.21453
 Alpha  occ. eigenvalues --  -11.21412 -11.21392 -11.21352 -11.21101 -11.21089
 Alpha  occ. eigenvalues --  -11.21083 -11.20971  -1.08477  -1.08424  -1.03577
 Alpha  occ. eigenvalues --   -1.03502  -0.96034  -0.95944  -0.87069  -0.86943
 Alpha  occ. eigenvalues --   -0.79659  -0.79547  -0.78289  -0.78240  -0.65163
 Alpha  occ. eigenvalues --   -0.65008  -0.61063  -0.60834  -0.59380  -0.59328
 Alpha  occ. eigenvalues --   -0.57689  -0.57531  -0.55415  -0.55160  -0.52709
 Alpha  occ. eigenvalues --   -0.52661  -0.52532  -0.52301  -0.50094  -0.49766
 Alpha  occ. eigenvalues --   -0.48042  -0.47795  -0.46705  -0.46526  -0.45932
 Alpha  occ. eigenvalues --   -0.45769  -0.45703  -0.45615  -0.43824  -0.43771
 Alpha virt. eigenvalues --    0.20279   0.23292   0.23494   0.24843   0.25772
 Alpha virt. eigenvalues --    0.26100   0.26844   0.27666   0.28852   0.29214
 Alpha virt. eigenvalues --    0.30100   0.31358   0.31619   0.31863   0.32172

 Mulliken charges:
               1
     1  C   -0.298301
     2  C   -0.299575
     3  C   -0.475734
     4  H    0.149983
     5  H    0.149482
     6  H    0.152181
     7  H    0.151349
     8  H    0.155187
     9  H    0.155325
    10  H    0.160438
    11  C   -0.300363
    12  C   -0.299761
    13  C   -0.479107
    14  H    0.150039
    15  H    0.150914
    16  H    0.152246
    17  H    0.151721
    18  H    0.158216
    19  H    0.156379
    20  H    0.160460
    21  C   -0.298103
    22  C   -0.299632
    23  C   -0.475686
    24  H    0.149913
    25  H    0.148902
    26  H    0.152069
    27  H    0.151710
    28  H    0.155052
    29  H    0.155282
    30  H    0.160283
    31  C   -0.298205
    32  C   -0.302103
    33  C   -0.479932
    34  H    0.149798
    35  H    0.148296
    36  H    0.151836
    37  H    0.154039
    38  H    0.160972
    39  H    0.154491
    40  H    0.159937
 Sum of Mulliken charges =  -0.00000

 Dipole moment (field-independent basis, Debye):
    X=              0.0335    Y=             -0.0131    Z=              0.0025  Tot=              0.0360
 Quadrupole moment (field-independent basis, Debye-Ang):
   XX=            -83.9780   YY=            -86.5626   ZZ=            -84.1145
   XY=             -0.1341   XZ=              0.0053   YZ=             -0.3436

 Normal termination of Gaussian 16 at Thu May  6 05:27:15 2021.
