 Gaussian 16, Revision A.03,
 Gaussian 16:  EM64L-G16RevA.03 25-Dec-2016

 -------------
 #p 6-31g* mp2
 -------------

 ------------------------------------------------------
 Input file generated by CHIRIPA (05-May-2021 14:51:08)
 ------------------------------------------------------
 Symbolic Z-matrix:
 Charge =  0 Multiplicity = 1

                         Standard orientation:
 ---------------------------------------------------------------------
 Center     Atomic      Atomic             Coordinates (Angstroms)
 Number     Number       Type             X           Y           Z
 ---------------------------------------------------------------------
      1          6           0       -2.870740   -0.237513    0.034329
      2          6           0       -4.392074   -0.256984   -0.117818
      3          6           0       -5.012958    1.137432   -0.028940
      4          1           0       -2.610878    0.220347    0.998581
      5          1           0       -2.439595    0.407140   -0.744087
      6          1           0       -4.820120   -0.902510    0.659800
      7          1           0       -4.648350   -0.715025   -1.081735
      8          1           0       -4.613549    1.787721   -0.813923
      9          1           0       -4.786294    1.599171    0.937508
     10          1           0       -6.101113    1.100220   -0.140272
     11          6           0       -2.235447   -1.624102   -0.052284
     12          6           0       -0.714113   -1.604631    0.099863
     13          6           0       -0.093229   -2.999047    0.010985
     14          1           0       -2.666591   -2.268755    0.726133
     15          1           0       -2.495309   -2.081962   -1.016536
     16          1           0       -0.457836   -1.146590    1.063780
     17          1           0       -0.286067   -0.959105   -0.677755
     18          1           0       -0.319892   -3.460786   -0.955462
     19          1           0       -0.492638   -3.649336    0.795968
     20          1           0        0.994926   -2.961835    0.122317
     21          6           0        2.361933    1.643444   -0.188605
     22          6           0        0.998519    2.077191    0.350794
     23          6           0        0.630137    3.505174   -0.052879
     24          1           0        3.131005    2.338707    0.174828
     25          1           0        2.358256    1.726351   -1.284282
     26          1           0        1.004311    1.992173    1.445031
     27          1           0        0.232631    1.380703   -0.013809
     28          1           0        0.596669    3.600865   -1.142982
     29          1           0        1.372734    4.215809    0.324147
     30          1           0       -0.348185    3.794646    0.343291
     31          6           0        2.744254    0.218171    0.206559
     32          6           0        4.107667   -0.215576   -0.332840
     33          6           0        4.476050   -1.643559    0.070834
     34          1           0        2.747931    0.135264    1.302237
     35          1           0        1.975181   -0.477092   -0.156873
     36          1           0        4.873556    0.480911    0.031764
     37          1           0        4.101876   -0.130558   -1.427076
     38          1           0        3.733453   -2.354194   -0.306192
     39          1           0        4.509518   -1.739249    1.160936
     40          1           0        5.454372   -1.933031   -0.325336
 ---------------------------------------------------------------------

 SCF Done:  E(RHF) =  -470.731922186     A.U. after   11 cycles
 E2 =    -0.1585291516D+01 EUMP2 =    -0.47231721370166D+03

 The electronic state is 1-A.
 Alpha  occ. eigenvalues --  -11.21633 -11.21628 -11.21556 -11.21465 -11.21445
 Alpha  occ. eigenvalues --  -11.21386 -11.21316 -11.21235 -11.21113 -11.21092
 Alpha  occ. eigenvalues --  -11.21070 -11.21002  -1.08507  -1.08337  -1.03578
 Alpha  occ. eigenvalues --   -1.03471  -0.96033  -0.95918  -0.87038  -0.86943
 Alpha  occ. eigenvalues --   -0.79704  -0.79531  -0.78523  -0.77932  -0.65209
 Alpha  occ. eigenvalues --   -0.64929  -0.60970  -0.60888  -0.59419  -0.59285
 Alpha  occ. eigenvalues --   -0.57734  -0.57453  -0.55324  -0.55200  -0.52752
 Alpha  occ. eigenvalues --   -0.52606  -0.52463  -0.52331  -0.49965  -0.49872
 Alpha  occ. eigenvalues --   -0.48113  -0.47794  -0.46766  -0.46627  -0.46217
 Alpha  occ. eigenvalues --   -0.45835  -0.45595  -0.44917  -0.43820  -0.43706
 Alpha virt. eigenvalues --    0.21079   0.22305   0.23439   0.24559   0.25666
 Alpha virt. eigenvalues --    0.26162   0.26832   0.27238   0.27493   0.29715
 Alpha virt. eigenvalues --    0.30731   0.31341   0.31748   0.31883   0.32777

 Mulliken charges:
               1
     1  C   -0.300014
     2  C   -0.299682
     3  C   -0.475747
     4  H    0.150722
     5  H    0.150041
     6  H    0.152132
     7  H    0.151957
     8  H    0.155313
     9  H    0.155240
    10  H    0.160377
    11  C   -0.297426
    12  C   -0.303959
    13  C   -0.481301
    14  H    0.149649
    15  H    0.149350
    16  H    0.155805
    17  H    0.152443
    18  H    0.154983
    19  H    0.156039
    20  H    0.164504
    21  C   -0.297509
    22  C   -0.307324
    23  C   -0.475370
    24  H    0.149176
    25  H    0.148166
    26  H    0.150549
    27  H    0.161677
    28  H    0.154262
    29  H    0.154741
    30  H    0.160221
    31  C   -0.308593
    32  C   -0.298824
    33  C   -0.478373
    34  H    0.148214
    35  H    0.163112
    36  H    0.151725
    37  H    0.151327
    38  H    0.156755
    39  H    0.155204
    40  H    0.160441
 Sum of Mulliken charges =  -0.00000

 Dipole moment (field-independent basis, Debye):
    X=             -0.0571    Y=             -0.0434    Z=              0.0132  Tot=              0.0730
 Quadrupole moment (field-independent basis, Debye-Ang):
   XX=            -85.2514   YY=            -86.7190   ZZ=            -83.0626
   XY=              1.0801   XZ=              0.1961   YZ=              0.3403

 Normal termination of Gaussian 16 at Thu May  6 05:18:13 2021.
