 Gaussian 16, Revision A.03,
 Gaussian 16:  EM64L-G16RevA.03 25-Dec-2016

 -------------
 #p 6-31g* mp2
 -------------

 ------------------------------------------------------
 Input file generated by CHIRIPA (05-May-2021 14:55:22)
 ------------------------------------------------------
 Symbolic Z-matrix:
 Charge =  0 Multiplicity = 1

                         Standard orientation:
 ---------------------------------------------------------------------
 Center     Atomic      Atomic             Coordinates (Angstroms)
 Number     Number       Type             X           Y           Z
 ---------------------------------------------------------------------
      1          6           0        0.596828   -0.103728    0.926108
      2          6           0        1.451901   -1.179053    1.188878
      3          6           0        2.779876   -1.153262    0.752568
      4          6           0        3.221482   -0.031231    0.053052
      5          6           0        2.393921    1.055743   -0.224292
      6          6           0        1.069733    1.008277    0.221603
      7          1           0       -0.433303   -0.132182    1.268767
      8          1           0        1.087371   -2.043956    1.735783
      9          1           0        3.463347   -1.971976    0.942284
     10          1           0        2.786111    1.904168   -0.771813
     11          1           0        0.407926    1.844831    0.016095
     12          7           0        4.625345    0.007546   -0.413923
     13          8           0        4.990078    1.007667   -1.028223
     14          8           0        5.334377   -0.962917   -0.156797
     15          6           0       -4.256846   -0.582734   -0.196958
     16          6           0       -3.447825   -1.855425   -0.449401
     17          6           0       -4.321060   -3.109156   -0.507844
     18          1           0       -4.811439   -0.689285    0.745389
     19          1           0       -5.008200   -0.470694   -0.990879
     20          1           0       -2.697306   -1.964297    0.343999
     21          1           0       -2.894944   -1.745755   -1.391160
     22          1           0       -5.060603   -3.026438   -1.310860
     23          1           0       -4.861842   -3.246221    0.434159
     24          1           0       -3.722415   -4.007272   -0.689147
     25          6           0       -3.397832    0.679047   -0.135882
     26          6           0       -4.206853    1.951738    0.116561
     27          6           0       -3.333618    3.205468    0.175003
     28          1           0       -2.646479    0.567008    0.658039
     29          1           0       -2.843239    0.785598   -1.078229
     30          1           0       -4.759735    1.842069    1.058321
     31          1           0       -4.957373    2.060611   -0.676839
     32          1           0       -2.792836    3.342534   -0.766998
     33          1           0       -2.594075    3.122751    0.978020
     34          1           0       -3.932263    4.103585    0.356307
 ---------------------------------------------------------------------

 SCF Done:  E(RHF) =  -669.535559047     A.U. after   15 cycles
 E2 =    -0.2091718633D+01 EUMP2 =    -0.67162727768004D+03

 The electronic state is 1-A.
 Alpha  occ. eigenvalues --  -20.60703 -20.60698 -15.85757 -11.31104 -11.27676
 Alpha  occ. eigenvalues --  -11.27668 -11.27376 -11.26682 -11.26655 -11.22619
 Alpha  occ. eigenvalues --  -11.22560 -11.22535 -11.22329 -11.22105 -11.21808
 Alpha  occ. eigenvalues --   -1.59780  -1.39334  -1.19273  -1.09456  -1.08666
 Alpha  occ. eigenvalues --   -1.04675  -1.04477  -0.96934  -0.95508  -0.87944
 Alpha  occ. eigenvalues --   -0.86070  -0.82345  -0.80547  -0.79299  -0.77392
 Alpha  occ. eigenvalues --   -0.71975  -0.71103  -0.70398  -0.66083  -0.64923
 Alpha  occ. eigenvalues --   -0.64672  -0.62026  -0.61865  -0.60295  -0.58552
 Alpha  occ. eigenvalues --   -0.56251  -0.55180  -0.53582  -0.53352  -0.53002
 Alpha  occ. eigenvalues --   -0.52762  -0.50870  -0.48863  -0.48732  -0.48729
 Alpha  occ. eigenvalues --   -0.47586  -0.46801  -0.46727  -0.44753  -0.44743
 Alpha  occ. eigenvalues --   -0.37240  -0.36282
 Alpha virt. eigenvalues --    0.05133   0.11358   0.16592   0.18890   0.22502
 Alpha virt. eigenvalues --    0.22811   0.24673   0.25974   0.26373   0.28042
 Alpha virt. eigenvalues --    0.30266   0.30367   0.30827   0.31369   0.31526

 Mulliken charges:
               1
     1  C   -0.173987
     2  C   -0.219865
     3  C   -0.170919
     4  C    0.158265
     5  C   -0.171102
     6  C   -0.222722
     7  H    0.232696
     8  H    0.223117
     9  H    0.275190
    10  H    0.275342
    11  H    0.225523
    12  N    0.488038
    13  O   -0.460690
    14  O   -0.460710
    15  C   -0.298849
    16  C   -0.299649
    17  C   -0.476386
    18  H    0.151341
    19  H    0.154049
    20  H    0.143691
    21  H    0.155771
    22  H    0.158143
    23  H    0.156023
    24  H    0.162406
    25  C   -0.303005
    26  C   -0.299504
    27  C   -0.477965
    28  H    0.140026
    29  H    0.152599
    30  H    0.154567
    31  H    0.156609
    32  H    0.155121
    33  H    0.150820
    34  H    0.166018
 Sum of Mulliken charges =  -0.00000

 Dipole moment (field-independent basis, Debye):
    X=             -5.2396    Y=             -0.1335    Z=              1.5467  Tot=              5.4648
 Quadrupole moment (field-independent basis, Debye-Ang):
   XX=           -126.3424   YY=            -91.3973   ZZ=            -93.4671
   XY=             -1.7005   XZ=              5.7967   YZ=             -2.3243

 Normal termination of Gaussian 16 at Thu May  6 19:12:10 2021.
