 Gaussian 16, Revision A.03,
 Gaussian 16:  EM64L-G16RevA.03 25-Dec-2016

 -------------
 #p 6-31g* mp2
 -------------

 ------------------------------------------------------
 Input file generated by CHIRIPA (05-May-2021 14:57:23)
 ------------------------------------------------------
 Symbolic Z-matrix:
 Charge =  0 Multiplicity = 1

                         Standard orientation:
 ---------------------------------------------------------------------
 Center     Atomic      Atomic             Coordinates (Angstroms)
 Number     Number       Type             X           Y           Z
 ---------------------------------------------------------------------
      1          6           0        1.778449    0.977021   -0.582355
      2          6           0        2.779387    1.743935    0.023026
      3          6           0        4.015695    1.174059    0.341354
      4          6           0        4.217891   -0.171650    0.038906
      5          6           0        3.240479   -0.961912   -0.563955
      6          6           0        2.011778   -0.371078   -0.873400
      7          1           0        0.821009    1.427855   -0.826189
      8          1           0        2.600981    2.791123    0.250209
      9          1           0        4.808102    1.744689    0.810278
     10          1           0        3.447829   -2.003302   -0.778269
     11          1           0        1.236271   -0.969093   -1.343519
     12          7           0        5.522688   -0.786046    0.371204
     13          8           0        5.675912   -1.973727    0.094486
     14          8           0        6.367458   -0.068295    0.902084
     15          6           0       -5.631806   -1.783110    0.542115
     16          6           0       -5.439891   -0.739986    1.454026
     17          6           0       -4.539884    0.292253    1.172919
     18          6           0       -3.845363    0.249580   -0.035016
     19          6           0       -4.014686   -0.776012   -0.963876
     20          6           0       -4.919846   -1.797769   -0.661803
     21          1           0       -6.332955   -2.580905    0.768630
     22          1           0       -5.991438   -0.726005    2.389786
     23          1           0       -4.372000    1.111892    1.860977
     24          1           0       -3.450432   -0.762594   -1.888461
     25          1           0       -5.066865   -2.606606   -1.371882
     26          7           0       -2.889837    1.336815   -0.343710
     27          8           0       -2.290157    1.276127   -1.414848
     28          8           0       -2.758671    2.229092    0.491320
 ---------------------------------------------------------------------

 SCF Done:  E(RHF) =  -868.340612175     A.U. after   16 cycles
 E2 =    -0.2598187034D+01 EUMP2 =    -0.87093879920890D+03

 The electronic state is 1-A.
 Alpha  occ. eigenvalues --  -20.61965 -20.61932 -20.60201 -20.60194 -15.86959
 Alpha  occ. eigenvalues --  -15.85250 -11.32017 -11.30425 -11.28563 -11.28526
 Alpha  occ. eigenvalues --  -11.28214 -11.27488 -11.27465 -11.27019 -11.26986
 Alpha  occ. eigenvalues --  -11.26454 -11.25908 -11.25855  -1.61010  -1.59281
 Alpha  occ. eigenvalues --   -1.40569  -1.38840  -1.20156  -1.18569  -1.09607
 Alpha  occ. eigenvalues --   -1.07950  -1.05510  -1.03961  -0.96492  -0.94821
 Alpha  occ. eigenvalues --   -0.86922  -0.85338  -0.83335  -0.81680  -0.78421
 Alpha  occ. eigenvalues --   -0.76797  -0.73184  -0.72313  -0.71469  -0.71254
 Alpha  occ. eigenvalues --   -0.70605  -0.69532  -0.65809  -0.65504  -0.64198
 Alpha  occ. eigenvalues --   -0.63941  -0.62861  -0.61327  -0.56013  -0.54275
 Alpha  occ. eigenvalues --   -0.53851  -0.53594  -0.52289  -0.52033  -0.49957
 Alpha  occ. eigenvalues --   -0.49919  -0.48237  -0.48208  -0.46036  -0.44290
 Alpha  occ. eigenvalues --   -0.38111  -0.37099  -0.36471  -0.35594
 Alpha virt. eigenvalues --    0.04057   0.05755   0.10560   0.12081   0.15614
 Alpha virt. eigenvalues --    0.17315   0.20737   0.22455   0.26670   0.27569
 Alpha virt. eigenvalues --    0.28126   0.29448   0.30425   0.31817   0.32167

 Mulliken charges:
               1
     1  C   -0.178713
     2  C   -0.220196
     3  C   -0.171768
     4  C    0.156936
     5  C   -0.172159
     6  C   -0.221121
     7  H    0.249268
     8  H    0.225349
     9  H    0.273143
    10  H    0.271674
    11  H    0.221130
    12  N    0.488331
    13  O   -0.463417
    14  O   -0.462313
    15  C   -0.169482
    16  C   -0.218358
    17  C   -0.170079
    18  C    0.157763
    19  C   -0.171568
    20  C   -0.218365
    21  H    0.228707
    22  H    0.226355
    23  H    0.276853
    24  H    0.274022
    25  H    0.225693
    26  N    0.488500
    27  O   -0.468743
    28  O   -0.457440
 Sum of Mulliken charges =  -0.00000

 Dipole moment (field-independent basis, Debye):
    X=             -8.5311    Y=             -1.5960    Z=             -0.0190  Tot=              8.6792
 Quadrupole moment (field-independent basis, Debye-Ang):
   XX=           -118.2857   YY=           -103.2050   ZZ=           -101.3632
   XY=             25.8480   XZ=            -10.1394   YZ=              4.7744

 Normal termination of Gaussian 16 at Fri May  7 09:27:22 2021.
