 Gaussian 16, Revision A.03,
 Gaussian 16:  EM64L-G16RevA.03 25-Dec-2016

 -------------
 #p 6-31g* mp2
 -------------

 ------------------------------------------------------
 Input file generated by CHIRIPA (05-May-2021 14:53:14)
 ------------------------------------------------------
 Symbolic Z-matrix:
 Charge =  0 Multiplicity = 1

                         Standard orientation:
 ---------------------------------------------------------------------
 Center     Atomic      Atomic             Coordinates (Angstroms)
 Number     Number       Type             X           Y           Z
 ---------------------------------------------------------------------
      1          6           0        2.383723   -0.509880   -0.399072
      2          6           0        2.034525   -1.443756   -1.558348
      3          6           0        0.562418   -1.856895   -1.561817
      4          1           0        2.138457   -1.006172    0.549867
      5          1           0        1.750539    0.386361   -0.455864
      6          1           0        2.669142   -2.337341   -1.500181
      7          1           0        2.280829   -0.945258   -2.504630
      8          1           0       -0.084353   -0.977339   -1.643489
      9          1           0        0.306167   -2.377331   -0.633333
     10          1           0        0.334726   -2.524331   -2.398803
     11          6           0        3.851890   -0.088071   -0.382064
     12          6           0        4.201089    0.845805    0.777212
     13          6           0        5.673195    1.258944    0.780681
     14          1           0        4.485075   -0.984312   -0.325271
     15          1           0        4.097156    0.408221   -1.331002
     16          1           0        3.954785    0.347307    1.723495
     17          1           0        3.566471    1.739389    0.719045
     18          1           0        5.929446    1.779380   -0.147803
     19          1           0        6.319966    0.379388    0.862354
     20          1           0        5.900887    1.926380    1.617667
     21          6           0       -2.054017   -1.735217    1.836155
     22          6           0       -2.490004   -1.943467    0.523498
     23          6           0       -2.704807   -0.860065   -0.333618
     24          6           0       -2.472694    0.423910    0.157117
     25          6           0       -2.038128    0.663827    1.459762
     26          6           0       -1.829866   -0.434529    2.299281
     27          1           0       -1.889694   -2.582637    2.495149
     28          1           0       -2.664895   -2.952495    0.161118
     29          1           0       -3.042172   -0.992669   -1.354411
     30          1           0       -1.872349    1.681305    1.792434
     31          1           0       -1.491257   -0.269798    3.318228
     32          7           0       -2.696634    1.578774   -0.740958
     33          8           0       -2.484915    2.700139   -0.284503
     34          8           0       -3.079638    1.340723   -1.884321
 ---------------------------------------------------------------------

 SCF Done:  E(RHF) =  -669.534530406     A.U. after   15 cycles
 E2 =    -0.2093279403D+01 EUMP2 =    -0.67162780980924D+03

 The electronic state is 1-A.
 Alpha  occ. eigenvalues --  -20.60802 -20.60796 -15.85853 -11.31187 -11.27766
 Alpha  occ. eigenvalues --  -11.27733 -11.27507 -11.26777 -11.26740 -11.21671
 Alpha  occ. eigenvalues --  -11.21652 -11.21463 -11.21401 -11.21127 -11.21118
 Alpha  occ. eigenvalues --   -1.59878  -1.39432  -1.19372  -1.08773  -1.08489
 Alpha  occ. eigenvalues --   -1.04773  -1.03592  -0.96054  -0.95607  -0.87078
 Alpha  occ. eigenvalues --   -0.86173  -0.82437  -0.79673  -0.78306  -0.77483
 Alpha  occ. eigenvalues --   -0.72070  -0.71206  -0.70484  -0.65121  -0.65022
 Alpha  occ. eigenvalues --   -0.64770  -0.62115  -0.60992  -0.59425  -0.57701
 Alpha  occ. eigenvalues --   -0.55345  -0.55273  -0.53412  -0.52859  -0.52751
 Alpha  occ. eigenvalues --   -0.52203  -0.49997  -0.48828  -0.48826  -0.47942
 Alpha  occ. eigenvalues --   -0.46702  -0.45833  -0.45769  -0.44836  -0.43858
 Alpha  occ. eigenvalues --   -0.37331  -0.36263
 Alpha virt. eigenvalues --    0.05035   0.11186   0.16495   0.21312   0.22792
 Alpha virt. eigenvalues --    0.24188   0.26509   0.26910   0.27421   0.28141
 Alpha virt. eigenvalues --    0.28379   0.30547   0.31406   0.31766   0.31890

 Mulliken charges:
               1
     1  C   -0.297730
     2  C   -0.300012
     3  C   -0.477881
     4  H    0.145852
     5  H    0.152014
     6  H    0.149899
     7  H    0.154644
     8  H    0.159099
     9  H    0.151622
    10  H    0.156945
    11  C   -0.298377
    12  C   -0.299757
    13  C   -0.475706
    14  H    0.148455
    15  H    0.151753
    16  H    0.148911
    17  H    0.153869
    18  H    0.156658
    19  H    0.154519
    20  H    0.160071
    21  C   -0.172277
    22  C   -0.214124
    23  C   -0.169212
    24  C    0.158624
    25  C   -0.170931
    26  C   -0.217738
    27  H    0.225439
    28  H    0.223935
    29  H    0.275960
    30  H    0.275548
    31  H    0.223448
    32  N    0.487627
    33  O   -0.460514
    34  O   -0.460633
 Sum of Mulliken charges =  -0.00000

 Dipole moment (field-independent basis, Debye):
    X=              0.7381    Y=             -4.0323    Z=              3.1589  Tot=              5.1752
 Quadrupole moment (field-independent basis, Debye-Ang):
   XX=           -100.1156   YY=            -96.3160   ZZ=            -91.1003
   XY=             11.1596   XZ=             -6.6989   YZ=              2.6591

 Normal termination of Gaussian 16 at Thu May  6 02:37:43 2021.
