 Gaussian 16, Revision A.03,
 Gaussian 16:  EM64L-G16RevA.03 25-Dec-2016

 -------------
 #p 6-31g* mp2
 -------------

 ------------------------------------------------------
 Input file generated by CHIRIPA (05-May-2021 14:53:18)
 ------------------------------------------------------
 Symbolic Z-matrix:
 Charge =  0 Multiplicity = 1

                         Standard orientation:
 ---------------------------------------------------------------------
 Center     Atomic      Atomic             Coordinates (Angstroms)
 Number     Number       Type             X           Y           Z
 ---------------------------------------------------------------------
      1          6           0       -4.228498   -0.494226   -0.200268
      2          6           0       -4.095695   -1.778932    0.618193
      3          6           0       -5.005320   -2.898907    0.112195
      4          1           0       -5.274196   -0.158237   -0.176373
      5          1           0       -3.993974   -0.711581   -1.251530
      6          1           0       -4.329055   -1.558924    1.667838
      7          1           0       -3.050154   -2.111797    0.592504
      8          1           0       -4.768948   -3.147036   -0.927595
      9          1           0       -6.055116   -2.591022    0.153850
     10          1           0       -4.894327   -3.807920    0.711558
     11          6           0       -3.325384    0.634670    0.293400
     12          6           0       -3.458186    1.919376   -0.525061
     13          6           0       -2.548562    3.039351   -0.019064
     14          1           0       -3.559908    0.852025    1.344661
     15          1           0       -2.279685    0.298681    0.269504
     16          1           0       -4.503728    2.252240   -0.499373
     17          1           0       -3.224827    1.699368   -1.574707
     18          1           0       -1.498765    2.731466   -0.060719
     19          1           0       -2.784933    3.287480    1.020726
     20          1           0       -2.659554    3.948364   -0.618427
     21          6           0        5.223980   -1.145138    0.061480
     22          6           0        5.069786    0.188513    0.454058
     23          6           0        3.814936    0.802838    0.403995
     24          6           0        2.730966    0.050543   -0.045840
     25          6           0        2.852508   -1.279931   -0.443779
     26          6           0        4.116801   -1.873820   -0.385398
     27          1           0        6.202445   -1.614423    0.103601
     28          1           0        5.927865    0.756849    0.801535
     29          1           0        3.667254    1.833786    0.701911
     30          1           0        1.978479   -1.820852   -0.785679
     31          1           0        4.233582   -2.909711   -0.690909
     32          7           0        1.397514    0.690084   -0.103243
     33          8           0        0.458284    0.005678   -0.503332
     34          8           0        1.316835    1.863651    0.252941
 ---------------------------------------------------------------------

 SCF Done:  E(RHF) =  -669.537387603     A.U. after   15 cycles
 E2 =    -0.2092297791D+01 EUMP2 =    -0.67162968539440D+03

 The electronic state is 1-A.
 Alpha  occ. eigenvalues --  -20.61288 -20.61269 -15.86251 -11.31470 -11.28012
 Alpha  occ. eigenvalues --  -11.28006 -11.27729 -11.26991 -11.26981 -11.20589
 Alpha  occ. eigenvalues --  -11.20305 -11.20101 -11.19923 -11.19571 -11.19068
 Alpha  occ. eigenvalues --   -1.60297  -1.39858  -1.19620  -1.09046  -1.07000
 Alpha  occ. eigenvalues --   -1.04997  -1.02134  -0.95904  -0.94573  -0.86403
 Alpha  occ. eigenvalues --   -0.85592  -0.82744  -0.78263  -0.77811  -0.76739
 Alpha  occ. eigenvalues --   -0.72464  -0.71589  -0.70727  -0.65277  -0.65001
 Alpha  occ. eigenvalues --   -0.63623  -0.62344  -0.59529  -0.58028  -0.56180
 Alpha  occ. eigenvalues --   -0.55506  -0.53844  -0.53334  -0.53086  -0.51334
 Alpha  occ. eigenvalues --   -0.50998  -0.49309  -0.49262  -0.48419  -0.46539
 Alpha  occ. eigenvalues --   -0.45312  -0.45282  -0.44313  -0.43995  -0.42368
 Alpha  occ. eigenvalues --   -0.37592  -0.36591
 Alpha virt. eigenvalues --    0.04705   0.11066   0.16223   0.21198   0.24214
 Alpha virt. eigenvalues --    0.25782   0.27140   0.27896   0.28233   0.29038
 Alpha virt. eigenvalues --    0.29392   0.30813   0.32314   0.32763   0.32886

 Mulliken charges:
               1
     1  C   -0.296361
     2  C   -0.298893
     3  C   -0.474740
     4  H    0.144219
     5  H    0.148036
     6  H    0.149164
     7  H    0.153227
     8  H    0.153421
     9  H    0.153440
    10  H    0.155866
    11  C   -0.310511
    12  C   -0.295276
    13  C   -0.487698
    14  H    0.141718
    15  H    0.178199
    16  H    0.142569
    17  H    0.149826
    18  H    0.184895
    19  H    0.146882
    20  H    0.150442
    21  C   -0.170145
    22  C   -0.218624
    23  C   -0.170199
    24  C    0.157892
    25  C   -0.170455
    26  C   -0.218601
    27  H    0.226678
    28  H    0.224497
    29  H    0.276425
    30  H    0.275971
    31  H    0.224475
    32  N    0.490333
    33  O   -0.459939
    34  O   -0.456735
 Sum of Mulliken charges =  -0.00000

 Dipole moment (field-independent basis, Debye):
    X=              5.3543    Y=             -2.2970    Z=              0.1813  Tot=              5.8291
 Quadrupole moment (field-independent basis, Debye-Ang):
   XX=            -70.4348   YY=            -93.1029   ZZ=            -94.8388
   XY=             -4.6528   XZ=              0.6640   YZ=              1.9236

 Normal termination of Gaussian 16 at Thu May  6 01:14:44 2021.
