 Gaussian 16, Revision A.03,
 Gaussian 16:  EM64L-G16RevA.03 25-Dec-2016

 -------------
 #p 6-31g* mp2
 -------------

 ------------------------------------------------------
 Input file generated by CHIRIPA (05-May-2021 14:55:19)
 ------------------------------------------------------
 Symbolic Z-matrix:
 Charge =  0 Multiplicity = 1

                         Standard orientation:
 ---------------------------------------------------------------------
 Center     Atomic      Atomic             Coordinates (Angstroms)
 Number     Number       Type             X           Y           Z
 ---------------------------------------------------------------------
      1          6           0       -1.246897   -1.906268    1.742836
      2          6           0       -2.163514   -2.416258    0.817500
      3          6           0       -2.816291   -1.564507   -0.078575
      4          6           0       -2.527286   -0.201977   -0.021331
      5          6           0       -1.619140    0.336433    0.888986
      6          6           0       -0.978110   -0.533970    1.775567
      7          1           0       -0.744367   -2.575174    2.435241
      8          1           0       -2.374219   -3.481566    0.789802
      9          1           0       -3.530408   -1.932593   -0.805189
     10          1           0       -1.429766    1.402989    0.892591
     11          1           0       -0.266725   -0.135104    2.493120
     12          7           0       -3.212134    0.709607   -0.964941
     13          8           0       -2.940071    1.906110   -0.894242
     14          8           0       -4.008012    0.210341   -1.757373
     15          6           0        2.556634    0.992053   -0.246309
     16          6           0        2.645783    2.082843    0.821498
     17          6           0        1.571250    3.158379    0.659025
     18          1           0        2.643990    1.452504   -1.239938
     19          1           0        1.561882    0.527254   -0.203562
     20          1           0        3.640550    2.544508    0.777666
     21          1           0        2.558397    1.619719    1.812707
     22          1           0        0.571470    2.717039    0.724276
     23          1           0        1.659772    3.647082   -0.316647
     24          1           0        1.653462    3.928115    1.432722
     25          6           0        3.624267   -0.090377   -0.097209
     26          6           0        3.535118   -1.181169   -1.165017
     27          6           0        4.609650   -2.256704   -1.002543
     28          1           0        4.619019    0.374421   -0.139958
     29          1           0        3.536911   -0.550829    0.896419
     30          1           0        3.622505   -0.718044   -2.156226
     31          1           0        2.540351   -1.642832   -1.121185
     32          1           0        4.521129   -2.745407   -0.026873
     33          1           0        5.609432   -1.815364   -1.067793
     34          1           0        4.527439   -3.026440   -1.776240
 ---------------------------------------------------------------------

 SCF Done:  E(RHF) =  -669.535411506     A.U. after   15 cycles
 E2 =    -0.2092457167D+01 EUMP2 =    -0.67162786867230D+03

 The electronic state is 1-A.
 Alpha  occ. eigenvalues --  -20.60802 -20.60796 -15.85856 -11.31260 -11.27839
 Alpha  occ. eigenvalues --  -11.27832 -11.27584 -11.26873 -11.26852 -11.22029
 Alpha  occ. eigenvalues --  -11.21875 -11.21724 -11.21633 -11.21460 -11.21368
 Alpha  occ. eigenvalues --   -1.59876  -1.39428  -1.19444  -1.08828  -1.08764
 Alpha  occ. eigenvalues --   -1.04856  -1.03877  -0.96315  -0.95656  -0.87330
 Alpha  occ. eigenvalues --   -0.86244  -0.82487  -0.79931  -0.78566  -0.77528
 Alpha  occ. eigenvalues --   -0.72074  -0.71199  -0.70555  -0.65426  -0.65088
 Alpha  occ. eigenvalues --   -0.64856  -0.62263  -0.61238  -0.59675  -0.57917
 Alpha  occ. eigenvalues --   -0.55652  -0.55319  -0.53184  -0.53006  -0.52994
 Alpha  occ. eigenvalues --   -0.52675  -0.50256  -0.48837  -0.48827  -0.48238
 Alpha  occ. eigenvalues --   -0.46975  -0.46106  -0.46033  -0.44824  -0.44114
 Alpha  occ. eigenvalues --   -0.37420  -0.36423
 Alpha virt. eigenvalues --    0.04967   0.11166   0.16372   0.19663   0.22817
 Alpha virt. eigenvalues --    0.23774   0.25589   0.26058   0.27303   0.28116
 Alpha virt. eigenvalues --    0.28880   0.30190   0.31371   0.31519   0.32180

 Mulliken charges:
               1
     1  C   -0.171281
     2  C   -0.218564
     3  C   -0.170370
     4  C    0.159532
     5  C   -0.177639
     6  C   -0.220913
     7  H    0.226042
     8  H    0.223924
     9  H    0.276047
    10  H    0.284452
    11  H    0.224965
    12  N    0.487477
    13  O   -0.459706
    14  O   -0.460246
    15  C   -0.302828
    16  C   -0.300278
    17  C   -0.477527
    18  H    0.153702
    19  H    0.151525
    20  H    0.154780
    21  H    0.144142
    22  H    0.149129
    23  H    0.163095
    24  H    0.161622
    25  C   -0.297197
    26  C   -0.300233
    27  C   -0.475601
    28  H    0.150712
    29  H    0.144641
    30  H    0.154528
    31  H    0.152119
    32  H    0.152622
    33  H    0.156228
    34  H    0.161100
 Sum of Mulliken charges =  -0.00000

 Dipole moment (field-independent basis, Debye):
    X=              2.4081    Y=             -3.1792    Z=              3.2228  Tot=              5.1277
 Quadrupole moment (field-independent basis, Debye-Ang):
   XX=           -106.3963   YY=            -90.7883   ZZ=            -94.4013
   XY=             11.0853   XZ=             -8.0282   YZ=              0.6028

 Normal termination of Gaussian 16 at Thu May  6 14:03:27 2021.
