 Gaussian 16, Revision A.03,
 Gaussian 16:  EM64L-G16RevA.03 25-Dec-2016

 -------------
 #p 6-31g* mp2
 -------------

 ------------------------------------------------------
 Input file generated by CHIRIPA (05-May-2021 14:53:16)
 ------------------------------------------------------
 Symbolic Z-matrix:
 Charge =  0 Multiplicity = 1

                         Standard orientation:
 ---------------------------------------------------------------------
 Center     Atomic      Atomic             Coordinates (Angstroms)
 Number     Number       Type             X           Y           Z
 ---------------------------------------------------------------------
      1          6           0        2.683339    0.959923   -0.185648
      2          6           0        2.289384    2.170672    0.661034
      3          6           0        0.958009    2.786057    0.229137
      4          1           0        2.742213    1.261603   -1.240383
      5          1           0        1.890063    0.202338   -0.121045
      6          1           0        3.083802    2.925179    0.595961
      7          1           0        2.231628    1.866119    1.713901
      8          1           0        0.149784    2.052118    0.311043
      9          1           0        1.006801    3.117196   -0.813248
     10          1           0        0.695664    3.650048    0.847647
     11          6           0        4.012066    0.333732    0.233993
     12          6           0        4.406020   -0.877017   -0.612689
     13          6           0        5.737396   -1.492402   -0.180792
     14          1           0        4.805341    1.091317    0.169390
     15          1           0        3.953191    0.032051    1.288729
     16          1           0        4.463777   -0.572464   -1.665555
     17          1           0        3.611602   -1.631525   -0.547616
     18          1           0        5.688603   -1.823541    0.861593
     19          1           0        6.545620   -0.758463   -0.262698
     20          1           0        5.999741   -2.356393   -0.799301
     21          6           0       -0.305074   -1.465818    0.306423
     22          6           0       -1.210881   -1.444876    1.372066
     23          6           0       -2.493618   -0.915119    1.203272
     24          6           0       -2.838746   -0.412478   -0.050334
     25          6           0       -1.958701   -0.419186   -1.131429
     26          6           0       -0.681212   -0.953808   -0.939728
     27          1           0        0.689348   -1.879235    0.446443
     28          1           0       -0.921508   -1.841816    2.340956
     29          1           0       -3.214658   -0.886415    2.011169
     30          1           0       -2.276036   -0.016200   -2.085535
     31          1           0        0.020174   -0.968763   -1.769111
     32          7           0       -4.193943    0.150928   -0.241155
     33          8           0       -4.473623    0.587595   -1.355488
     34          8           0       -4.950807    0.145189    0.727226
 ---------------------------------------------------------------------

 SCF Done:  E(RHF) =  -669.534454516     A.U. after   15 cycles
 E2 =    -0.2094031428D+01 EUMP2 =    -0.67162848594397D+03

 The electronic state is 1-A.
 Alpha  occ. eigenvalues --  -20.60807 -20.60801 -15.85862 -11.31267 -11.27832
 Alpha  occ. eigenvalues --  -11.27819 -11.27573 -11.26858 -11.26835 -11.22526
 Alpha  occ. eigenvalues --  -11.22146 -11.22095 -11.22021 -11.21812 -11.21322
 Alpha  occ. eigenvalues --   -1.59881  -1.39434  -1.19448  -1.09161  -1.08828
 Alpha  occ. eigenvalues --   -1.04847  -1.04155  -0.96586  -0.95667  -0.87600
 Alpha  occ. eigenvalues --   -0.86246  -0.82490  -0.80245  -0.78988  -0.77521
 Alpha  occ. eigenvalues --   -0.72080  -0.71204  -0.70584  -0.65823  -0.65087
 Alpha  occ. eigenvalues --   -0.64823  -0.62185  -0.61568  -0.59968  -0.58202
 Alpha  occ. eigenvalues --   -0.55905  -0.55327  -0.53287  -0.53202  -0.53019
 Alpha  occ. eigenvalues --   -0.52913  -0.50536  -0.48841  -0.48832  -0.48536
 Alpha  occ. eigenvalues --   -0.47295  -0.46484  -0.46426  -0.44831  -0.44424
 Alpha  occ. eigenvalues --   -0.37345  -0.36415
 Alpha virt. eigenvalues --    0.04965   0.11123   0.16368   0.19354   0.22844
 Alpha virt. eigenvalues --    0.23645   0.25255   0.26048   0.27236   0.27568
 Alpha virt. eigenvalues --    0.30004   0.30332   0.31136   0.31298   0.31837

 Mulliken charges:
               1
     1  C   -0.305617
     2  C   -0.298343
     3  C   -0.480043
     4  H    0.148946
     5  H    0.148616
     6  H    0.153472
     7  H    0.150776
     8  H    0.161079
     9  H    0.154251
    10  H    0.162505
    11  C   -0.298389
    12  C   -0.299365
    13  C   -0.475741
    14  H    0.153434
    15  H    0.148309
    16  H    0.154065
    17  H    0.141070
    18  H    0.155337
    19  H    0.158548
    20  H    0.161681
    21  C   -0.173540
    22  C   -0.220127
    23  C   -0.171065
    24  C    0.158593
    25  C   -0.171846
    26  C   -0.215361
    27  H    0.228226
    28  H    0.223971
    29  H    0.276016
    30  H    0.276319
    31  H    0.226214
    32  N    0.488132
    33  O   -0.459932
    34  O   -0.460191
 Sum of Mulliken charges =  -0.00000

 Dipole moment (field-independent basis, Debye):
    X=              4.7759    Y=             -1.9388    Z=              0.6712  Tot=              5.1980
 Quadrupole moment (field-independent basis, Debye-Ang):
   XX=           -122.5023   YY=            -93.5597   ZZ=            -89.8884
   XY=              4.8564   XZ=             -3.8727   YZ=             -1.5999

 Normal termination of Gaussian 16 at Thu May  6 17:14:25 2021.
