 Gaussian 16, Revision A.03,
 Gaussian 16:  EM64L-G16RevA.03 25-Dec-2016

 -------------
 #p 6-31g* mp2
 -------------

 ------------------------------------------------------
 Input file generated by CHIRIPA (05-May-2021 14:51:13)
 ------------------------------------------------------
 Symbolic Z-matrix:
 Charge =  0 Multiplicity = 1

                         Standard orientation:
 ---------------------------------------------------------------------
 Center     Atomic      Atomic             Coordinates (Angstroms)
 Number     Number       Type             X           Y           Z
 ---------------------------------------------------------------------
      1          6           0        2.266590    1.215621   -0.273412
      2          6           0        2.600857    2.629439    0.203420
      3          6           0        1.678538    3.689904   -0.398690
      4          1           0        2.331352    1.180299   -1.369543
      5          1           0        1.223788    0.985752   -0.014340
      6          1           0        3.643140    2.856057   -0.055245
      7          1           0        2.535480    2.661350    1.298556
      8          1           0        0.636033    3.491386   -0.129665
      9          1           0        1.749987    3.687200   -1.491159
     10          1           0        1.935207    4.693129   -0.044401
     11          6           0        3.179973    0.144400    0.319839
     12          6           0        2.845706   -1.269418   -0.156992
     13          6           0        3.768025   -2.329883    0.445117
     14          1           0        4.222776    0.374269    0.060768
     15          1           0        3.115212    0.179722    1.415971
     16          1           0        2.911084   -1.301329   -1.252128
     17          1           0        1.803424   -1.496036    0.101673
     18          1           0        3.696577   -2.327179    1.537587
     19          1           0        4.810531   -2.131365    0.176093
     20          1           0        3.511357   -3.333108    0.090829
     21          6           0       -2.560445   -1.424834   -0.069632
     22          6           0       -1.068142   -1.709640   -0.242546
     23          6           0       -0.758233   -3.204101   -0.333858
     24          1           0       -2.921454   -1.931611    0.835794
     25          1           0       -3.110530   -1.863415   -0.913698
     26          1           0       -0.520890   -1.269458    0.600883
     27          1           0       -0.710603   -1.201968   -1.147560
     28          1           0       -1.278436   -3.654068   -1.185632
     29          1           0       -1.087646   -3.721941    0.572746
     30          1           0        0.314124   -3.384928   -0.457192
     31          6           0       -2.886118    0.064812    0.023204
     32          6           0       -4.378422    0.349619    0.196118
     33          6           0       -4.688331    1.844080    0.287430
     34          1           0       -2.336033    0.503395    0.867271
     35          1           0       -2.525111    0.571590   -0.882221
     36          1           0       -4.735962   -0.158052    1.101132
     37          1           0       -4.925673   -0.090563   -0.647311
     38          1           0       -4.358918    2.361920   -0.619174
     39          1           0       -4.168128    2.294047    1.139204
     40          1           0       -5.760688    2.024907    0.410764
 ---------------------------------------------------------------------

 SCF Done:  E(RHF) =  -470.732502704     A.U. after   11 cycles
 E2 =    -0.1584253937D+01 EUMP2 =    -0.47231675664030D+03

 The electronic state is 1-A.
 Alpha  occ. eigenvalues --  -11.21651 -11.21637 -11.21561 -11.21469 -11.21452
 Alpha  occ. eigenvalues --  -11.21393 -11.21342 -11.21282 -11.21096 -11.21089
 Alpha  occ. eigenvalues --  -11.21038 -11.21036  -1.08494  -1.08362  -1.03608
 Alpha  occ. eigenvalues --   -1.03453  -0.96032  -0.95926  -0.87034  -0.86950
 Alpha  occ. eigenvalues --   -0.79708  -0.79511  -0.78418  -0.78061  -0.65161
 Alpha  occ. eigenvalues --   -0.64978  -0.61059  -0.60855  -0.59560  -0.59151
 Alpha  occ. eigenvalues --   -0.57744  -0.57415  -0.55307  -0.55217  -0.52736
 Alpha  occ. eigenvalues --   -0.52608  -0.52446  -0.52353  -0.49964  -0.49866
 Alpha  occ. eigenvalues --   -0.48008  -0.47835  -0.46772  -0.46492  -0.46133
 Alpha  occ. eigenvalues --   -0.45792  -0.45672  -0.45231  -0.43827  -0.43730
 Alpha virt. eigenvalues --    0.21245   0.22896   0.23367   0.24778   0.25563
 Alpha virt. eigenvalues --    0.26441   0.26693   0.27139   0.28103   0.29725
 Alpha virt. eigenvalues --    0.30510   0.31264   0.31492   0.31762   0.32459

 Mulliken charges:
               1
     1  C   -0.301575
     2  C   -0.299466
     3  C   -0.475801
     4  H    0.148994
     5  H    0.153247
     6  H    0.151790
     7  H    0.151534
     8  H    0.155582
     9  H    0.154907
    10  H    0.160049
    11  C   -0.297161
    12  C   -0.311699
    13  C   -0.475863
    14  H    0.149094
    15  H    0.148630
    16  H    0.150703
    17  H    0.167114
    18  H    0.154792
    19  H    0.155119
    20  H    0.159769
    21  C   -0.297383
    22  C   -0.304034
    23  C   -0.480308
    24  H    0.149658
    25  H    0.149837
    26  H    0.151903
    27  H    0.155112
    28  H    0.155786
    29  H    0.155121
    30  H    0.164670
    31  C   -0.298840
    32  C   -0.299635
    33  C   -0.475789
    34  H    0.148773
    35  H    0.150244
    36  H    0.152011
    37  H    0.152174
    38  H    0.155446
    39  H    0.155062
    40  H    0.160433
 Sum of Mulliken charges =  -0.00000

 Dipole moment (field-independent basis, Debye):
    X=             -0.0595    Y=             -0.0184    Z=             -0.0151  Tot=              0.0641
 Quadrupole moment (field-independent basis, Debye-Ang):
   XX=            -85.0398   YY=            -86.6919   ZZ=            -83.2343
   XY=              0.9940   XZ=             -0.5505   YZ=              0.1113

 Normal termination of Gaussian 16 at Wed May  5 23:11:44 2021.
