 Gaussian 16, Revision A.03,
 Gaussian 16:  EM64L-G16RevA.03 25-Dec-2016

 -------------
 #p 6-31g* mp2
 -------------

 ------------------------------------------------------
 Input file generated by CHIRIPA (05-May-2021 14:51:12)
 ------------------------------------------------------
 Symbolic Z-matrix:
 Charge =  0 Multiplicity = 1

                         Standard orientation:
 ---------------------------------------------------------------------
 Center     Atomic      Atomic             Coordinates (Angstroms)
 Number     Number       Type             X           Y           Z
 ---------------------------------------------------------------------
      1          6           0        3.223552    1.006186   -0.292129
      2          6           0        2.105187    1.533518    0.607407
      3          6           0        1.258721    2.610672   -0.071584
      4          1           0        3.867140    1.843361   -0.595243
      5          1           0        2.783098    0.600961   -1.213643
      6          1           0        2.547515    1.936371    1.527554
      7          1           0        1.464298    0.694961    0.908570
      8          1           0        0.790625    2.217216   -0.979703
      9          1           0        1.879996    3.465680   -0.357203
     10          1           0        0.465271    2.973541    0.589190
     11          6           0        4.078484   -0.071265    0.372642
     12          6           0        5.196850   -0.598596   -0.526894
     13          6           0        6.043316   -1.675750    0.152097
     14          1           0        4.518939    0.333960    1.294155
     15          1           0        3.434897   -0.908439    0.675756
     16          1           0        5.837739    0.239961   -0.828057
     17          1           0        4.754522   -1.001450   -1.447041
     18          1           0        5.422040   -2.530759    0.437716
     19          1           0        6.511412   -1.282295    1.060216
     20          1           0        6.836766   -2.038620   -0.508677
     21          6           0       -3.039569   -0.852436    0.207445
     22          6           0       -1.740872   -0.438683   -0.485504
     23          6           0       -0.526544   -1.217719    0.020762
     24          1           0       -2.932878   -0.704526    1.290812
     25          1           0       -3.202591   -1.928116    0.053394
     26          1           0       -1.581061    0.636173   -0.331362
     27          1           0       -1.850735   -0.587415   -1.567367
     28          1           0       -0.660012   -2.291243   -0.147569
     29          1           0       -0.388806   -1.060702    1.095459
     30          1           0        0.391004   -0.906038   -0.487981
     31          6           0       -4.262468   -0.082485   -0.287958
     32          6           0       -5.561165   -0.496238    0.404992
     33          6           0       -6.775493    0.282798   -0.101274
     34          1           0       -4.099445    0.993195   -0.133907
     35          1           0       -4.369159   -0.230395   -1.371325
     36          1           0       -5.451301   -0.347506    1.486853
     37          1           0       -5.720976   -1.571095    0.250849
     38          1           0       -6.913230    0.125781   -1.175972
     39          1           0       -6.642025    1.356322    0.067055
     40          1           0       -7.693041   -0.028883    0.407469
 ---------------------------------------------------------------------

 SCF Done:  E(RHF) =  -470.732491204     A.U. after   11 cycles
 E2 =    -0.1583817597D+01 EUMP2 =    -0.47231630880122D+03

 The electronic state is 1-A.
 Alpha  occ. eigenvalues --  -11.21640 -11.21617 -11.21576 -11.21457 -11.21432
 Alpha  occ. eigenvalues --  -11.21371 -11.21370 -11.21313 -11.21143 -11.21081
 Alpha  occ. eigenvalues --  -11.21046 -11.21041  -1.08472  -1.08382  -1.03609
 Alpha  occ. eigenvalues --   -1.03451  -0.96042  -0.95935  -0.87079  -0.86936
 Alpha  occ. eigenvalues --   -0.79696  -0.79492  -0.78278  -0.78193  -0.65201
 Alpha  occ. eigenvalues --   -0.64978  -0.61229  -0.60749  -0.59357  -0.59262
 Alpha  occ. eigenvalues --   -0.57609  -0.57553  -0.55405  -0.55132  -0.52753
 Alpha  occ. eigenvalues --   -0.52622  -0.52444  -0.52366  -0.50112  -0.49792
 Alpha  occ. eigenvalues --   -0.47945  -0.47853  -0.46825  -0.46413  -0.45826
 Alpha  occ. eigenvalues --   -0.45751  -0.45724  -0.45583  -0.43789  -0.43736
 Alpha virt. eigenvalues --    0.20330   0.22936   0.23642   0.25350   0.26052
 Alpha virt. eigenvalues --    0.26322   0.26685   0.27408   0.28302   0.29203
 Alpha virt. eigenvalues --    0.30405   0.31184   0.31808   0.32185   0.32305

 Mulliken charges:
               1
     1  C   -0.299329
     2  C   -0.308004
     3  C   -0.476622
     4  H    0.149792
     5  H    0.148702
     6  H    0.151301
     7  H    0.162594
     8  H    0.156261
     9  H    0.154990
    10  H    0.159101
    11  C   -0.299113
    12  C   -0.299539
    13  C   -0.475726
    14  H    0.149556
    15  H    0.150665
    16  H    0.151848
    17  H    0.151754
    18  H    0.155348
    19  H    0.155109
    20  H    0.160129
    21  C   -0.298518
    22  C   -0.303372
    23  C   -0.481068
    24  H    0.149834
    25  H    0.149598
    26  H    0.156572
    27  H    0.151882
    28  H    0.155965
    29  H    0.155680
    30  H    0.164236
    31  C   -0.298366
    32  C   -0.299681
    33  C   -0.475732
    34  H    0.149775
    35  H    0.149698
    36  H    0.151971
    37  H    0.151933
    38  H    0.155206
    39  H    0.155273
    40  H    0.160300
 Sum of Mulliken charges =  -0.00000

 Dipole moment (field-independent basis, Debye):
    X=             -0.0353    Y=             -0.0213    Z=              0.0085  Tot=              0.0421
 Quadrupole moment (field-independent basis, Debye-Ang):
   XX=            -85.8791   YY=            -84.6999   ZZ=            -84.3457
   XY=              1.5184   XZ=             -0.1426   YZ=              1.1692

 Normal termination of Gaussian 16 at Thu May  6 03:54:18 2021.
