 Gaussian 16, Revision A.03,
 Gaussian 16:  EM64L-G16RevA.03 25-Dec-2016

 -------------
 #p 6-31g* mp2
 -------------

 ------------------------------------------------------
 Input file generated by CHIRIPA (05-May-2021 14:51:14)
 ------------------------------------------------------
 Symbolic Z-matrix:
 Charge =  0 Multiplicity = 1

                         Standard orientation:
 ---------------------------------------------------------------------
 Center     Atomic      Atomic             Coordinates (Angstroms)
 Number     Number       Type             X           Y           Z
 ---------------------------------------------------------------------
      1          6           0        4.589325   -0.086068   -0.329405
      2          6           0        5.821510   -0.265637    0.557984
      3          6           0        7.065913    0.414367   -0.013725
      4          1           0        4.803008   -0.489564   -1.328643
      5          1           0        4.394058    0.987231   -0.460912
      6          1           0        6.013576   -1.338290    0.688910
      7          1           0        5.604803    0.138160    1.555281
      8          1           0        6.898709    1.490250   -0.128267
      9          1           0        7.309805    0.005410   -0.999561
     10          1           0        7.934938    0.273420    0.636498
     11          6           0        3.337294   -0.760265    0.228810
     12          6           0        2.105108   -0.580697   -0.658579
     13          6           0        0.860706   -1.260700   -0.086870
     14          1           0        3.532560   -1.833565    0.360316
     15          1           0        3.123610   -0.356769    1.228047
     16          1           0        2.321816   -0.984494   -1.655876
     17          1           0        1.913042    0.491957   -0.789505
     18          1           0        0.616813   -0.851743    0.898966
     19          1           0        1.027909   -2.336583    0.027672
     20          1           0       -0.008319   -1.119753   -0.737093
     21          6           0       -3.334691    0.666591    0.409484
     22          6           0       -2.437586    1.543102   -0.465112
     23          6           0       -1.184009    2.022312    0.267483
     24          1           0       -3.625447    1.230516    1.306364
     25          1           0       -2.758823   -0.201473    0.759107
     26          1           0       -3.015375    2.408536   -0.814110
     27          1           0       -2.149087    0.977092   -1.360107
     28          1           0       -0.583671    1.169991    0.601764
     29          1           0       -1.454880    2.609568    1.150863
     30          1           0       -0.557078    2.647231   -0.376175
     31          6           0       -4.591928    0.179741   -0.308889
     32          6           0       -5.489032   -0.696768    0.565707
     33          6           0       -6.742610   -1.175980   -0.166888
     34          1           0       -5.167795    1.047806   -0.658511
     35          1           0       -4.301172   -0.384184   -1.205769
     36          1           0       -5.777531   -0.130758    1.460702
     37          1           0       -4.911244   -1.562203    0.914705
     38          1           0       -6.471739   -1.763235   -1.050267
     39          1           0       -7.342947   -0.323657   -0.501168
     40          1           0       -7.369541   -1.800898    0.476769
 ---------------------------------------------------------------------

 SCF Done:  E(RHF) =  -470.732799116     A.U. after   11 cycles
 E2 =    -0.1583244321D+01 EUMP2 =    -0.47231604343656D+03

 The electronic state is 1-A.
 Alpha  occ. eigenvalues --  -11.21626 -11.21605 -11.21576 -11.21568 -11.21417
 Alpha  occ. eigenvalues --  -11.21371 -11.21357 -11.21310 -11.21146 -11.21073
 Alpha  occ. eigenvalues --  -11.21051 -11.20957  -1.08453  -1.08391  -1.03590
 Alpha  occ. eigenvalues --   -1.03463  -0.96062  -0.95897  -0.87064  -0.86931
 Alpha  occ. eigenvalues --   -0.79630  -0.79550  -0.78258  -0.78208  -0.65157
 Alpha  occ. eigenvalues --   -0.64974  -0.61214  -0.60709  -0.59353  -0.59311
 Alpha  occ. eigenvalues --   -0.57622  -0.57553  -0.55580  -0.54957  -0.52708
 Alpha  occ. eigenvalues --   -0.52633  -0.52445  -0.52351  -0.50125  -0.49699
 Alpha  occ. eigenvalues --   -0.47945  -0.47858  -0.46703  -0.46510  -0.45819
 Alpha  occ. eigenvalues --   -0.45744  -0.45719  -0.45625  -0.43814  -0.43737
 Alpha virt. eigenvalues --    0.20694   0.22981   0.23644   0.25287   0.26227
 Alpha virt. eigenvalues --    0.26290   0.26883   0.27583   0.27983   0.29163
 Alpha virt. eigenvalues --    0.30267   0.31119   0.31415   0.32298   0.32455

 Mulliken charges:
               1
     1  C   -0.298358
     2  C   -0.299688
     3  C   -0.475728
     4  H    0.149604
     5  H    0.149796
     6  H    0.151888
     7  H    0.152069
     8  H    0.155264
     9  H    0.155151
    10  H    0.160279
    11  C   -0.298327
    12  C   -0.302024
    13  C   -0.480485
    14  H    0.149474
    15  H    0.149901
    16  H    0.152131
    17  H    0.154981
    18  H    0.155722
    19  H    0.156480
    20  H    0.162128
    21  C   -0.299798
    22  C   -0.299436
    23  C   -0.483606
    24  H    0.149460
    25  H    0.151126
    26  H    0.151797
    27  H    0.151426
    28  H    0.165841
    29  H    0.154173
    30  H    0.159063
    31  C   -0.298169
    32  C   -0.299684
    33  C   -0.475685
    34  H    0.149422
    35  H    0.149378
    36  H    0.151852
    37  H    0.152147
    38  H    0.155142
    39  H    0.155105
    40  H    0.160188
 Sum of Mulliken charges =  -0.00000

 Dipole moment (field-independent basis, Debye):
    X=              0.0342    Y=             -0.0223    Z=              0.0065  Tot=              0.0413
 Quadrupole moment (field-independent basis, Debye-Ang):
   XX=            -86.4103   YY=            -83.8213   ZZ=            -84.6778
   XY=             -1.4074   XZ=             -0.4017   YZ=              0.6722

 Normal termination of Gaussian 16 at Wed May  5 20:01:48 2021.
