 Gaussian 16, Revision A.03,
 Gaussian 16:  EM64L-G16RevA.03 25-Dec-2016

 -------------
 #p 6-31g* mp2
 -------------

 ------------------------------------------------------
 Input file generated by CHIRIPA (05-May-2021 14:55:25)
 ------------------------------------------------------
 Symbolic Z-matrix:
 Charge =  0 Multiplicity = 1

                         Standard orientation:
 ---------------------------------------------------------------------
 Center     Atomic      Atomic             Coordinates (Angstroms)
 Number     Number       Type             X           Y           Z
 ---------------------------------------------------------------------
      1          6           0        5.339348   -1.350955    0.849189
      2          6           0        5.098343   -0.150469    1.525408
      3          6           0        4.090943    0.717597    1.093952
      4          6           0        3.340254    0.352077   -0.022359
      5          6           0        3.556240   -0.836955   -0.717228
      6          6           0        4.568886   -1.689769   -0.268001
      7          1           0        6.123959   -2.019365    1.191256
      8          1           0        5.695127    0.115243    2.393331
      9          1           0        3.883069    1.653186    1.598810
     10          1           0        2.944824   -1.074590   -1.579271
     11          1           0        4.753822   -2.621430   -0.795117
     12          7           0        2.270988    1.262986   -0.488528
     13          8           0        1.623570    0.917964   -1.474655
     14          8           0        2.100562    2.304732    0.141042
     15          6           0       -3.911895    0.029871   -0.461029
     16          6           0       -2.725867   -0.929476   -0.565781
     17          6           0       -1.554954   -0.338305   -1.351447
     18          1           0       -4.246340    0.301070   -1.471743
     19          1           0       -3.580079    0.961041    0.018780
     20          1           0       -3.060144   -1.859092   -1.043997
     21          1           0       -2.394329   -1.198573    0.445300
     22          1           0       -1.193825    0.578047   -0.873444
     23          1           0       -1.863422   -0.086225   -2.371204
     24          1           0       -0.718035   -1.040808   -1.414038
     25          6           0       -5.090299   -0.546858    0.321581
     26          6           0       -6.276327    0.412489    0.426334
     27          6           0       -7.447241   -0.178682    1.212000
     28          1           0       -5.422115   -1.478028   -0.158227
     29          1           0       -4.755854   -0.818057    1.332295
     30          1           0       -6.607865    0.681587   -0.584747
     31          1           0       -5.942051    1.342105    0.904550
     32          1           0       -7.138772   -0.430762    2.231757
     33          1           0       -7.808369   -1.095033    0.733997
     34          1           0       -8.284159    0.523822    1.274590
 ---------------------------------------------------------------------

 SCF Done:  E(RHF) =  -669.535603222     A.U. after   15 cycles
 E2 =    -0.2091211071D+01 EUMP2 =    -0.67162681429287D+03

 The electronic state is 1-A.
 Alpha  occ. eigenvalues --  -20.60894 -20.60853 -15.85897 -11.31255 -11.27821
 Alpha  occ. eigenvalues --  -11.27817 -11.27562 -11.26835 -11.26825 -11.21090
 Alpha  occ. eigenvalues --  -11.20788 -11.20679 -11.20664 -11.20580 -11.19672
 Alpha  occ. eigenvalues --   -1.59937  -1.39491  -1.19425  -1.08825  -1.07722
 Alpha  occ. eigenvalues --   -1.04826  -1.02757  -0.95668  -0.95167  -0.86229
 Alpha  occ. eigenvalues --   -0.86172  -0.82494  -0.78834  -0.77563  -0.77496
 Alpha  occ. eigenvalues --   -0.72121  -0.71254  -0.70534  -0.65080  -0.64830
 Alpha  occ. eigenvalues --   -0.64361  -0.62174  -0.60159  -0.58596  -0.56796
 Alpha  occ. eigenvalues --   -0.55330  -0.54460  -0.53157  -0.52919  -0.51858
 Alpha  occ. eigenvalues --   -0.51593  -0.49192  -0.48881  -0.48814  -0.47121
 Alpha  occ. eigenvalues --   -0.45909  -0.45094  -0.45033  -0.44739  -0.42979
 Alpha  occ. eigenvalues --   -0.37404  -0.36429
 Alpha virt. eigenvalues --    0.04966   0.11220   0.16447   0.21306   0.23522
 Alpha virt. eigenvalues --    0.25001   0.27131   0.27335   0.27895   0.28185
 Alpha virt. eigenvalues --    0.28996   0.30726   0.31792   0.32217   0.32472

 Mulliken charges:
               1
     1  C   -0.170695
     2  C   -0.218545
     3  C   -0.170911
     4  C    0.158525
     5  C   -0.171141
     6  C   -0.218514
     7  H    0.225840
     8  H    0.223653
     9  H    0.275695
    10  H    0.275948
    11  H    0.223724
    12  N    0.488218
    13  O   -0.457102
    14  O   -0.460655
    15  C   -0.297891
    16  C   -0.301502
    17  C   -0.469985
    18  H    0.149025
    19  H    0.151844
    20  H    0.146066
    21  H    0.146978
    22  H    0.170440
    23  H    0.152240
    24  H    0.154025
    25  C   -0.297393
    26  C   -0.299255
    27  C   -0.475273
    28  H    0.147464
    29  H    0.147883
    30  H    0.151603
    31  H    0.152385
    32  H    0.154175
    33  H    0.154059
    34  H    0.159072
 Sum of Mulliken charges =  -0.00000

 Dipole moment (field-independent basis, Debye):
    X=              4.0264    Y=             -3.0819    Z=              1.5978  Tot=              5.3163
 Quadrupole moment (field-independent basis, Debye-Ang):
   XX=            -71.6675   YY=            -95.5248   ZZ=            -92.0128
   XY=             -9.3132   XZ=              7.4377   YZ=              3.7973

 Normal termination of Gaussian 16 at Thu May  6 12:43:49 2021.
