 Gaussian 16, Revision A.03,
 Gaussian 16:  EM64L-G16RevA.03 25-Dec-2016

 -------------
 #p 6-31g* mp2
 -------------

 ------------------------------------------------------
 Input file generated by CHIRIPA (05-May-2021 14:57:26)
 ------------------------------------------------------
 Symbolic Z-matrix:
 Charge =  0 Multiplicity = 1

                         Standard orientation:
 ---------------------------------------------------------------------
 Center     Atomic      Atomic             Coordinates (Angstroms)
 Number     Number       Type             X           Y           Z
 ---------------------------------------------------------------------
      1          6           0        5.761849    0.941664   -0.482003
      2          6           0        5.350950    0.913404    0.854742
      3          6           0        4.180518    0.243729    1.223756
      4          6           0        3.441810   -0.389846    0.225665
      5          6           0        3.824972   -0.379560   -1.114622
      6          6           0        4.998893    0.296230   -1.460693
      7          1           0        6.672424    1.464259   -0.759750
      8          1           0        5.941488    1.413779    1.616932
      9          1           0        3.839272    0.206081    2.251157
     10          1           0        3.215396   -0.887605   -1.852000
     11          1           0        5.315577    0.316525   -2.499608
     12          7           0        2.200879   -1.102037    0.604179
     13          8           0        1.567721   -1.652411   -0.294062
     14          8           0        1.884892   -1.096394    1.791933
     15          6           0       -6.035193   -0.392931    0.302019
     16          6           0       -5.597084    0.900412    0.605084
     17          6           0       -4.275676    1.280085    0.351550
     18          6           0       -3.415385    0.336796   -0.208265
     19          6           0       -3.821917   -0.959357   -0.521329
     20          6           0       -5.147777   -1.317058   -0.259230
     21          1           0       -7.063424   -0.679336    0.502297
     22          1           0       -6.284056    1.620187    1.041015
     23          1           0       -3.910064    2.274672    0.576367
     24          1           0       -3.113852   -1.654880   -0.955275
     25          1           0       -5.485247   -2.322183   -0.495622
     26          7           0       -2.014113    0.727108   -0.481204
     27          8           0       -1.275829   -0.122491   -0.974919
     28          8           0       -1.680614    1.875245   -0.196250
 ---------------------------------------------------------------------

 SCF Done:  E(RHF) =  -868.336830135     A.U. after   16 cycles
 E2 =    -0.2599885610D+01 EUMP2 =    -0.87093671574495D+03

 The electronic state is 1-A.
 Alpha  occ. eigenvalues --  -20.59932 -20.59815 -20.59671 -20.59547 -15.84914
 Alpha  occ. eigenvalues --  -15.84658 -11.30452 -11.30230 -11.27080 -11.27008
 Alpha  occ. eigenvalues --  -11.26857 -11.26855 -11.26810 -11.26656 -11.26138
 Alpha  occ. eigenvalues --  -11.26096 -11.25932 -11.25906  -1.58950  -1.58661
 Alpha  occ. eigenvalues --   -1.38494  -1.38213  -1.18651  -1.18430  -1.08023
 Alpha  occ. eigenvalues --   -1.07794  -1.04082  -1.03875  -0.94828  -0.94593
 Alpha  occ. eigenvalues --   -0.85474  -0.85266  -0.81659  -0.81428  -0.76668
 Alpha  occ. eigenvalues --   -0.76436  -0.71203  -0.70846  -0.70286  -0.69923
 Alpha  occ. eigenvalues --   -0.69768  -0.69564  -0.64304  -0.64101  -0.64089
 Alpha  occ. eigenvalues --   -0.63900  -0.61425  -0.61226  -0.54600  -0.54397
 Alpha  occ. eigenvalues --   -0.52402  -0.52187  -0.52176  -0.51985  -0.47958
 Alpha  occ. eigenvalues --   -0.47896  -0.47661  -0.47634  -0.43936  -0.43451
 Alpha  occ. eigenvalues --   -0.36652  -0.36425  -0.35692  -0.35483
 Alpha virt. eigenvalues --    0.05847   0.06162   0.11960   0.12170   0.17302
 Alpha virt. eigenvalues --    0.17588   0.22042   0.22209   0.27940   0.28096
 Alpha virt. eigenvalues --    0.28968   0.29135   0.31570   0.31725   0.33259

 Mulliken charges:
               1
     1  C   -0.171529
     2  C   -0.218615
     3  C   -0.170589
     4  C    0.161720
     5  C   -0.168188
     6  C   -0.218699
     7  H    0.222276
     8  H    0.220204
     9  H    0.273681
    10  H    0.277058
    11  H    0.220829
    12  N    0.490101
    13  O   -0.450460
    14  O   -0.467506
    15  C   -0.171423
    16  C   -0.218787
    17  C   -0.171260
    18  C    0.159341
    19  C   -0.169738
    20  C   -0.218848
    21  H    0.223127
    22  H    0.220763
    23  H    0.273650
    24  H    0.280008
    25  H    0.222144
    26  N    0.488080
    27  O   -0.449148
    28  O   -0.468192
 Sum of Mulliken charges =  -0.00000

 Dipole moment (field-independent basis, Debye):
    X=             -0.6014    Y=              0.9544    Z=             -0.5101  Tot=              1.2380
 Quadrupole moment (field-independent basis, Debye-Ang):
   XX=            -44.3108   YY=           -104.3149   ZZ=           -101.6163
   XY=              9.6536   XZ=             -5.7119   YZ=              5.2102

 Normal termination of Gaussian 16 at Wed May  5 22:49:59 2021.
