 Gaussian 16, Revision A.03,
 Gaussian 16:  EM64L-G16RevA.03 25-Dec-2016

 -------------
 #p 6-31g* mp2
 -------------

 ------------------------------------------------------
 Input file generated by CHIRIPA (05-May-2021 14:53:14)
 ------------------------------------------------------
 Symbolic Z-matrix:
 Charge =  0 Multiplicity = 1

                         Standard orientation:
 ---------------------------------------------------------------------
 Center     Atomic      Atomic             Coordinates (Angstroms)
 Number     Number       Type             X           Y           Z
 ---------------------------------------------------------------------
      1          6           0       -3.618558   -0.123067    0.002058
      2          6           0       -3.728770   -1.211146   -1.066550
      3          6           0       -4.798097   -2.254121   -0.740151
      4          1           0       -3.393346   -0.590538    0.970405
      5          1           0       -4.593185    0.372067    0.113141
      6          1           0       -2.753863   -1.703152   -1.176565
      7          1           0       -3.953556   -0.741014   -2.032502
      8          1           0       -5.781884   -1.782178   -0.650522
      9          1           0       -4.575375   -2.749783    0.210278
     10          1           0       -4.859919   -3.022439   -1.517149
     11          6           0       -2.553770    0.926950   -0.310065
     12          6           0       -2.443559    2.015028    0.758544
     13          6           0       -1.374232    3.058004    0.432145
     14          1           0       -1.579143    0.431816   -0.421148
     15          1           0       -2.778982    1.394420   -1.278412
     16          1           0       -2.218772    1.544896    1.724496
     17          1           0       -3.418465    2.507034    0.868559
     18          1           0       -1.596954    3.553665   -0.518284
     19          1           0       -0.390444    2.586061    0.342516
     20          1           0       -1.312410    3.826322    1.209142
     21          6           0        3.274478    0.544071   -2.089691
     22          6           0        3.372115   -0.816633   -1.780710
     23          6           0        2.897052   -1.303212   -0.559192
     24          6           0        2.327594   -0.396973    0.333970
     25          6           0        2.216008    0.964314    0.055157
     26          6           0        2.697754    1.428643   -1.172389
     27          1           0        3.646114    0.913416   -3.040936
     28          1           0        3.819531   -1.505908   -2.491178
     29          1           0        2.960014   -2.351699   -0.294373
     30          1           0        1.764985    1.627132    0.783627
     31          1           0        2.620604    2.485900   -1.409663
     32          7           0        1.821130   -0.900315    1.630326
     33          8           0        1.323672   -0.081415    2.400117
     34          8           0        1.931210   -2.104203    1.852075
 ---------------------------------------------------------------------

 SCF Done:  E(RHF) =  -669.535636079     A.U. after   15 cycles
 E2 =    -0.2091886774D+01 EUMP2 =    -0.67162752285310D+03

 The electronic state is 1-A.
 Alpha  occ. eigenvalues --  -20.60851 -20.60846 -15.85902 -11.31261 -11.27819
 Alpha  occ. eigenvalues --  -11.27807 -11.27551 -11.26835 -11.26823 -11.21397
 Alpha  occ. eigenvalues --  -11.21392 -11.21209 -11.21184 -11.21099 -11.20839
 Alpha  occ. eigenvalues --   -1.59925  -1.39478  -1.19428  -1.08822  -1.08227
 Alpha  occ. eigenvalues --   -1.04828  -1.03373  -0.95855  -0.95656  -0.86877
 Alpha  occ. eigenvalues --   -0.86223  -0.82489  -0.79440  -0.78037  -0.77539
 Alpha  occ. eigenvalues --   -0.72119  -0.71249  -0.70539  -0.65078  -0.64910
 Alpha  occ. eigenvalues --   -0.64771  -0.62215  -0.60741  -0.59209  -0.57453
 Alpha  occ. eigenvalues --   -0.55375  -0.55105  -0.53158  -0.52928  -0.52551
 Alpha  occ. eigenvalues --   -0.52263  -0.49784  -0.48877  -0.48874  -0.47761
 Alpha  occ. eigenvalues --   -0.46444  -0.45592  -0.45483  -0.44879  -0.43617
 Alpha  occ. eigenvalues --   -0.37401  -0.36407
 Alpha virt. eigenvalues --    0.04948   0.11149   0.16453   0.20821   0.23070
 Alpha virt. eigenvalues --    0.24251   0.26121   0.27060   0.27765   0.27898
 Alpha virt. eigenvalues --    0.29117   0.30809   0.31491   0.31777   0.32182

 Mulliken charges:
               1
     1  C   -0.299584
     2  C   -0.299330
     3  C   -0.475923
     4  H    0.155722
     5  H    0.148536
     6  H    0.152039
     7  H    0.149463
     8  H    0.154468
     9  H    0.157981
    10  H    0.158920
    11  C   -0.297851
    12  C   -0.300759
    13  C   -0.477413
    14  H    0.148726
    15  H    0.146173
    16  H    0.163470
    17  H    0.151261
    18  H    0.152318
    19  H    0.147314
    20  H    0.161937
    21  C   -0.170692
    22  C   -0.218133
    23  C   -0.171196
    24  C    0.158041
    25  C   -0.173472
    26  C   -0.218775
    27  H    0.226031
    28  H    0.223794
    29  H    0.275729
    30  H    0.279483
    31  H    0.224830
    32  N    0.487779
    33  O   -0.460798
    34  O   -0.460090
 Sum of Mulliken charges =  -0.00000

 Dipole moment (field-independent basis, Debye):
    X=              1.8024    Y=              1.7085    Z=             -4.4864  Tot=              5.1279
 Quadrupole moment (field-independent basis, Debye-Ang):
   XX=            -86.7133   YY=            -92.5478   ZZ=            -97.8226
   XY=              1.0209   XZ=            -10.6638   YZ=              3.5860

 Normal termination of Gaussian 16 at Wed May  5 23:28:46 2021.
