 Gaussian 16, Revision A.03,
 Gaussian 16:  EM64L-G16RevA.03 25-Dec-2016

 -------------
 #p 6-31g* mp2
 -------------

 ------------------------------------------------------
 Input file generated by CHIRIPA (05-May-2021 14:57:26)
 ------------------------------------------------------
 Symbolic Z-matrix:
 Charge =  0 Multiplicity = 1

                         Standard orientation:
 ---------------------------------------------------------------------
 Center     Atomic      Atomic             Coordinates (Angstroms)
 Number     Number       Type             X           Y           Z
 ---------------------------------------------------------------------
      1          6           0       -1.092133   -1.091755    1.860517
      2          6           0       -1.443808   -1.826061    0.723134
      3          6           0       -2.416211   -1.346085   -0.159252
      4          6           0       -3.019432   -0.122550    0.127759
      5          6           0       -2.690696    0.632320    1.252656
      6          6           0       -1.715600    0.132933    2.121189
      7          1           0       -0.335701   -1.472151    2.540594
      8          1           0       -0.961276   -2.777479    0.518168
      9          1           0       -2.707566   -1.894034   -1.047105
     10          1           0       -3.189206    1.577478    1.430373
     11          1           0       -1.444486    0.705356    3.003727
     12          7           0       -4.050297    0.395854   -0.799050
     13          8           0       -4.566963    1.476545   -0.523732
     14          8           0       -4.322103   -0.288329   -1.783252
     15          6           0        3.150977   -2.287872   -0.494358
     16          6           0        1.901199   -1.710070   -0.740773
     17          6           0        1.722617   -0.328287   -0.625312
     18          6           0        2.820391    0.449280   -0.259834
     19          6           0        4.078021   -0.096719   -0.007763
     20          6           0        4.233491   -1.480775   -0.129283
     21          1           0        3.280727   -3.362158   -0.586405
     22          1           0        1.058725   -2.334415   -1.024456
     23          1           0        0.766062    0.145215   -0.810287
     24          1           0        4.899092    0.551546    0.273328
     25          1           0        5.205236   -1.926759    0.062693
     26          7           0        2.643568    1.913315   -0.134393
     27          8           0        3.626536    2.576496    0.189027
     28          8           0        1.525354    2.369922   -0.361869
 ---------------------------------------------------------------------

 SCF Done:  E(RHF) =  -868.336736449     A.U. after   16 cycles
 E2 =    -0.2602188000D+01 EUMP2 =    -0.87093892444964D+03

 The electronic state is 1-A.
 Alpha  occ. eigenvalues --  -20.61125 -20.61118 -20.60946 -20.60922 -15.86181
 Alpha  occ. eigenvalues --  -15.85999 -11.31604 -11.31516 -11.28212 -11.28193
 Alpha  occ. eigenvalues --  -11.28161 -11.28030 -11.28007 -11.27861 -11.27255
 Alpha  occ. eigenvalues --  -11.27252 -11.27225 -11.27034  -1.60202  -1.60009
 Alpha  occ. eigenvalues --   -1.39751  -1.39558  -1.19826  -1.19710  -1.09209
 Alpha  occ. eigenvalues --   -1.09072  -1.05267  -1.05101  -0.96017  -0.95874
 Alpha  occ. eigenvalues --   -0.86662  -0.86492  -0.82857  -0.82697  -0.77908
 Alpha  occ. eigenvalues --   -0.77705  -0.72394  -0.72212  -0.71534  -0.71335
 Alpha  occ. eigenvalues --   -0.70917  -0.70782  -0.65484  -0.65440  -0.65355
 Alpha  occ. eigenvalues --   -0.64961  -0.62673  -0.62362  -0.55760  -0.55597
 Alpha  occ. eigenvalues --   -0.53763  -0.53479  -0.53226  -0.53064  -0.49163
 Alpha  occ. eigenvalues --   -0.49142  -0.48985  -0.48956  -0.45141  -0.44932
 Alpha  occ. eigenvalues --   -0.37931  -0.37843  -0.36904  -0.36398
 Alpha virt. eigenvalues --    0.04557   0.04881   0.10551   0.11058   0.16115
 Alpha virt. eigenvalues --    0.16176   0.19843   0.21783   0.25409   0.27717
 Alpha virt. eigenvalues --    0.28059   0.28203   0.29818   0.31476   0.32160

 Mulliken charges:
               1
     1  C   -0.169305
     2  C   -0.225012
     3  C   -0.177471
     4  C    0.158731
     5  C   -0.165309
     6  C   -0.216538
     7  H    0.227655
     8  H    0.216756
     9  H    0.274576
    10  H    0.280436
    11  H    0.228595
    12  N    0.488457
    13  O   -0.456156
    14  O   -0.461493
    15  C   -0.172383
    16  C   -0.222459
    17  C   -0.168408
    18  C    0.155685
    19  C   -0.170848
    20  C   -0.219451
    21  H    0.225045
    22  H    0.217531
    23  H    0.281263
    24  H    0.276641
    25  H    0.224386
    26  N    0.487631
    27  O   -0.460122
    28  O   -0.458433
 Sum of Mulliken charges =  -0.00000

 Dipole moment (field-independent basis, Debye):
    X=              4.1256    Y=             -6.6821    Z=              2.9683  Tot=              8.3953
 Quadrupole moment (field-independent basis, Debye-Ang):
   XX=           -118.8758   YY=           -106.8984   ZZ=           -102.7279
   XY=             -9.6731   XZ=            -10.0971   YZ=              3.3949

 Normal termination of Gaussian 16 at Thu May  6 11:27:20 2021.
