 Gaussian 16, Revision A.03,
 Gaussian 16:  EM64L-G16RevA.03 25-Dec-2016

 -------------
 #p 6-31g* mp2
 -------------

 ------------------------------------------------------
 Input file generated by CHIRIPA (05-May-2021 14:57:24)
 ------------------------------------------------------
 Symbolic Z-matrix:
 Charge =  0 Multiplicity = 1

                         Standard orientation:
 ---------------------------------------------------------------------
 Center     Atomic      Atomic             Coordinates (Angstroms)
 Number     Number       Type             X           Y           Z
 ---------------------------------------------------------------------
      1          6           0        1.509031    2.194135    1.623451
      2          6           0        1.867308    0.985989    2.230528
      3          6           0        2.261996   -0.108500    1.455375
      4          6           0        2.287054    0.040872    0.069608
      5          6           0        1.935894    1.231467   -0.564789
      6          6           0        1.544405    2.312809    0.230186
      7          1           0        1.203670    3.039253    2.233308
      8          1           0        1.840778    0.890946    3.312336
      9          1           0        2.544480   -1.055374    1.899280
     10          1           0        1.972267    1.295869   -1.645505
     11          1           0        1.266698    3.249858   -0.244011
     12          7           0        2.703199   -1.110855   -0.761504
     13          8           0        2.716894   -0.953642   -1.980411
     14          8           0        3.007800   -2.148985   -0.178286
     15          6           0       -2.207275    2.069300   -1.243812
     16          6           0       -1.357724    1.074227   -1.738396
     17          6           0       -1.355477   -0.203700   -1.171437
     18          6           0       -2.219551   -0.453045   -0.106311
     19          6           0       -3.077687    0.517306    0.408771
     20          6           0       -3.063036    1.788160   -0.173694
     21          1           0       -2.202457    3.059279   -1.690262
     22          1           0       -0.692069    1.289720   -2.569367
     23          1           0       -0.708115   -0.992640   -1.534638
     24          1           0       -3.730081    0.272513    1.238154
     25          1           0       -3.723892    2.558999    0.212471
     26          7           0       -2.226116   -1.802185    0.502111
     27          8           0       -2.996792   -1.996546    1.439619
     28          8           0       -1.460462   -2.639735    0.029965
 ---------------------------------------------------------------------

 SCF Done:  E(RHF) =  -868.335775102     A.U. after   16 cycles
 E2 =    -0.2604375804D+01 EUMP2 =    -0.87094015090582D+03

 The electronic state is 1-A.
 Alpha  occ. eigenvalues --  -20.60984 -20.60910 -20.60798 -20.60762 -15.85991
 Alpha  occ. eigenvalues --  -15.85835 -11.31374 -11.31313 -11.28060 -11.27915
 Alpha  occ. eigenvalues --  -11.27887 -11.27831 -11.27715 -11.27714 -11.27043
 Alpha  occ. eigenvalues --  -11.26993 -11.26953 -11.26919  -1.60016  -1.59860
 Alpha  occ. eigenvalues --   -1.39570  -1.39407  -1.19605  -1.19475  -1.08961
 Alpha  occ. eigenvalues --   -1.08900  -1.05064  -1.04855  -0.95791  -0.95707
 Alpha  occ. eigenvalues --   -0.86391  -0.86341  -0.82630  -0.82531  -0.77711
 Alpha  occ. eigenvalues --   -0.77517  -0.72207  -0.72049  -0.71368  -0.71181
 Alpha  occ. eigenvalues --   -0.70706  -0.70622  -0.65244  -0.65184  -0.65037
 Alpha  occ. eigenvalues --   -0.64903  -0.62458  -0.62155  -0.55503  -0.55462
 Alpha  occ. eigenvalues --   -0.53921  -0.53163  -0.52960  -0.52655  -0.48989
 Alpha  occ. eigenvalues --   -0.48946  -0.48827  -0.48796  -0.44960  -0.44786
 Alpha  occ. eigenvalues --   -0.37830  -0.37679  -0.36920  -0.35665
 Alpha virt. eigenvalues --    0.04781   0.04995   0.10956   0.11130   0.16342
 Alpha virt. eigenvalues --    0.16553   0.19958   0.21883   0.25512   0.27145
 Alpha virt. eigenvalues --    0.28178   0.28741   0.30024   0.31343   0.32190

 Mulliken charges:
               1
     1  C   -0.170558
     2  C   -0.218676
     3  C   -0.168991
     4  C    0.157950
     5  C   -0.172092
     6  C   -0.211693
     7  H    0.224704
     8  H    0.225927
     9  H    0.280464
    10  H    0.267663
    11  H    0.216987
    12  N    0.487837
    13  O   -0.467986
    14  O   -0.450632
    15  C   -0.174164
    16  C   -0.217967
    17  C   -0.171748
    18  C    0.159656
    19  C   -0.171798
    20  C   -0.219191
    21  H    0.221887
    22  H    0.222311
    23  H    0.283645
    24  H    0.274958
    25  H    0.221730
    26  N    0.486993
    27  O   -0.462475
    28  O   -0.454744
 Sum of Mulliken charges =  -0.00000

 Dipole moment (field-independent basis, Debye):
    X=             -1.3471    Y=              8.5367    Z=              0.9624  Tot=              8.6957
 Quadrupole moment (field-independent basis, Debye-Ang):
   XX=           -110.4708   YY=           -107.9715   ZZ=            -99.1339
   XY=             -3.1771   XZ=              9.8577   YZ=             -0.4689

 Normal termination of Gaussian 16 at Fri May  7 08:02:09 2021.
