 Gaussian 16, Revision A.03,
 Gaussian 16:  EM64L-G16RevA.03 25-Dec-2016

 -------------
 #p 6-31g* mp2
 -------------

 ------------------------------------------------------
 Input file generated by CHIRIPA (05-May-2021 14:57:24)
 ------------------------------------------------------
 Symbolic Z-matrix:
 Charge =  0 Multiplicity = 1

                         Standard orientation:
 ---------------------------------------------------------------------
 Center     Atomic      Atomic             Coordinates (Angstroms)
 Number     Number       Type             X           Y           Z
 ---------------------------------------------------------------------
      1          6           0       -1.592678   -2.052717    0.128133
      2          6           0       -2.881499   -2.255390    0.632499
      3          6           0       -3.829925   -1.229102    0.590430
      4          6           0       -3.453813   -0.007307    0.034511
      5          6           0       -2.177738    0.225418   -0.476137
      6          6           0       -1.245523   -0.815142   -0.423603
      7          1           0       -0.862215   -2.855505    0.164878
      8          1           0       -3.153901   -3.215468    1.061559
      9          1           0       -4.834754   -1.358831    0.973716
     10          1           0       -1.935658    1.193417   -0.897791
     11          1           0       -0.245349   -0.654895   -0.816053
     12          7           0       -4.449288    1.086733   -0.015565
     13          8           0       -4.093058    2.153894   -0.510441
     14          8           0       -5.566922    0.856363    0.441010
     15          6           0        3.309116    2.678608    0.357879
     16          6           0        2.581507    2.147342   -0.712103
     17          6           0        2.563619    0.768704   -0.943595
     18          6           0        3.287874   -0.053202   -0.081497
     19          6           0        4.022401    0.445875    0.993065
     20          6           0        4.025977    1.827679    1.205554
     21          1           0        3.317453    3.750797    0.530327
     22          1           0        2.023856    2.805789   -1.372041
     23          1           0        2.008792    0.330735   -1.764430
     24          1           0        4.568521   -0.235734    1.633830
     25          1           0        4.591935    2.237472    2.037303
     26          7           0        3.276513   -1.514380   -0.316509
     27          8           0        3.922835   -2.217175    0.457432
     28          8           0        2.621500   -1.929189   -1.270201
 ---------------------------------------------------------------------

 SCF Done:  E(RHF) =  -868.339209350     A.U. after   16 cycles
 E2 =    -0.2599878660D+01 EUMP2 =    -0.87093908800997D+03

 The electronic state is 1-A.
 Alpha  occ. eigenvalues --  -20.61872 -20.61819 -20.60694 -20.60680 -15.86866
 Alpha  occ. eigenvalues --  -15.85739 -11.32066 -11.30977 -11.28650 -11.28539
 Alpha  occ. eigenvalues --  -11.28218 -11.27565 -11.27561 -11.27519 -11.27505
 Alpha  occ. eigenvalues --  -11.27110 -11.26464 -11.26436  -1.60910  -1.59767
 Alpha  occ. eigenvalues --   -1.40471  -1.39326  -1.20197  -1.19120  -1.09607
 Alpha  occ. eigenvalues --   -1.08507  -1.05574  -1.04515  -0.96479  -0.95372
 Alpha  occ. eigenvalues --   -0.86977  -0.85895  -0.83315  -0.82226  -0.78413
 Alpha  occ. eigenvalues --   -0.77316  -0.73081  -0.72230  -0.71958  -0.71282
 Alpha  occ. eigenvalues --   -0.71089  -0.70159  -0.65842  -0.65570  -0.64758
 Alpha  occ. eigenvalues --   -0.64496  -0.62937  -0.61859  -0.56029  -0.54911
 Alpha  occ. eigenvalues --   -0.53904  -0.53658  -0.52837  -0.52571  -0.49861
 Alpha  occ. eigenvalues --   -0.49821  -0.48726  -0.48700  -0.45898  -0.44761
 Alpha  occ. eigenvalues --   -0.38128  -0.37174  -0.37037  -0.36123
 Alpha virt. eigenvalues --    0.04065   0.05228   0.10344   0.11551   0.15658
 Alpha virt. eigenvalues --    0.16772   0.20063   0.22017   0.25588   0.27130
 Alpha virt. eigenvalues --    0.28542   0.28799   0.29940   0.31024   0.32335

 Mulliken charges:
               1
     1  C   -0.173265
     2  C   -0.218927
     3  C   -0.171612
     4  C    0.158348
     5  C   -0.172888
     6  C   -0.223273
     7  H    0.236920
     8  H    0.224038
     9  H    0.274614
    10  H    0.268790
    11  H    0.228318
    12  N    0.488365
    13  O   -0.463863
    14  O   -0.460535
    15  C   -0.169436
    16  C   -0.218038
    17  C   -0.179178
    18  C    0.160276
    19  C   -0.170359
    20  C   -0.217168
    21  H    0.230442
    22  H    0.227277
    23  H    0.271436
    24  H    0.277372
    25  H    0.227190
    26  N    0.487967
    27  O   -0.454975
    28  O   -0.467836
 Sum of Mulliken charges =  -0.00000

 Dipole moment (field-independent basis, Debye):
    X=              3.9180    Y=              1.2942    Z=              1.1701  Tot=              4.2890
 Quadrupole moment (field-independent basis, Debye-Ang):
   XX=           -125.0872   YY=           -103.6624   ZZ=           -101.8729
   XY=             33.0437   XZ=              3.6837   YZ=             -2.6848

 Normal termination of Gaussian 16 at Thu May  6 00:17:27 2021.
