 Gaussian 16, Revision A.03,
 Gaussian 16:  EM64L-G16RevA.03 25-Dec-2016

 -------------
 #p 6-31g* mp2
 -------------

 ------------------------------------------------------
 Input file generated by CHIRIPA (05-May-2021 14:53:13)
 ------------------------------------------------------
 Symbolic Z-matrix:
 Charge =  0 Multiplicity = 1

                         Standard orientation:
 ---------------------------------------------------------------------
 Center     Atomic      Atomic             Coordinates (Angstroms)
 Number     Number       Type             X           Y           Z
 ---------------------------------------------------------------------
      1          6           0       -3.492315   -0.207294   -0.652121
      2          6           0       -2.271684   -0.978982   -0.149584
      3          6           0       -1.018423   -0.710953   -0.983424
      4          1           0       -3.682749   -0.476925   -1.699966
      5          1           0       -3.267163    0.868159   -0.642064
      6          1           0       -2.499556   -2.052572   -0.159278
      7          1           0       -2.084249   -0.707626    0.897245
      8          1           0       -0.763524    0.353598   -0.964519
      9          1           0       -1.181191   -0.998989   -2.027045
     10          1           0       -0.157888   -1.272593   -0.606727
     11          6           0       -4.753021   -0.464837    0.171297
     12          6           0       -5.973652    0.306851   -0.331240
     13          6           0       -7.226914    0.038822    0.502600
     14          1           0       -4.978173   -1.540290    0.161240
     15          1           0       -4.562587   -0.195206    1.219142
     16          1           0       -6.161087    0.035495   -1.378069
     17          1           0       -5.745781    1.380441   -0.321546
     18          1           0       -7.064146    0.326858    1.546220
     19          1           0       -7.481812   -1.025729    0.483695
     20          1           0       -8.087448    0.600462    0.125903
     21          6           0        1.333608    1.888203    0.589763
     22          6           0        1.402338    0.699913    1.324448
     23          6           0        2.443515   -0.208143    1.110124
     24          6           0        3.403285    0.105389    0.148964
     25          6           0        3.362250    1.281012   -0.599045
     26          6           0        2.312059    2.174456   -0.367951
     27          1           0        0.521296    2.587928    0.762768
     28          1           0        0.643855    0.474985    2.068866
     29          1           0        2.520936   -1.135402    1.664754
     30          1           0        4.133044    1.477619   -1.334328
     31          1           0        2.261221    3.096530   -0.940000
     32          7           0        4.510303   -0.848194   -0.086809
     33          8           0        5.343451   -0.548662   -0.939324
     34          8           0        4.523876   -1.877089    0.585372
 ---------------------------------------------------------------------

 SCF Done:  E(RHF) =  -669.534612234     A.U. after   15 cycles
 E2 =    -0.2092771959D+01 EUMP2 =    -0.67162738419306D+03

 The electronic state is 1-A.
 Alpha  occ. eigenvalues --  -20.60784 -20.60779 -15.85838 -11.31224 -11.27774
 Alpha  occ. eigenvalues --  -11.27765 -11.27512 -11.26814 -11.26790 -11.22111
 Alpha  occ. eigenvalues --  -11.22008 -11.21891 -11.21813 -11.21424 -11.21320
 Alpha  occ. eigenvalues --   -1.59859  -1.39412  -1.19391  -1.08895  -1.08782
 Alpha  occ. eigenvalues --   -1.04798  -1.03942  -0.96372  -0.95619  -0.87385
 Alpha  occ. eigenvalues --   -0.86192  -0.82450  -0.80010  -0.78708  -0.77491
 Alpha  occ. eigenvalues --   -0.72056  -0.71181  -0.70505  -0.65538  -0.65045
 Alpha  occ. eigenvalues --   -0.64797  -0.62147  -0.61358  -0.59754  -0.57993
 Alpha  occ. eigenvalues --   -0.55733  -0.55303  -0.53427  -0.52892  -0.52791
 Alpha  occ. eigenvalues --   -0.52704  -0.50276  -0.48816  -0.48809  -0.48326
 Alpha  occ. eigenvalues --   -0.47061  -0.46242  -0.46184  -0.44814  -0.44199
 Alpha  occ. eigenvalues --   -0.37312  -0.36343
 Alpha virt. eigenvalues --    0.05001   0.11199   0.16424   0.20502   0.22656
 Alpha virt. eigenvalues --    0.24001   0.25836   0.26472   0.27483   0.27957
 Alpha virt. eigenvalues --    0.28307   0.30151   0.31144   0.31511   0.31884

 Mulliken charges:
               1
     1  C   -0.297386
     2  C   -0.300525
     3  C   -0.475618
     4  H    0.152310
     5  H    0.145117
     6  H    0.155031
     7  H    0.142809
     8  H    0.152616
     9  H    0.155946
    10  H    0.162738
    11  C   -0.298151
    12  C   -0.299711
    13  C   -0.475855
    14  H    0.151435
    15  H    0.147505
    16  H    0.153217
    17  H    0.150586
    18  H    0.154711
    19  H    0.156321
    20  H    0.161192
    21  C   -0.171852
    22  C   -0.211662
    23  C   -0.173350
    24  C    0.159542
    25  C   -0.170787
    26  C   -0.218105
    27  H    0.225299
    28  H    0.224151
    29  H    0.275623
    30  H    0.275764
    31  H    0.223667
    32  N    0.488033
    33  O   -0.460187
    34  O   -0.460424
 Sum of Mulliken charges =  -0.00000

 Dipole moment (field-independent basis, Debye):
    X=             -3.8903    Y=              3.3498    Z=              0.7955  Tot=              5.1950
 Quadrupole moment (field-independent basis, Debye-Ang):
   XX=           -121.9809   YY=            -91.9797   ZZ=            -92.3891
   XY=             12.6581   XZ=              1.4813   YZ=             -1.2998

 Normal termination of Gaussian 16 at Thu May  6 13:43:49 2021.
