 Gaussian 16, Revision A.03,
 Gaussian 16:  EM64L-G16RevA.03 25-Dec-2016

 -------------
 #p 6-31g* mp2
 -------------

 ------------------------------------------------------
 Input file generated by CHIRIPA (05-May-2021 14:55:20)
 ------------------------------------------------------
 Symbolic Z-matrix:
 Charge =  0 Multiplicity = 1

                         Standard orientation:
 ---------------------------------------------------------------------
 Center     Atomic      Atomic             Coordinates (Angstroms)
 Number     Number       Type             X           Y           Z
 ---------------------------------------------------------------------
      1          6           0        1.685439    2.243488    0.836466
      2          6           0        2.785254    2.519991    0.017640
      3          6           0        3.602916    1.485267   -0.446389
      4          6           0        3.290194    0.179842   -0.070407
      5          6           0        2.201483   -0.127693    0.744099
      6          6           0        1.397571    0.922857    1.196447
      7          1           0        1.055600    3.053433    1.192398
      8          1           0        3.011212    3.544652   -0.263528
      9          1           0        4.460586    1.671047   -1.081453
     10          1           0        2.001490   -1.159217    1.007498
     11          1           0        0.544094    0.705157    1.832236
     12          7           0        4.148538   -0.923950   -0.555471
     13          8           0        3.851709   -2.065512   -0.209977
     14          8           0        5.101884   -0.626641   -1.271974
     15          6           0       -3.393738   -0.527121    0.404952
     16          6           0       -2.604745   -1.804377    0.114959
     17          6           0       -1.333774   -1.918195    0.957262
     18          1           0       -2.750207    0.343810    0.219772
     19          1           0       -3.656094   -0.500740    1.471662
     20          1           0       -2.345147   -1.829015   -0.951164
     21          1           0       -3.250289   -2.672364    0.300667
     22          1           0       -1.577724   -1.919067    2.024542
     23          1           0       -0.667439   -1.070926    0.765599
     24          1           0       -0.785194   -2.838534    0.733889
     25          6           0       -4.667008   -0.398986   -0.429367
     26          6           0       -5.456001    0.878269   -0.139374
     27          6           0       -6.726971    0.992087   -0.981676
     28          1           0       -4.404651   -0.425368   -1.496076
     29          1           0       -5.310539   -1.269918   -0.244188
     30          1           0       -4.810457    1.746256   -0.325083
     31          1           0       -5.715599    0.902908    0.926748
     32          1           0       -7.393306    0.144819   -0.790014
     33          1           0       -6.483022    0.992960   -2.048957
     34          1           0       -7.275551    1.912427   -0.758304
 ---------------------------------------------------------------------

 SCF Done:  E(RHF) =  -669.535040427     A.U. after   15 cycles
 E2 =    -0.2092049052D+01 EUMP2 =    -0.67162708947914D+03

 The electronic state is 1-A.
 Alpha  occ. eigenvalues --  -20.60751 -20.60746 -15.85805 -11.31172 -11.27761
 Alpha  occ. eigenvalues --  -11.27719 -11.27497 -11.26771 -11.26722 -11.22100
 Alpha  occ. eigenvalues --  -11.22019 -11.21931 -11.21793 -11.21719 -11.21407
 Alpha  occ. eigenvalues --   -1.59826  -1.39379  -1.19357  -1.08910  -1.08748
 Alpha  occ. eigenvalues --   -1.04769  -1.04006  -0.96483  -0.95580  -0.87511
 Alpha  occ. eigenvalues --   -0.86153  -0.82423  -0.80089  -0.78729  -0.77453
 Alpha  occ. eigenvalues --   -0.72023  -0.71150  -0.70461  -0.65546  -0.65009
 Alpha  occ. eigenvalues --   -0.64765  -0.62193  -0.61345  -0.59831  -0.58077
 Alpha  occ. eigenvalues --   -0.55793  -0.55249  -0.53186  -0.53158  -0.52937
 Alpha  occ. eigenvalues --   -0.52713  -0.50410  -0.48785  -0.48776  -0.48388
 Alpha  occ. eigenvalues --   -0.47099  -0.46270  -0.46179  -0.44784  -0.44259
 Alpha  occ. eigenvalues --   -0.37341  -0.36325
 Alpha virt. eigenvalues --    0.05041   0.11260   0.16385   0.20836   0.22547
 Alpha virt. eigenvalues --    0.23972   0.25890   0.26317   0.26949   0.28160
 Alpha virt. eigenvalues --    0.29036   0.30397   0.31195   0.31522   0.32192

 Mulliken charges:
               1
     1  C   -0.171908
     2  C   -0.218830
     3  C   -0.170854
     4  C    0.157461
     5  C   -0.170280
     6  C   -0.221858
     7  H    0.225730
     8  H    0.223384
     9  H    0.275618
    10  H    0.279063
    11  H    0.227029
    12  N    0.488141
    13  O   -0.460212
    14  O   -0.460611
    15  C   -0.298875
    16  C   -0.298738
    17  C   -0.487193
    18  H    0.145814
    19  H    0.148464
    20  H    0.156021
    21  H    0.155012
    22  H    0.153609
    23  H    0.152710
    24  H    0.167758
    25  C   -0.298652
    26  C   -0.299707
    27  C   -0.475960
    28  H    0.151382
    29  H    0.151494
    30  H    0.150240
    31  H    0.151656
    32  H    0.156321
    33  H    0.156129
    34  H    0.160642
 Sum of Mulliken charges =  -0.00000

 Dipole moment (field-independent basis, Debye):
    X=             -3.1147    Y=              3.8363    Z=              1.6516  Tot=              5.2103
 Quadrupole moment (field-independent basis, Debye-Ang):
   XX=           -113.7566   YY=            -91.1207   ZZ=            -94.2765
   XY=             15.1586   XZ=              3.5397   YZ=             -1.9817

 Normal termination of Gaussian 16 at Thu May  6 01:23:03 2021.
