 Gaussian 16, Revision A.03,
 Gaussian 16:  EM64L-G16RevA.03 25-Dec-2016

 -------------
 #p 6-31g* mp2
 -------------

 ------------------------------------------------------
 Input file generated by CHIRIPA (05-May-2021 14:55:22)
 ------------------------------------------------------
 Symbolic Z-matrix:
 Charge =  0 Multiplicity = 1

                         Standard orientation:
 ---------------------------------------------------------------------
 Center     Atomic      Atomic             Coordinates (Angstroms)
 Number     Number       Type             X           Y           Z
 ---------------------------------------------------------------------
      1          6           0       -1.655337    1.312871    0.084895
      2          6           0       -2.814032    2.088558    0.195609
      3          6           0       -4.076760    1.492358    0.127689
      4          6           0       -4.144223    0.111666   -0.052388
      5          6           0       -3.008170   -0.688176   -0.166082
      6          6           0       -1.755927   -0.070581   -0.095279
      7          1           0       -0.678493    1.784323    0.138777
      8          1           0       -2.738943    3.163180    0.335587
      9          1           0       -4.990003    2.069040    0.210413
     10          1           0       -3.114946   -1.757147   -0.305068
     11          1           0       -0.857770   -0.675488   -0.181574
     12          7           0       -5.475466   -0.530829   -0.125818
     13          8           0       -5.507949   -1.749133   -0.284932
     14          8           0       -6.461204    0.196054   -0.022868
     15          6           0        5.774063   -0.419894    0.029498
     16          6           0        6.616704    0.821575   -0.264945
     17          6           0        8.115611    0.522583   -0.305861
     18          1           0        6.089889   -0.850331    0.989666
     19          1           0        5.976168   -1.181709   -0.736131
     20          1           0        6.412033    1.581336    0.500228
     21          1           0        6.298706    1.249216   -1.224433
     22          1           0        8.339883   -0.217000   -1.081310
     23          1           0        8.453855    0.117008    0.653149
     24          1           0        8.699143    1.423938   -0.517781
     25          6           0        4.273470   -0.137052    0.073635
     26          6           0        3.430830   -1.378521    0.368077
     27          6           0        1.931922   -1.079529    0.408994
     28          1           0        4.071365    0.624762    0.839264
     29          1           0        3.957645    0.293384   -0.886534
     30          1           0        3.748828   -1.806161    1.327565
     31          1           0        3.635499   -2.138282   -0.397095
     32          1           0        1.593678   -0.673954   -0.550017
     33          1           0        1.707651   -0.339947    1.184442
     34          1           0        1.348390   -1.980885    0.620914
 ---------------------------------------------------------------------

 SCF Done:  E(RHF) =  -669.535545663     A.U. after   15 cycles
 E2 =    -0.2091139532D+01 EUMP2 =    -0.67162668519533D+03

 The electronic state is 1-A.
 Alpha  occ. eigenvalues --  -20.60679 -20.60673 -15.85729 -11.31068 -11.27636
 Alpha  occ. eigenvalues --  -11.27608 -11.27349 -11.26653 -11.26540 -11.22574
 Alpha  occ. eigenvalues --  -11.22437 -11.22218 -11.22161 -11.22017 -11.21527
 Alpha  occ. eigenvalues --   -1.59754  -1.39309  -1.19230  -1.09206  -1.08629
 Alpha  occ. eigenvalues --   -1.04631  -1.04343  -0.96836  -0.95471  -0.87881
 Alpha  occ. eigenvalues --   -0.86017  -0.82304  -0.80439  -0.78979  -0.77352
 Alpha  occ. eigenvalues --   -0.71948  -0.71077  -0.70340  -0.65830  -0.64879
 Alpha  occ. eigenvalues --   -0.64639  -0.62015  -0.61715  -0.60212  -0.58405
 Alpha  occ. eigenvalues --   -0.56127  -0.55127  -0.53624  -0.53278  -0.52962
 Alpha  occ. eigenvalues --   -0.52588  -0.50760  -0.48766  -0.48706  -0.48666
 Alpha  occ. eigenvalues --   -0.47428  -0.46530  -0.46422  -0.44720  -0.44578
 Alpha  occ. eigenvalues --   -0.37212  -0.36229
 Alpha virt. eigenvalues --    0.05169   0.11392   0.16668   0.20445   0.22240
 Alpha virt. eigenvalues --    0.23709   0.25680   0.25920   0.26703   0.27817
 Alpha virt. eigenvalues --    0.29242   0.29900   0.30479   0.31441   0.32062

 Mulliken charges:
               1
     1  C   -0.174868
     2  C   -0.218443
     3  C   -0.171716
     4  C    0.159065
     5  C   -0.173220
     6  C   -0.227155
     7  H    0.225563
     8  H    0.222733
     9  H    0.275040
    10  H    0.275389
    11  H    0.240247
    12  N    0.487961
    13  O   -0.460727
    14  O   -0.460862
    15  C   -0.299013
    16  C   -0.300123
    17  C   -0.476126
    18  H    0.151322
    19  H    0.151216
    20  H    0.151971
    21  H    0.152148
    22  H    0.156164
    23  H    0.156094
    24  H    0.161603
    25  C   -0.299459
    26  C   -0.299226
    27  C   -0.485636
    28  H    0.148965
    29  H    0.149358
    30  H    0.156327
    31  H    0.155763
    32  H    0.150730
    33  H    0.156562
    34  H    0.162351
 Sum of Mulliken charges =  -0.00000

 Dipole moment (field-independent basis, Debye):
    X=              5.0070    Y=              2.2095    Z=              0.2812  Tot=              5.4800
 Quadrupole moment (field-independent basis, Debye-Ang):
   XX=           -133.6370   YY=            -90.2939   ZZ=            -94.5915
   XY=            -11.2354   XZ=             -1.4433   YZ=              0.7024

 Normal termination of Gaussian 16 at Thu May  6 01:27:47 2021.
