 Gaussian 16, Revision A.03,
 Gaussian 16:  EM64L-G16RevA.03 25-Dec-2016

 -------------
 #p 6-31g* mp2
 -------------

 ------------------------------------------------------
 Input file generated by CHIRIPA (05-May-2021 14:57:27)
 ------------------------------------------------------
 Symbolic Z-matrix:
 Charge =  0 Multiplicity = 1

                         Standard orientation:
 ---------------------------------------------------------------------
 Center     Atomic      Atomic             Coordinates (Angstroms)
 Number     Number       Type             X           Y           Z
 ---------------------------------------------------------------------
      1          6           0        4.974537    1.278181   -1.331169
      2          6           0        5.339096   -0.017442   -0.950407
      3          6           0        4.504709   -0.775841   -0.123862
      4          6           0        3.307650   -0.204832    0.305428
      5          6           0        2.916625    1.083297   -0.056669
      6          6           0        3.766595    1.823454   -0.883874
      7          1           0        5.628762    1.860237   -1.973506
      8          1           0        6.276604   -0.443474   -1.296270
      9          1           0        4.762403   -1.781279    0.186146
     10          1           0        1.975790    1.480952    0.304050
     11          1           0        3.480902    2.829398   -1.177982
     12          7           0        2.416074   -0.998058    1.180804
     13          8           0        1.366766   -0.472175    1.545546
     14          8           0        2.783445   -2.130653    1.485605
     15          6           0       -3.404977    2.448639    0.690325
     16          6           0       -2.209832    1.744843    0.509156
     17          6           0       -2.225345    0.428700    0.037909
     18          6           0       -3.459390   -0.155464   -0.243473
     19          6           0       -4.667123    0.519603   -0.073312
     20          6           0       -4.627652    1.834854    0.399026
     21          1           0       -3.383620    3.470704    1.056825
     22          1           0       -1.258819    2.218985    0.734564
     23          1           0       -1.315088   -0.139223   -0.111471
     24          1           0       -5.599680    0.020286   -0.306630
     25          1           0       -5.557387    2.379014    0.538768
     26          7           0       -3.488494   -1.548333   -0.742940
     27          8           0       -4.588741   -2.040466   -0.983560
     28          8           0       -2.410507   -2.121558   -0.884343
 ---------------------------------------------------------------------

 SCF Done:  E(RHF) =  -868.338173644     A.U. after   16 cycles
 E2 =    -0.2599348829D+01 EUMP2 =    -0.87093752247322D+03

 The electronic state is 1-A.
 Alpha  occ. eigenvalues --  -20.61231 -20.61152 -20.60154 -20.60125 -15.86231
 Alpha  occ. eigenvalues --  -15.85196 -11.31569 -11.30567 -11.28216 -11.28073
 Alpha  occ. eigenvalues --  -11.27836 -11.27216 -11.27167 -11.27087 -11.27066
 Alpha  occ. eigenvalues --  -11.26997 -11.26244 -11.26206  -1.60239  -1.59218
 Alpha  occ. eigenvalues --   -1.39805  -1.38769  -1.19727  -1.18775  -1.09119
 Alpha  occ. eigenvalues --   -1.08186  -1.05135  -1.04176  -0.95966  -0.95003
 Alpha  occ. eigenvalues --   -0.86534  -0.85586  -0.82810  -0.81832  -0.77874
 Alpha  occ. eigenvalues --   -0.76856  -0.72454  -0.71547  -0.71415  -0.70843
 Alpha  occ. eigenvalues --   -0.70540  -0.69894  -0.65387  -0.65140  -0.64434
 Alpha  occ. eigenvalues --   -0.64206  -0.62502  -0.61505  -0.55620  -0.54729
 Alpha  occ. eigenvalues --   -0.53448  -0.53234  -0.52517  -0.52280  -0.49219
 Alpha  occ. eigenvalues --   -0.49182  -0.48187  -0.48160  -0.45206  -0.44171
 Alpha  occ. eigenvalues --   -0.37685  -0.36796  -0.36731  -0.35774
 Alpha virt. eigenvalues --    0.04652   0.05675   0.10919   0.11869   0.16136
 Alpha virt. eigenvalues --    0.17132   0.19768   0.22002   0.25065   0.27332
 Alpha virt. eigenvalues --    0.28702   0.29039   0.30743   0.31324   0.33062

 Mulliken charges:
               1
     1  C   -0.170287
     2  C   -0.217934
     3  C   -0.169517
     4  C    0.160374
     5  C   -0.170860
     6  C   -0.217637
     7  H    0.227001
     8  H    0.225554
     9  H    0.277999
    10  H    0.266414
    11  H    0.222590
    12  N    0.490323
    13  O   -0.469118
    14  O   -0.452207
    15  C   -0.171064
    16  C   -0.219148
    17  C   -0.169056
    18  C    0.157298
    19  C   -0.170921
    20  C   -0.219399
    21  H    0.222349
    22  H    0.218931
    23  H    0.285935
    24  H    0.274026
    25  H    0.220970
    26  N    0.487891
    27  O   -0.463601
    28  O   -0.456908
 Sum of Mulliken charges =  -0.00000

 Dipole moment (field-independent basis, Debye):
    X=              3.6290    Y=              7.4738    Z=             -1.3274  Tot=              8.4136
 Quadrupole moment (field-independent basis, Debye-Ang):
   XX=            -77.6585   YY=           -105.6478   ZZ=           -109.2007
   XY=            -11.5929   XZ=            -15.6586   YZ=             -0.0880

 Normal termination of Gaussian 16 at Thu May  6 13:10:17 2021.
