 Gaussian 16, Revision A.03,
 Gaussian 16:  EM64L-G16RevA.03 25-Dec-2016

 -------------
 #p 6-31g* mp2
 -------------

 ------------------------------------------------------
 Input file generated by CHIRIPA (05-May-2021 14:51:12)
 ------------------------------------------------------
 Symbolic Z-matrix:
 Charge =  0 Multiplicity = 1

                         Standard orientation:
 ---------------------------------------------------------------------
 Center     Atomic      Atomic             Coordinates (Angstroms)
 Number     Number       Type             X           Y           Z
 ---------------------------------------------------------------------
      1          6           0        2.933738   -0.502362   -0.304633
      2          6           0        3.145285    1.011879   -0.287147
      3          6           0        4.327216    1.453661   -1.150663
      4          1           0        3.849978   -0.998243    0.044010
      5          1           0        2.775161   -0.831481   -1.340938
      6          1           0        3.302040    1.338234    0.748969
      7          1           0        2.228369    1.504220   -0.635689
      8          1           0        4.175057    1.156189   -2.193236
      9          1           0        5.254829    0.989260   -0.800710
     10          1           0        4.460336    2.539669   -1.123700
     11          6           0        1.755774   -0.959446    0.553973
     12          6           0        1.544228   -2.473688    0.536487
     13          6           0        0.362296   -2.915470    1.400003
     14          1           0        1.914352   -0.630327    1.590278
     15          1           0        0.839534   -0.463565    0.205331
     16          1           0        2.461144   -2.966028    0.885030
     17          1           0        1.387473   -2.800042   -0.499629
     18          1           0       -0.565316   -2.451068    1.050050
     19          1           0        0.514455   -2.617997    2.442577
     20          1           0        0.229176   -4.001477    1.373040
     21          6           0       -2.476059    1.466612    0.033210
     22          6           0       -1.247796    2.199299    0.574062
     23          6           0       -1.526284    3.670161    0.885192
     24          1           0       -2.827804    1.974777   -0.875079
     25          1           0       -3.290452    1.539252    0.767297
     26          1           0       -0.435523    2.124115   -0.160225
     27          1           0       -0.898818    1.689217    1.481061
     28          1           0       -2.318918    3.761983    1.634793
     29          1           0       -1.852990    4.199352   -0.015819
     30          1           0       -0.634804    4.174768    1.270543
     31          6           0       -2.213453   -0.004804   -0.282550
     32          6           0       -3.441717   -0.737490   -0.823403
     33          6           0       -3.163228   -2.208353   -1.134532
     34          1           0       -1.399061   -0.077444   -1.016638
     35          1           0       -1.861708   -0.512969    0.625739
     36          1           0       -3.790694   -0.227408   -1.730401
     37          1           0       -4.253990   -0.662307   -0.089116
     38          1           0       -2.836522   -2.737544   -0.233521
     39          1           0       -2.370594   -2.300174   -1.884133
     40          1           0       -4.054708   -2.712960   -1.519884
 ---------------------------------------------------------------------

 SCF Done:  E(RHF) =  -470.732154240     A.U. after   11 cycles
 E2 =    -0.1585517639D+01 EUMP2 =    -0.47231767187874D+03

 The electronic state is 1-A.
 Alpha  occ. eigenvalues --  -11.21666 -11.21627 -11.21566 -11.21516 -11.21474
 Alpha  occ. eigenvalues --  -11.21411 -11.21322 -11.21204 -11.21122 -11.21091
 Alpha  occ. eigenvalues --  -11.21051 -11.20972  -1.08524  -1.08337  -1.03593
 Alpha  occ. eigenvalues --   -1.03463  -0.96039  -0.95917  -0.87053  -0.86939
 Alpha  occ. eigenvalues --   -0.79700  -0.79502  -0.78560  -0.77950  -0.65150
 Alpha  occ. eigenvalues --   -0.64990  -0.61005  -0.60874  -0.59426  -0.59270
 Alpha  occ. eigenvalues --   -0.57659  -0.57525  -0.55329  -0.55209  -0.52730
 Alpha  occ. eigenvalues --   -0.52620  -0.52463  -0.52357  -0.49986  -0.49896
 Alpha  occ. eigenvalues --   -0.48136  -0.47760  -0.46831  -0.46628  -0.46386
 Alpha  occ. eigenvalues --   -0.45728  -0.45592  -0.44843  -0.43830  -0.43709
 Alpha virt. eigenvalues --    0.20886   0.22019   0.23500   0.24656   0.25101
 Alpha virt. eigenvalues --    0.25846   0.27045   0.27194   0.28821   0.29802
 Alpha virt. eigenvalues --    0.30814   0.31135   0.31746   0.31937   0.32185

 Mulliken charges:
               1
     1  C   -0.297870
     2  C   -0.302644
     3  C   -0.475547
     4  H    0.149354
     5  H    0.148528
     6  H    0.151988
     7  H    0.154388
     8  H    0.154840
     9  H    0.155272
    10  H    0.160025
    11  C   -0.308198
    12  C   -0.298363
    13  C   -0.484844
    14  H    0.148138
    15  H    0.162220
    16  H    0.151408
    17  H    0.151272
    18  H    0.164382
    19  H    0.153961
    20  H    0.159812
    21  C   -0.297319
    22  C   -0.304405
    23  C   -0.475751
    24  H    0.149547
    25  H    0.149812
    26  H    0.155031
    27  H    0.153954
    28  H    0.155256
    29  H    0.154990
    30  H    0.160774
    31  C   -0.306364
    32  C   -0.299298
    33  C   -0.478927
    34  H    0.149776
    35  H    0.156196
    36  H    0.152088
    37  H    0.152215
    38  H    0.158629
    39  H    0.154852
    40  H    0.160823
 Sum of Mulliken charges =  -0.00000

 Dipole moment (field-independent basis, Debye):
    X=             -0.0744    Y=              0.0302    Z=              0.0032  Tot=              0.0804
 Quadrupole moment (field-independent basis, Debye-Ang):
   XX=            -85.0578   YY=            -86.1997   ZZ=            -83.6664
   XY=             -0.2504   XZ=              0.7072   YZ=             -0.2601

 Normal termination of Gaussian 16 at Wed May  5 15:16:31 2021.
