 Gaussian 16, Revision A.03,
 Gaussian 16:  EM64L-G16RevA.03 25-Dec-2016

 -------------
 #p 6-31g* mp2
 -------------

 ------------------------------------------------------
 Input file generated by CHIRIPA (05-May-2021 14:55:20)
 ------------------------------------------------------
 Symbolic Z-matrix:
 Charge =  0 Multiplicity = 1

                         Standard orientation:
 ---------------------------------------------------------------------
 Center     Atomic      Atomic             Coordinates (Angstroms)
 Number     Number       Type             X           Y           Z
 ---------------------------------------------------------------------
      1          6           0       -4.378528   -0.065351   -1.237947
      2          6           0       -3.820175    1.144945   -0.813745
      3          6           0       -2.713422    1.155563    0.040383
      4          6           0       -2.188063   -0.068086    0.452658
      5          6           0       -2.721916   -1.290412    0.047431
      6          6           0       -3.828586   -1.277030   -0.806765
      7          1           0       -5.238248   -0.064277   -1.901480
      8          1           0       -4.245181    2.087470   -1.147004
      9          1           0       -2.261358    2.077993    0.384153
     10          1           0       -2.276262   -2.213963    0.396521
     11          1           0       -4.260134   -2.218486   -1.134596
     12          7           0       -1.016437   -0.069549    1.356921
     13          8           0       -0.572158   -1.161097    1.705884
     14          8           0       -0.564581    1.020881    1.699596
     15          6           0        2.794963   -0.604399   -0.592718
     16          6           0        3.697989   -1.744313   -0.120356
     17          6           0        3.178751   -3.120964   -0.536305
     18          1           0        1.784409   -0.754161   -0.188619
     19          1           0        2.703641   -0.647625   -1.686879
     20          1           0        3.788695   -1.698116    0.972463
     21          1           0        4.706558   -1.591717   -0.525471
     22          1           0        3.105025   -3.191674   -1.626335
     23          1           0        2.181947   -3.298678   -0.119891
     24          1           0        3.839394   -3.921169   -0.188334
     25          6           0        3.300809    0.778081   -0.184560
     26          6           0        2.397783    1.917995   -0.656923
     27          6           0        2.917021    3.294647   -0.240973
     28          1           0        3.392132    0.821307    0.909600
     29          1           0        4.311364    0.927843   -0.588660
     30          1           0        1.389214    1.765399   -0.251808
     31          1           0        2.307077    1.871799   -1.749743
     32          1           0        3.913826    3.472360   -0.657388
     33          1           0        2.990747    3.365356    0.849057
     34          1           0        2.256378    4.094852   -0.588945
 ---------------------------------------------------------------------

 SCF Done:  E(RHF) =  -669.536858930     A.U. after   15 cycles
 E2 =    -0.2092335856D+01 EUMP2 =    -0.67162919478670D+03

 The electronic state is 1-A.
 Alpha  occ. eigenvalues --  -20.61146 -20.61137 -15.86126 -11.31361 -11.27915
 Alpha  occ. eigenvalues --  -11.27911 -11.27641 -11.26904 -11.26895 -11.20663
 Alpha  occ. eigenvalues --  -11.20549 -11.20360 -11.20293 -11.20267 -11.20215
 Alpha  occ. eigenvalues --   -1.60179  -1.39739  -1.19523  -1.08946  -1.07414
 Alpha  occ. eigenvalues --   -1.04906  -1.02583  -0.95802  -0.95057  -0.86311
 Alpha  occ. eigenvalues --   -0.86080  -0.82640  -0.78662  -0.77708  -0.77250
 Alpha  occ. eigenvalues --   -0.72358  -0.71483  -0.70634  -0.65182  -0.64910
 Alpha  occ. eigenvalues --   -0.63995  -0.62255  -0.59957  -0.58440  -0.56685
 Alpha  occ. eigenvalues --   -0.55418  -0.54325  -0.53240  -0.52998  -0.51789
 Alpha  occ. eigenvalues --   -0.51506  -0.49137  -0.49118  -0.48991  -0.47030
 Alpha  occ. eigenvalues --   -0.45851  -0.44898  -0.44782  -0.44633  -0.42833
 Alpha  occ. eigenvalues --   -0.37495  -0.36500
 Alpha virt. eigenvalues --    0.04767   0.11146   0.16220   0.21235   0.23898
 Alpha virt. eigenvalues --    0.25185   0.27096   0.27264   0.28095   0.28630
 Alpha virt. eigenvalues --    0.28855   0.31009   0.31664   0.32462   0.32731

 Mulliken charges:
               1
     1  C   -0.170240
     2  C   -0.218536
     3  C   -0.170586
     4  C    0.158360
     5  C   -0.170386
     6  C   -0.218559
     7  H    0.226337
     8  H    0.224197
     9  H    0.276174
    10  H    0.275857
    11  H    0.224183
    12  N    0.487606
    13  O   -0.458287
    14  O   -0.457411
    15  C   -0.302078
    16  C   -0.297877
    17  C   -0.476980
    18  H    0.158249
    19  H    0.142079
    20  H    0.157071
    21  H    0.147535
    22  H    0.149876
    23  H    0.160111
    24  H    0.157198
    25  C   -0.296655
    26  C   -0.305985
    27  C   -0.474411
    28  H    0.157000
    29  H    0.144032
    30  H    0.163694
    31  H    0.143546
    32  H    0.151025
    33  H    0.159706
    34  H    0.154157
 Sum of Mulliken charges =  -0.00000

 Dipole moment (field-independent basis, Debye):
    X=             -4.4288    Y=             -0.0342    Z=             -2.9491  Tot=              5.3209
 Quadrupole moment (field-independent basis, Debye-Ang):
   XX=            -77.6322   YY=            -91.3948   ZZ=            -97.9096
   XY=              0.0210   XZ=              5.5692   YZ=             -0.0149

 Normal termination of Gaussian 16 at Thu May  6 10:50:15 2021.
