 Gaussian 16, Revision A.03,
 Gaussian 16:  EM64L-G16RevA.03 25-Dec-2016

 -------------
 #p 6-31g* mp2
 -------------

 ------------------------------------------------------
 Input file generated by CHIRIPA (05-May-2021 14:57:25)
 ------------------------------------------------------
 Symbolic Z-matrix:
 Charge =  0 Multiplicity = 1

                         Standard orientation:
 ---------------------------------------------------------------------
 Center     Atomic      Atomic             Coordinates (Angstroms)
 Number     Number       Type             X           Y           Z
 ---------------------------------------------------------------------
      1          6           0       -2.424045   -2.387601    0.656916
      2          6           0       -1.855098   -1.815431   -0.485643
      3          6           0       -2.122798   -0.485102   -0.821963
      4          6           0       -2.967747    0.247312    0.010455
      5          6           0       -3.549786   -0.294402    1.155473
      6          6           0       -3.268085   -1.626602    1.472390
      7          1           0       -2.210651   -3.421759    0.910641
      8          1           0       -1.199234   -2.404047   -1.120795
      9          1           0       -1.695735   -0.017130   -1.700619
     10          1           0       -4.199674    0.317492    1.769191
     11          1           0       -3.711341   -2.068334    2.360333
     12          7           0       -3.258560    1.656662   -0.335321
     13          8           0       -4.006263    2.280701    0.414447
     14          8           0       -2.733291    2.110584   -1.349561
     15          6           0        3.801215    2.122121    0.943313
     16          6           0        4.000740    0.903071    1.599537
     17          6           0        3.516772   -0.287299    1.048773
     18          6           0        2.834607   -0.221646   -0.165160
     19          6           0        2.619853    0.977349   -0.843083
     20          6           0        3.112622    2.155311   -0.273756
     21          1           0        4.180592    3.042010    1.378370
     22          1           0        4.535151    0.874283    2.544853
     23          1           0        3.657152   -1.244787    1.535524
     24          1           0        2.083327    0.974291   -1.784119
     25          1           0        2.956191    3.100600   -0.785618
     26          7           0        2.317592   -1.475269   -0.758054
     27          8           0        1.719813   -1.390619   -1.828629
     28          8           0        2.519926   -2.518772   -0.140964
 ---------------------------------------------------------------------

 SCF Done:  E(RHF) =  -868.340915825     A.U. after   16 cycles
 E2 =    -0.2598783610D+01 EUMP2 =    -0.87093969943524D+03

 The electronic state is 1-A.
 Alpha  occ. eigenvalues --  -20.61478 -20.61454 -20.60476 -20.60467 -15.86483
 Alpha  occ. eigenvalues --  -15.85515 -11.31497 -11.30646 -11.28041 -11.27999
 Alpha  occ. eigenvalues --  -11.27694 -11.27217 -11.27080 -11.26981 -11.26917
 Alpha  occ. eigenvalues --  -11.26809 -11.26199 -11.25913  -1.60531  -1.59554
 Alpha  occ. eigenvalues --   -1.40094  -1.39114  -1.19635  -1.18775  -1.09096
 Alpha  occ. eigenvalues --   -1.08207  -1.04982  -1.04112  -0.95990  -0.95087
 Alpha  occ. eigenvalues --   -0.86399  -0.85520  -0.82836  -0.81908  -0.77921
 Alpha  occ. eigenvalues --   -0.76993  -0.72718  -0.71827  -0.71740  -0.70875
 Alpha  occ. eigenvalues --   -0.70741  -0.69864  -0.65291  -0.64979  -0.64405
 Alpha  occ. eigenvalues --   -0.64063  -0.62334  -0.61437  -0.55498  -0.54611
 Alpha  occ. eigenvalues --   -0.53331  -0.53068  -0.52498  -0.52161  -0.49486
 Alpha  occ. eigenvalues --   -0.49444  -0.48507  -0.48470  -0.45575  -0.44572
 Alpha  occ. eigenvalues --   -0.37593  -0.36752  -0.36565  -0.35722
 Alpha virt. eigenvalues --    0.04555   0.05487   0.11083   0.11926   0.16118
 Alpha virt. eigenvalues --    0.17050   0.21194   0.22251   0.27038   0.27679
 Alpha virt. eigenvalues --    0.28546   0.29031   0.30937   0.31818   0.32157

 Mulliken charges:
               1
     1  C   -0.171521
     2  C   -0.224575
     3  C   -0.175149
     4  C    0.157839
     5  C   -0.173299
     6  C   -0.219108
     7  H    0.227720
     8  H    0.244200
     9  H    0.276468
    10  H    0.272424
    11  H    0.220837
    12  N    0.488137
    13  O   -0.462734
    14  O   -0.463807
    15  C   -0.169584
    16  C   -0.218588
    17  C   -0.170897
    18  C    0.158150
    19  C   -0.170085
    20  C   -0.217645
    21  H    0.227943
    22  H    0.224143
    23  H    0.274312
    24  H    0.276305
    25  H    0.228313
    26  N    0.489288
    27  O   -0.468037
    28  O   -0.461052
 Sum of Mulliken charges =  -0.00000

 Dipole moment (field-independent basis, Debye):
    X=              3.1474    Y=             -0.5759    Z=              3.2721  Tot=              4.5765
 Quadrupole moment (field-independent basis, Debye-Ang):
   XX=            -99.7950   YY=           -108.4916   ZZ=            -99.8736
   XY=             26.8013   XZ=              1.3610   YZ=             -2.7701

 Normal termination of Gaussian 16 at Thu May  6 18:05:38 2021.
