 Gaussian 16, Revision A.03,
 Gaussian 16:  EM64L-G16RevA.03 25-Dec-2016

 -------------
 #p 6-31g* mp2
 -------------

 ------------------------------------------------------
 Input file generated by CHIRIPA (05-May-2021 14:51:13)
 ------------------------------------------------------
 Symbolic Z-matrix:
 Charge =  0 Multiplicity = 1

                         Standard orientation:
 ---------------------------------------------------------------------
 Center     Atomic      Atomic             Coordinates (Angstroms)
 Number     Number       Type             X           Y           Z
 ---------------------------------------------------------------------
      1          6           0        3.121587    0.597740    0.310577
      2          6           0        2.345563    1.794871   -0.239559
      3          6           0        0.969939    1.955851    0.408158
      4          1           0        2.532157   -0.316177    0.154784
      5          1           0        3.238105    0.713113    1.397088
      6          1           0        2.231745    1.677959   -1.324913
      7          1           0        2.936994    2.706021   -0.082611
      8          1           0        1.067428    2.097527    1.489373
      9          1           0        0.358172    1.063624    0.240012
     10          1           0        0.432460    2.817554    0.000183
     11          6           0        4.498790    0.423637   -0.327176
     12          6           0        5.274814   -0.773494    0.222959
     13          6           0        6.650438   -0.934474   -0.424758
     14          1           0        4.382272    0.308264   -1.413688
     15          1           0        5.088220    1.337555   -0.171384
     16          1           0        4.683383   -1.684643    0.066012
     17          1           0        5.388632   -0.656582    1.308313
     18          1           0        7.262205   -0.042247   -0.256612
     19          1           0        6.552949   -1.076149   -1.505972
     20          1           0        7.187917   -1.796177   -0.016783
     21          6           0       -3.230577   -0.929523   -0.260141
     22          6           0       -2.030955   -0.981959    0.686507
     23          6           0       -0.879486   -1.823600    0.135551
     24          1           0       -3.581933   -1.952305   -0.453556
     25          1           0       -2.907506   -0.521739   -1.227990
     26          1           0       -2.356489   -1.388232    1.652730
     27          1           0       -1.682533    0.041080    0.877842
     28          1           0       -0.526899   -1.416964   -0.817827
     29          1           0       -1.204684   -2.854397   -0.038537
     30          1           0       -0.032431   -1.847487    0.828217
     31          6           0       -4.389801   -0.091855    0.276741
     32          6           0       -5.589422   -0.039418   -0.669908
     33          6           0       -6.740892    0.802223   -0.118952
     34          1           0       -4.712871   -0.499639    1.244590
     35          1           0       -4.038444    0.930928    0.470156
     36          1           0       -5.937844   -1.062457   -0.861243
     37          1           0       -5.263889    0.366855   -1.636130
     38          1           0       -6.415693    1.833020    0.055137
     39          1           0       -7.093478    0.395586    0.834426
     40          1           0       -7.587947    0.826110   -0.811618
 ---------------------------------------------------------------------

 SCF Done:  E(RHF) =  -470.733091901     A.U. after   11 cycles
 E2 =    -0.1583146965D+01 EUMP2 =    -0.47231623886562D+03

 The electronic state is 1-A.
 Alpha  occ. eigenvalues --  -11.21594 -11.21591 -11.21584 -11.21583 -11.21399
 Alpha  occ. eigenvalues --  -11.21383 -11.21339 -11.21323 -11.21129 -11.21063
 Alpha  occ. eigenvalues --  -11.21057 -11.21034  -1.08439  -1.08403  -1.03572
 Alpha  occ. eigenvalues --   -1.03486  -0.96022  -0.95941  -0.87011  -0.86986
 Alpha  occ. eigenvalues --   -0.79631  -0.79553  -0.78252  -0.78212  -0.65153
 Alpha  occ. eigenvalues --   -0.64974  -0.61167  -0.60733  -0.59403  -0.59288
 Alpha  occ. eigenvalues --   -0.57658  -0.57517  -0.55437  -0.55100  -0.52695
 Alpha  occ. eigenvalues --   -0.52661  -0.52418  -0.52385  -0.49952  -0.49901
 Alpha  occ. eigenvalues --   -0.47989  -0.47828  -0.46703  -0.46521  -0.45839
 Alpha  occ. eigenvalues --   -0.45744  -0.45696  -0.45596  -0.43788  -0.43765
 Alpha virt. eigenvalues --    0.20931   0.23056   0.23602   0.25061   0.26233
 Alpha virt. eigenvalues --    0.26376   0.27153   0.27331   0.28168   0.29196
 Alpha virt. eigenvalues --    0.30554   0.31208   0.31492   0.31697   0.32265

 Mulliken charges:
               1
     1  C   -0.300926
     2  C   -0.298929
     3  C   -0.484941
     4  H    0.152486
     5  H    0.149217
     6  H    0.151440
     7  H    0.151806
     8  H    0.155018
     9  H    0.165890
    10  H    0.159424
    11  C   -0.298180
    12  C   -0.299727
    13  C   -0.475688
    14  H    0.149473
    15  H    0.149575
    16  H    0.152173
    17  H    0.151809
    18  H    0.155111
    19  H    0.155188
    20  H    0.160219
    21  C   -0.297863
    22  C   -0.305943
    23  C   -0.479098
    24  H    0.149544
    25  H    0.149302
    26  H    0.152379
    27  H    0.157949
    28  H    0.154471
    29  H    0.156110
    30  H    0.162389
    31  C   -0.298477
    32  C   -0.299657
    33  C   -0.475717
    34  H    0.149530
    35  H    0.150236
    36  H    0.151859
    37  H    0.151908
    38  H    0.155262
    39  H    0.155176
    40  H    0.160202
 Sum of Mulliken charges =  -0.00000

 Dipole moment (field-independent basis, Debye):
    X=             -0.0189    Y=             -0.0145    Z=              0.0111  Tot=              0.0263
 Quadrupole moment (field-independent basis, Debye-Ang):
   XX=            -86.4181   YY=            -84.1735   ZZ=            -84.2749
   XY=              1.3110   XZ=              0.7172   YZ=             -0.1940

 Normal termination of Gaussian 16 at Thu May  6 03:59:01 2021.
