 Gaussian 16, Revision A.03,
 Gaussian 16:  EM64L-G16RevA.03 25-Dec-2016

 -------------
 #p 6-31g* mp2
 -------------

 ------------------------------------------------------
 Input file generated by CHIRIPA (05-May-2021 14:57:22)
 ------------------------------------------------------
 Symbolic Z-matrix:
 Charge =  0 Multiplicity = 1

                         Standard orientation:
 ---------------------------------------------------------------------
 Center     Atomic      Atomic             Coordinates (Angstroms)
 Number     Number       Type             X           Y           Z
 ---------------------------------------------------------------------
      1          6           0        1.708214   -0.165609   -0.735141
      2          6           0        2.297108    1.100980   -0.661135
      3          6           0        3.654236    1.236130   -0.353750
      4          6           0        4.396105    0.078256   -0.125173
      5          6           0        3.838228   -1.197541   -0.191550
      6          6           0        2.479294   -1.308812   -0.500526
      7          1           0        0.653263   -0.261322   -0.974543
      8          1           0        1.700716    1.990552   -0.842861
      9          1           0        4.135596    2.204449   -0.289965
     10          1           0        4.458447   -2.065917   -0.005352
     11          1           0        2.024620   -2.293744   -0.557320
     12          7           0        5.833792    0.208693    0.201084
     13          8           0        6.465676   -0.826924    0.398202
     14          8           0        6.301543    1.344077    0.253508
     15          6           0       -6.484049    0.723347   -0.414552
     16          6           0       -6.140646   -0.625159   -0.556416
     17          6           0       -4.855447   -1.068621   -0.230607
     18          6           0       -3.934394   -0.132176    0.236321
     19          6           0       -4.246244    1.217964    0.388515
     20          6           0       -5.537420    1.638991    0.056631
     21          1           0       -7.484744    1.059126   -0.670008
     22          1           0       -6.873767   -1.338495   -0.922110
     23          1           0       -4.562868   -2.106776   -0.330860
     24          1           0       -3.493898    1.905500    0.755515
     25          1           0       -5.801310    2.686868    0.167809
     26          7           0       -2.570648   -0.589774    0.584456
     27          8           0       -1.777381    0.255121    0.993745
     28          8           0       -2.320833   -1.784671    0.441445
 ---------------------------------------------------------------------

 SCF Done:  E(RHF) =  -868.339869989     A.U. after   16 cycles
 E2 =    -0.2598330154D+01 EUMP2 =    -0.87093820014390D+03

 The electronic state is 1-A.
 Alpha  occ. eigenvalues --  -20.61906 -20.61897 -20.59940 -20.59933 -15.86927
 Alpha  occ. eigenvalues --  -15.84987 -11.32023 -11.30120 -11.28561 -11.28550
 Alpha  occ. eigenvalues --  -11.28235 -11.27501 -11.27490 -11.26712 -11.26677
 Alpha  occ. eigenvalues --  -11.26224 -11.25611 -11.25538  -1.60981  -1.59021
 Alpha  occ. eigenvalues --   -1.40535  -1.38581  -1.20168  -1.18264  -1.09612
 Alpha  occ. eigenvalues --   -1.07661  -1.05526  -1.03650  -0.96490  -0.94541
 Alpha  occ. eigenvalues --   -0.86936  -0.85034  -0.83326  -0.81402  -0.78410
 Alpha  occ. eigenvalues --   -0.76512  -0.73141  -0.72302  -0.71264  -0.71211
 Alpha  occ. eigenvalues --   -0.70343  -0.69279  -0.65818  -0.65519  -0.63903
 Alpha  occ. eigenvalues --   -0.63636  -0.62875  -0.61020  -0.56029  -0.54049
 Alpha  occ. eigenvalues --   -0.53857  -0.53609  -0.51970  -0.51733  -0.49914
 Alpha  occ. eigenvalues --   -0.49875  -0.47978  -0.47945  -0.45994  -0.44040
 Alpha  occ. eigenvalues --   -0.38130  -0.37118  -0.36145  -0.35270
 Alpha virt. eigenvalues --    0.04070   0.06043   0.10541   0.12412   0.15628
 Alpha virt. eigenvalues --    0.17620   0.20731   0.22627   0.26660   0.27593
 Alpha virt. eigenvalues --    0.28405   0.29440   0.30391   0.31791   0.32156

 Mulliken charges:
               1
     1  C   -0.161760
     2  C   -0.219039
     3  C   -0.172334
     4  C    0.156898
     5  C   -0.172169
     6  C   -0.219615
     7  H    0.234328
     8  H    0.219873
     9  H    0.271400
    10  H    0.272399
    11  H    0.226054
    12  N    0.488361
    13  O   -0.463066
    14  O   -0.463836
    15  C   -0.169668
    16  C   -0.218459
    17  C   -0.170684
    18  C    0.157268
    19  C   -0.171198
    20  C   -0.218442
    21  H    0.228470
    22  H    0.225951
    23  H    0.276159
    24  H    0.275320
    25  H    0.225826
    26  N    0.486621
    27  O   -0.463232
    28  O   -0.461425
 Sum of Mulliken charges =  -0.00000

 Dipole moment (field-independent basis, Debye):
    X=            -10.5027    Y=              1.1013    Z=             -2.3777  Tot=             10.8246
 Quadrupole moment (field-independent basis, Debye-Ang):
   XX=           -112.6962   YY=            -96.0430   ZZ=           -106.4844
   XY=             -7.6607   XZ=             -0.0828   YZ=              1.5603

 Normal termination of Gaussian 16 at Thu May  6 01:45:50 2021.
