 Gaussian 16, Revision A.03,
 Gaussian 16:  EM64L-G16RevA.03 25-Dec-2016

 -------------
 #p 6-31g* mp2
 -------------

 ------------------------------------------------------
 Input file generated by CHIRIPA (05-May-2021 14:53:18)
 ------------------------------------------------------
 Symbolic Z-matrix:
 Charge =  0 Multiplicity = 1

                         Standard orientation:
 ---------------------------------------------------------------------
 Center     Atomic      Atomic             Coordinates (Angstroms)
 Number     Number       Type             X           Y           Z
 ---------------------------------------------------------------------
      1          6           0        2.939147    0.900150    0.252583
      2          6           0        3.175356    2.410756    0.268662
      3          6           0        1.926592    3.200197    0.662575
      4          1           0        2.122919    0.670488   -0.445967
      5          1           0        2.599412    0.578576    1.246850
      6          1           0        3.515871    2.729172   -0.724956
      7          1           0        3.991245    2.636830    0.967111
      8          1           0        1.587533    2.911006    1.662579
      9          1           0        1.109459    3.003873   -0.039103
     10          1           0        2.117879    4.277807    0.667643
     11          6           0        4.178342    0.097345   -0.139371
     12          6           0        3.942133   -1.413262   -0.155450
     13          6           0        5.190896   -2.202703   -0.549363
     14          1           0        4.518076    0.418918   -1.133638
     15          1           0        4.994570    0.327006    0.559179
     16          1           0        3.126244   -1.639335   -0.853899
     17          1           0        3.601617   -1.731678    0.838168
     18          1           0        6.008030   -2.006379    0.152314
     19          1           0        5.529955   -1.913512   -1.549367
     20          1           0        4.999609   -3.280313   -0.554431
     21          6           0       -0.478100   -1.377450    0.256080
     22          6           0       -0.714000   -0.449190   -0.763334
     23          6           0       -1.985606    0.104621   -0.939004
     24          6           0       -3.002834   -0.294149   -0.073255
     25          6           0       -2.799212   -1.216755    0.951745
     26          6           0       -1.519622   -1.757599    1.108863
     27          1           0        0.512815   -1.802627    0.385340
     28          1           0        0.092968   -0.152110   -1.427106
     29          1           0       -2.195947    0.825226   -1.719965
     30          1           0       -3.623582   -1.493392    1.597735
     31          1           0       -1.339324   -2.478291    1.901416
     32          7           0       -4.353252    0.285282   -0.249409
     33          8           0       -5.232592   -0.082504    0.526562
     34          8           0       -4.506800    1.096253   -1.160115
 ---------------------------------------------------------------------

 SCF Done:  E(RHF) =  -669.535237280     A.U. after   15 cycles
 E2 =    -0.2092536576D+01 EUMP2 =    -0.67162777385654D+03

 The electronic state is 1-A.
 Alpha  occ. eigenvalues --  -20.60716 -20.60711 -15.85770 -11.31123 -11.27703
 Alpha  occ. eigenvalues --  -11.27699 -11.27394 -11.26698 -11.26687 -11.22782
 Alpha  occ. eigenvalues --  -11.22393 -11.22325 -11.22295 -11.21973 -11.21615
 Alpha  occ. eigenvalues --   -1.59792  -1.39346  -1.19297  -1.09386  -1.08683
 Alpha  occ. eigenvalues --   -1.04706  -1.04391  -0.96808  -0.95523  -0.87823
 Alpha  occ. eigenvalues --   -0.86106  -0.82362  -0.80486  -0.79230  -0.77414
 Alpha  occ. eigenvalues --   -0.71989  -0.71115  -0.70381  -0.66061  -0.64946
 Alpha  occ. eigenvalues --   -0.64698  -0.62082  -0.61772  -0.60194  -0.58428
 Alpha  occ. eigenvalues --   -0.56089  -0.55181  -0.53482  -0.53263  -0.53007
 Alpha  occ. eigenvalues --   -0.52797  -0.50747  -0.48804  -0.48744  -0.48724
 Alpha  occ. eigenvalues --   -0.47530  -0.46716  -0.46644  -0.44755  -0.44661
 Alpha  occ. eigenvalues --   -0.37243  -0.36300
 Alpha virt. eigenvalues --    0.05116   0.11250   0.16557   0.19122   0.22706
 Alpha virt. eigenvalues --    0.23179   0.24715   0.25338   0.27142   0.27947
 Alpha virt. eigenvalues --    0.29689   0.30506   0.30984   0.31262   0.31821

 Mulliken charges:
               1
     1  C   -0.302172
     2  C   -0.300628
     3  C   -0.475406
     4  H    0.143320
     5  H    0.150467
     6  H    0.152963
     7  H    0.154646
     8  H    0.157386
     9  H    0.153901
    10  H    0.163549
    11  C   -0.298059
    12  C   -0.303055
    13  C   -0.475651
    14  H    0.152010
    15  H    0.153927
    16  H    0.144843
    17  H    0.149922
    18  H    0.158719
    19  H    0.158117
    20  H    0.161553
    21  C   -0.172997
    22  C   -0.219451
    23  C   -0.171853
    24  C    0.158309
    25  C   -0.170573
    26  C   -0.219727
    27  H    0.231795
    28  H    0.223640
    29  H    0.275197
    30  H    0.275328
    31  H    0.223198
    32  N    0.488086
    33  O   -0.460644
    34  O   -0.460660
 Sum of Mulliken charges =  -0.00000

 Dipole moment (field-independent basis, Debye):
    X=              4.9776    Y=             -1.9636    Z=              0.6783  Tot=              5.3937
 Quadrupole moment (field-independent basis, Debye-Ang):
   XX=           -123.1091   YY=            -92.8302   ZZ=            -91.2813
   XY=              6.4265   XZ=             -3.1776   YZ=             -2.6461

 Normal termination of Gaussian 16 at Wed May  5 20:27:01 2021.
