 Gaussian 16, Revision A.03,
 Gaussian 16:  EM64L-G16RevA.03 25-Dec-2016

 -------------
 #p 6-31g* mp2
 -------------

 ------------------------------------------------------
 Input file generated by CHIRIPA (05-May-2021 14:51:10)
 ------------------------------------------------------
 Symbolic Z-matrix:
 Charge =  0 Multiplicity = 1

                         Standard orientation:
 ---------------------------------------------------------------------
 Center     Atomic      Atomic             Coordinates (Angstroms)
 Number     Number       Type             X           Y           Z
 ---------------------------------------------------------------------
      1          6           0        2.896120    1.377568    0.253622
      2          6           0        1.514840    2.021575    0.129905
      3          6           0        1.424225    3.368637    0.847545
      4          1           0        3.137985    1.245098    1.317059
      5          1           0        3.650781    2.063512   -0.155477
      6          1           0        0.762851    1.334039    0.537855
      7          1           0        1.276154    2.152351   -0.933364
      8          1           0        2.152781    4.074387    0.435569
      9          1           0        1.636563    3.251425    1.915147
     10          1           0        0.428390    3.811270    0.746300
     11          6           0        3.002396    0.030315   -0.458659
     12          6           0        4.383675   -0.613692   -0.334942
     13          6           0        4.474290   -1.960754   -1.052582
     14          1           0        2.247734   -0.655629   -0.049560
     15          1           0        2.760530    0.162785   -1.522096
     16          1           0        4.622362   -0.744468    0.728327
     17          1           0        5.135664    0.073844   -0.742892
     18          1           0        4.261953   -1.843542   -2.120184
     19          1           0        3.745734   -2.666504   -0.640606
     20          1           0        5.470125   -2.403386   -0.951338
     21          6           0       -3.222762   -0.104142   -0.283316
     22          6           0       -4.749720   -0.024473   -0.277466
     23          6           0       -5.281770    1.180763   -1.053434
     24          1           0       -2.812069    0.820198    0.145485
     25          1           0       -2.868960   -0.150729   -1.322570
     26          1           0       -5.100609    0.020554    0.761508
     27          1           0       -5.156830   -0.949191   -0.706155
     28          1           0       -4.959975    1.138356   -2.099019
     29          1           0       -4.903435    2.113611   -0.623016
     30          1           0       -6.375461    1.218275   -1.036325
     31          6           0       -2.675754   -1.303740    0.488354
     32          6           0       -1.148795   -1.383411    0.482503
     33          6           0       -0.616746   -2.588646    1.258470
     34          1           0       -3.029556   -1.257155    1.527607
     35          1           0       -3.086446   -2.228082    0.059552
     36          1           0       -0.741686   -0.458693    0.911192
     37          1           0       -0.797907   -1.428437   -0.556471
     38          1           0       -0.995080   -3.521495    0.828054
     39          1           0       -0.938540   -2.546240    2.304056
     40          1           0        0.476946   -2.626159    1.241361
 ---------------------------------------------------------------------

 SCF Done:  E(RHF) =  -470.733208601     A.U. after   11 cycles
 E2 =    -0.1583504526D+01 EUMP2 =    -0.47231671312646D+03

 The electronic state is 1-A.
 Alpha  occ. eigenvalues --  -11.21624 -11.21610 -11.21591 -11.21545 -11.21423
 Alpha  occ. eigenvalues --  -11.21382 -11.21362 -11.21322 -11.21137 -11.21077
 Alpha  occ. eigenvalues --  -11.21070 -11.21061  -1.08463  -1.08401  -1.03563
 Alpha  occ. eigenvalues --   -1.03511  -0.96010  -0.95963  -0.87028  -0.86977
 Alpha  occ. eigenvalues --   -0.79680  -0.79533  -0.78359  -0.78120  -0.65145
 Alpha  occ. eigenvalues --   -0.64996  -0.61041  -0.60838  -0.59391  -0.59323
 Alpha  occ. eigenvalues --   -0.57650  -0.57548  -0.55293  -0.55253  -0.52714
 Alpha  occ. eigenvalues --   -0.52655  -0.52461  -0.52365  -0.49989  -0.49881
 Alpha  occ. eigenvalues --   -0.48117  -0.47799  -0.46848  -0.46465  -0.46037
 Alpha  occ. eigenvalues --   -0.45756  -0.45705  -0.45292  -0.43811  -0.43763
 Alpha virt. eigenvalues --    0.20461   0.22887   0.23614   0.24139   0.25745
 Alpha virt. eigenvalues --    0.26545   0.26823   0.27525   0.27946   0.29441
 Alpha virt. eigenvalues --    0.30183   0.31490   0.31695   0.31876   0.32690

 Mulliken charges:
               1
     1  C   -0.297590
     2  C   -0.307538
     3  C   -0.475233
     4  H    0.149143
     5  H    0.149447
     6  H    0.159633
     7  H    0.151978
     8  H    0.155224
     9  H    0.154728
    10  H    0.159758
    11  C   -0.303193
    12  C   -0.299581
    13  C   -0.475693
    14  H    0.154795
    15  H    0.149516
    16  H    0.151797
    17  H    0.151996
    18  H    0.155165
    19  H    0.154874
    20  H    0.160300
    21  C   -0.298421
    22  C   -0.299675
    23  C   -0.475695
    24  H    0.149680
    25  H    0.149820
    26  H    0.151894
    27  H    0.151994
    28  H    0.155227
    29  H    0.155192
    30  H    0.160276
    31  C   -0.297977
    32  C   -0.306626
    33  C   -0.477553
    34  H    0.149317
    35  H    0.149793
    36  H    0.158224
    37  H    0.153371
    38  H    0.155843
    39  H    0.155300
    40  H    0.160492
 Sum of Mulliken charges =  -0.00000

 Dipole moment (field-independent basis, Debye):
    X=             -0.0248    Y=             -0.0118    Z=             -0.0108  Tot=              0.0295
 Quadrupole moment (field-independent basis, Debye-Ang):
   XX=            -85.0989   YY=            -85.9590   ZZ=            -83.8009
   XY=              0.8237   XZ=             -0.4100   YZ=              0.0400

 Normal termination of Gaussian 16 at Thu May  6 00:36:28 2021.
