 Gaussian 16, Revision A.03,
 Gaussian 16:  EM64L-G16RevA.03 25-Dec-2016

 -------------
 #p 6-31g* mp2
 -------------

 ------------------------------------------------------
 Input file generated by CHIRIPA (05-May-2021 14:51:12)
 ------------------------------------------------------
 Symbolic Z-matrix:
 Charge =  0 Multiplicity = 1

                         Standard orientation:
 ---------------------------------------------------------------------
 Center     Atomic      Atomic             Coordinates (Angstroms)
 Number     Number       Type             X           Y           Z
 ---------------------------------------------------------------------
      1          6           0       -2.745353   -0.512239    0.207776
      2          6           0       -2.889300   -1.765725   -0.655959
      3          6           0       -2.032731   -2.929513   -0.156278
      4          1           0       -1.689586   -0.209238    0.229979
      5          1           0       -3.022738   -0.754882    1.242946
      6          1           0       -2.613052   -1.520446   -1.689468
      7          1           0       -3.944875   -2.065666   -0.676264
      8          1           0       -2.312514   -3.202479    0.866372
      9          1           0       -0.973123   -2.654161   -0.152588
     10          1           0       -2.150889   -3.815256   -0.788225
     11          6           0       -3.595570    0.659866   -0.279080
     12          6           0       -3.451622    1.913352    0.584654
     13          6           0       -4.308191    3.077140    0.084973
     14          1           0       -3.318184    0.902509   -1.314250
     15          1           0       -4.651336    0.356865   -0.301284
     16          1           0       -2.396047    2.213293    0.604960
     17          1           0       -3.727871    1.668073    1.618163
     18          1           0       -5.367799    2.801788    0.081284
     19          1           0       -4.028408    3.350106   -0.937676
     20          1           0       -4.190033    3.962883    0.716920
     21          6           0        2.967302   -0.671949    0.465061
     22          6           0        2.223746   -1.755205   -0.317030
     23          6           0        1.823944   -2.945294    0.555692
     24          1           0        3.864435   -1.110089    0.923460
     25          1           0        2.331852   -0.324689    1.291505
     26          1           0        2.859862   -2.099339   -1.142587
     27          1           0        1.328380   -1.314392   -0.773778
     28          1           0        1.168926   -2.622123    1.371236
     29          1           0        2.709109   -3.411531    1.000332
     30          1           0        1.293705   -3.707688   -0.023500
     31          6           0        3.373621    0.524322   -0.393757
     32          6           0        4.117177    1.607578    0.388334
     33          6           0        4.516978    2.797667   -0.484387
     34          1           0        4.009071    0.177062   -1.220201
     35          1           0        2.476487    0.962462   -0.852155
     36          1           0        5.012542    1.166765    0.845083
     37          1           0        3.481060    1.951712    1.213890
     38          1           0        3.631813    3.263905   -0.929028
     39          1           0        5.171997    2.474496   -1.299932
     40          1           0        5.047217    3.560061    0.094804
 ---------------------------------------------------------------------

 SCF Done:  E(RHF) =  -470.732897375     A.U. after   11 cycles
 E2 =    -0.1583104664D+01 EUMP2 =    -0.47231600203935D+03

 The electronic state is 1-A.
 Alpha  occ. eigenvalues --  -11.21660 -11.21629 -11.21627 -11.21578 -11.21443
 Alpha  occ. eigenvalues --  -11.21425 -11.21383 -11.21366 -11.21095 -11.21090
 Alpha  occ. eigenvalues --  -11.21053 -11.20958  -1.08474  -1.08434  -1.03593
 Alpha  occ. eigenvalues --   -1.03498  -0.96066  -0.95919  -0.87094  -0.86920
 Alpha  occ. eigenvalues --   -0.79652  -0.79562  -0.78282  -0.78255  -0.65182
 Alpha  occ. eigenvalues --   -0.65006  -0.61162  -0.60775  -0.59388  -0.59339
 Alpha  occ. eigenvalues --   -0.57686  -0.57532  -0.55486  -0.55068  -0.52793
 Alpha  occ. eigenvalues --   -0.52631  -0.52444  -0.52303  -0.50054  -0.49770
 Alpha  occ. eigenvalues --   -0.47943  -0.47877  -0.46663  -0.46607  -0.45873
 Alpha  occ. eigenvalues --   -0.45765  -0.45755  -0.45674  -0.43833  -0.43760
 Alpha virt. eigenvalues --    0.20543   0.23278   0.23500   0.25053   0.26048
 Alpha virt. eigenvalues --    0.26869   0.27063   0.27433   0.28219   0.29217
 Alpha virt. eigenvalues --    0.30703   0.31370   0.31439   0.31771   0.32125

 Mulliken charges:
               1
     1  C   -0.298777
     2  C   -0.299184
     3  C   -0.485299
     4  H    0.148691
     5  H    0.149600
     6  H    0.151429
     7  H    0.151705
     8  H    0.154558
     9  H    0.168638
    10  H    0.159286
    11  C   -0.298241
    12  C   -0.299580
    13  C   -0.475714
    14  H    0.149496
    15  H    0.149930
    16  H    0.151460
    17  H    0.151983
    18  H    0.155308
    19  H    0.155201
    20  H    0.160278
    21  C   -0.298191
    22  C   -0.303437
    23  C   -0.480249
    24  H    0.150092
    25  H    0.149800
    26  H    0.152581
    27  H    0.152619
    28  H    0.156650
    29  H    0.156653
    30  H    0.162719
    31  C   -0.298222
    32  C   -0.299720
    33  C   -0.475713
    34  H    0.149683
    35  H    0.149119
    36  H    0.152101
    37  H    0.152025
    38  H    0.155085
    39  H    0.155241
    40  H    0.160397
 Sum of Mulliken charges =  -0.00000

 Dipole moment (field-independent basis, Debye):
    X=              0.0332    Y=             -0.0175    Z=              0.0113  Tot=              0.0392
 Quadrupole moment (field-independent basis, Debye-Ang):
   XX=            -83.8204   YY=            -86.1680   ZZ=            -84.7111
   XY=             -0.0516   XZ=             -0.6246   YZ=              0.5737

 Normal termination of Gaussian 16 at Thu May  6 02:19:52 2021.
