 Gaussian 16, Revision A.03,
 Gaussian 16:  EM64L-G16RevA.03 25-Dec-2016

 -------------
 #p 6-31g* mp2
 -------------

 ------------------------------------------------------
 Input file generated by CHIRIPA (05-May-2021 14:53:13)
 ------------------------------------------------------
 Symbolic Z-matrix:
 Charge =  0 Multiplicity = 1

                         Standard orientation:
 ---------------------------------------------------------------------
 Center     Atomic      Atomic             Coordinates (Angstroms)
 Number     Number       Type             X           Y           Z
 ---------------------------------------------------------------------
      1          6           0       -3.720053   -0.583215   -0.003164
      2          6           0       -3.095282   -1.603139    0.949412
      3          6           0       -3.469805   -3.044058    0.601159
      4          1           0       -4.812851   -0.694421    0.016117
      5          1           0       -3.401080   -0.807915   -1.030374
      6          1           0       -3.414229   -1.375748    1.974684
      7          1           0       -2.003855   -1.489363    0.928005
      8          1           0       -3.136957   -3.294661   -0.411269
      9          1           0       -4.555345   -3.180401    0.641357
     10          1           0       -3.012477   -3.756559    1.294739
     11          6           0       -3.354878    0.861778    0.332050
     12          6           0       -3.979649    1.881703   -0.620525
     13          6           0       -3.605126    3.322621   -0.272273
     14          1           0       -3.673851    1.086478    1.359261
     15          1           0       -2.262080    0.972985    0.312769
     16          1           0       -5.071076    1.767927   -0.599118
     17          1           0       -3.660702    1.654312   -1.645797
     18          1           0       -2.519586    3.458964   -0.312470
     19          1           0       -3.937974    3.573224    0.740156
     20          1           0       -4.062454    4.035122   -0.965853
     21          6           0        0.970405   -1.701883   -0.910993
     22          6           0        2.282767   -2.154574   -0.739830
     23          6           0        3.284449   -1.280742   -0.306702
     24          6           0        2.937009    0.045199   -0.052820
     25          6           0        1.638604    0.526327   -0.213913
     26          6           0        0.653070   -0.365234   -0.647952
     27          1           0        0.198546   -2.387583   -1.247811
     28          1           0        2.532105   -3.192097   -0.943354
     29          1           0        4.308497   -1.604639   -0.165863
     30          1           0        1.420530    1.566230   -0.003047
     31          1           0       -0.365283   -0.010885   -0.780006
     32          7           0        3.988897    0.979669    0.406195
     33          8           0        3.657070    2.143056    0.623125
     34          8           0        5.125277    0.531026    0.540351
 ---------------------------------------------------------------------

 SCF Done:  E(RHF) =  -669.535371712     A.U. after   15 cycles
 E2 =    -0.2092315721D+01 EUMP2 =    -0.67162768743352D+03

 The electronic state is 1-A.
 Alpha  occ. eigenvalues --  -20.60777 -20.60772 -15.85831 -11.31213 -11.27785
 Alpha  occ. eigenvalues --  -11.27782 -11.27530 -11.26794 -11.26775 -11.22494
 Alpha  occ. eigenvalues --  -11.22386 -11.22348 -11.22301 -11.21965 -11.21670
 Alpha  occ. eigenvalues --   -1.59852  -1.39405  -1.19388  -1.09348  -1.08777
 Alpha  occ. eigenvalues --   -1.04793  -1.04354  -0.96809  -0.95610  -0.87815
 Alpha  occ. eigenvalues --   -0.86193  -0.82444  -0.80409  -0.79155  -0.77488
 Alpha  occ. eigenvalues --   -0.72049  -0.71175  -0.70493  -0.66142  -0.65040
 Alpha  occ. eigenvalues --   -0.64698  -0.62128  -0.61764  -0.60165  -0.58403
 Alpha  occ. eigenvalues --   -0.56141  -0.55268  -0.53462  -0.53227  -0.53116
 Alpha  occ. eigenvalues --   -0.52869  -0.50762  -0.48812  -0.48803  -0.48716
 Alpha  occ. eigenvalues --   -0.47466  -0.46655  -0.46622  -0.44807  -0.44631
 Alpha  occ. eigenvalues --   -0.37355  -0.36384
 Alpha virt. eigenvalues --    0.05040   0.11113   0.16497   0.18391   0.22573
 Alpha virt. eigenvalues --    0.23402   0.25228   0.26088   0.26785   0.28339
 Alpha virt. eigenvalues --    0.29377   0.30584   0.31122   0.31593   0.32386

 Mulliken charges:
               1
     1  C   -0.300003
     2  C   -0.304727
     3  C   -0.475810
     4  H    0.154894
     5  H    0.143844
     6  H    0.157201
     7  H    0.150445
     8  H    0.149381
     9  H    0.159242
    10  H    0.163072
    11  C   -0.301953
    12  C   -0.300701
    13  C   -0.475513
    14  H    0.155789
    15  H    0.142060
    16  H    0.155377
    17  H    0.150329
    18  H    0.153552
    19  H    0.158095
    20  H    0.163543
    21  C   -0.172697
    22  C   -0.218589
    23  C   -0.170780
    24  C    0.158623
    25  C   -0.173112
    26  C   -0.223972
    27  H    0.226997
    28  H    0.223691
    29  H    0.275799
    30  H    0.275452
    31  H    0.232961
    32  N    0.488126
    33  O   -0.460232
    34  O   -0.460385
 Sum of Mulliken charges =  -0.00000

 Dipole moment (field-independent basis, Debye):
    X=             -3.8757    Y=             -3.2530    Z=             -1.5357  Tot=              5.2879
 Quadrupole moment (field-independent basis, Debye-Ang):
   XX=           -112.9715   YY=            -93.4699   ZZ=            -95.0228
   XY=            -13.2609   XZ=             -5.5871   YZ=              0.1195

 Normal termination of Gaussian 16 at Wed May  5 15:32:43 2021.
