 Gaussian 16, Revision A.03,
 Gaussian 16:  EM64L-G16RevA.03 25-Dec-2016

 -------------
 #p 6-31g* mp2
 -------------

 ------------------------------------------------------
 Input file generated by CHIRIPA (05-May-2021 14:57:23)
 ------------------------------------------------------
 Symbolic Z-matrix:
 Charge =  0 Multiplicity = 1

                         Standard orientation:
 ---------------------------------------------------------------------
 Center     Atomic      Atomic             Coordinates (Angstroms)
 Number     Number       Type             X           Y           Z
 ---------------------------------------------------------------------
      1          6           0        0.917873    1.883874    1.909916
      2          6           0        0.779446    0.503167    2.086005
      3          6           0        1.415071   -0.390446    1.218834
      4          6           0        2.184937    0.133580    0.181534
      5          6           0        2.342107    1.503971   -0.019996
      6          6           0        1.697387    2.378997    0.859330
      7          1           0        0.420571    2.570834    2.588276
      8          1           0        0.174692    0.115807    2.901032
      9          1           0        1.324893   -1.463968    1.332136
     10          1           0        2.951566    1.860170   -0.841642
     11          1           0        1.806671    3.450787    0.720164
     12          7           0        2.862659   -0.802609   -0.742935
     13          8           0        3.535332   -0.315663   -1.649043
     14          8           0        2.708352   -2.005614   -0.543922
     15          6           0       -2.407799    1.893244   -1.557301
     16          6           0       -2.903273    1.735867   -0.258740
     17          6           0       -2.723729    0.531779    0.428634
     18          6           0       -2.040897   -0.498738   -0.215623
     19          6           0       -1.535483   -0.372596   -1.508657
     20          6           0       -1.726686    0.840366   -2.177022
     21          1           0       -2.551801    2.832055   -2.083886
     22          1           0       -3.432625    2.551836    0.225024
     23          1           0       -3.096931    0.382892    1.434601
     24          1           0       -1.011913   -1.204016   -1.964765
     25          1           0       -1.340806    0.959751   -3.185431
     26          7           0       -1.844650   -1.778150    0.502007
     27          8           0       -1.239600   -2.670820   -0.087646
     28          8           0       -2.299598   -1.864055    1.640549
 ---------------------------------------------------------------------

 SCF Done:  E(RHF) =  -868.337884997     A.U. after   16 cycles
 E2 =    -0.2604427546D+01 EUMP2 =    -0.87094231254282D+03

 The electronic state is 1-A.
 Alpha  occ. eigenvalues --  -20.61246 -20.61166 -20.60631 -20.60562 -15.86204
 Alpha  occ. eigenvalues --  -15.85646 -11.31434 -11.31052 -11.28063 -11.27936
 Alpha  occ. eigenvalues --  -11.27752 -11.27692 -11.27481 -11.27420 -11.27064
 Alpha  occ. eigenvalues --  -11.26958 -11.26735 -11.26558  -1.60278  -1.59684
 Alpha  occ. eigenvalues --   -1.39828  -1.39226  -1.19622  -1.19233  -1.09046
 Alpha  occ. eigenvalues --   -1.08638  -1.05008  -1.04640  -0.95899  -0.95460
 Alpha  occ. eigenvalues --   -0.86422  -0.86028  -0.82734  -0.82278  -0.77800
 Alpha  occ. eigenvalues --   -0.77306  -0.72429  -0.71880  -0.71634  -0.71016
 Alpha  occ. eigenvalues --   -0.70743  -0.70323  -0.65282  -0.65026  -0.64883
 Alpha  occ. eigenvalues --   -0.64620  -0.62360  -0.61936  -0.55534  -0.55165
 Alpha  occ. eigenvalues --   -0.53796  -0.53106  -0.52711  -0.52519  -0.49217
 Alpha  occ. eigenvalues --   -0.49186  -0.48640  -0.48603  -0.45254  -0.44611
 Alpha  occ. eigenvalues --   -0.37826  -0.37547  -0.36340  -0.35948
 Alpha virt. eigenvalues --    0.04498   0.05351   0.10454   0.11945   0.16154
 Alpha virt. eigenvalues --    0.16742   0.20991   0.21718   0.26876   0.27406
 Alpha virt. eigenvalues --    0.28282   0.28472   0.30626   0.31141   0.32107

 Mulliken charges:
               1
     1  C   -0.169588
     2  C   -0.223575
     3  C   -0.183146
     4  C    0.158500
     5  C   -0.172441
     6  C   -0.218177
     7  H    0.222331
     8  H    0.233071
     9  H    0.290414
    10  H    0.272941
    11  H    0.219918
    12  N    0.485556
    13  O   -0.465662
    14  O   -0.451896
    15  C   -0.170521
    16  C   -0.219305
    17  C   -0.171754
    18  C    0.162108
    19  C   -0.172811
    20  C   -0.218220
    21  H    0.225174
    22  H    0.220771
    23  H    0.270953
    24  H    0.282254
    25  H    0.226973
    26  N    0.484941
    27  O   -0.451595
    28  O   -0.467212
 Sum of Mulliken charges =  -0.00000

 Dipole moment (field-independent basis, Debye):
    X=             -3.0765    Y=              7.5638    Z=              0.6393  Tot=              8.1906
 Quadrupole moment (field-independent basis, Debye-Ang):
   XX=           -112.4632   YY=           -105.4556   ZZ=            -98.7345
   XY=             -1.6801   XZ=              9.1850   YZ=              0.7457

 Normal termination of Gaussian 16 at Wed May  5 22:39:20 2021.
