 Gaussian 16, Revision A.03,
 Gaussian 16:  EM64L-G16RevA.03 25-Dec-2016

 -------------
 #p 6-31g* mp2
 -------------

 ------------------------------------------------------
 Input file generated by CHIRIPA (05-May-2021 14:57:24)
 ------------------------------------------------------
 Symbolic Z-matrix:
 Charge =  0 Multiplicity = 1

                         Standard orientation:
 ---------------------------------------------------------------------
 Center     Atomic      Atomic             Coordinates (Angstroms)
 Number     Number       Type             X           Y           Z
 ---------------------------------------------------------------------
      1          6           0       -0.573599    0.409645   -0.593218
      2          6           0       -0.959951   -0.767287    0.056463
      3          6           0       -2.310423   -1.031500    0.303374
      4          6           0       -3.252242   -0.092712   -0.114888
      5          6           0       -2.898786    1.088995   -0.764449
      6          6           0       -1.542541    1.332402   -1.000882
      7          1           0        0.477722    0.606811   -0.780955
      8          1           0       -0.209637   -1.485709    0.374179
      9          1           0       -2.637298   -1.934611    0.804334
     10          1           0       -3.669700    1.786225   -1.069376
     11          1           0       -1.245407    2.247264   -1.505643
     12          7           0       -4.684982   -0.361409    0.140959
     13          8           0       -5.495338    0.481645   -0.237482
     14          8           0       -4.970478   -1.409982    0.715089
     15          6           0        2.396799    2.381451    0.891477
     16          6           0        2.229182    1.304106    1.767692
     17          6           0        2.568968    0.007150    1.371461
     18          6           0        3.075981   -0.177121    0.086053
     19          6           0        3.254572    0.875821   -0.809886
     20          6           0        2.908058    2.164254   -0.392252
     21          1           0        2.130232    3.385647    1.207592
     22          1           0        1.832350    1.469813    2.765244
     23          1           0        2.449430   -0.844934    2.029550
     24          1           0        3.652460    0.679325   -1.798062
     25          1           0        3.039305    2.999043   -1.074854
     26          7           0        3.439259   -1.545639   -0.344748
     27          8           0        3.883992   -1.681547   -1.482456
     28          8           0        3.272386   -2.456461    0.463455
 ---------------------------------------------------------------------

 SCF Done:  E(RHF) =  -868.336873557     A.U. after   16 cycles
 E2 =    -0.2604251724D+01 EUMP2 =    -0.87094112528088D+03

 The electronic state is 1-A.
 Alpha  occ. eigenvalues --  -20.62020 -20.62004 -20.60732 -20.60723 -15.87065
 Alpha  occ. eigenvalues --  -15.85786 -11.32614 -11.31106 -11.29149 -11.29125
 Alpha  occ. eigenvalues --  -11.28829 -11.28185 -11.28101 -11.27735 -11.27676
 Alpha  occ. eigenvalues --  -11.27246 -11.26701 -11.26592  -1.61088  -1.59809
 Alpha  occ. eigenvalues --   -1.40632  -1.39364  -1.20831  -1.19283  -1.10126
 Alpha  occ. eigenvalues --   -1.08667  -1.06185  -1.04693  -0.96930  -0.95513
 Alpha  occ. eigenvalues --   -0.87538  -0.86086  -0.83724  -0.82360  -0.78777
 Alpha  occ. eigenvalues --   -0.77423  -0.73254  -0.72471  -0.72001  -0.71787
 Alpha  occ. eigenvalues --   -0.71136  -0.70412  -0.66383  -0.66094  -0.64927
 Alpha  occ. eigenvalues --   -0.64722  -0.63473  -0.62051  -0.56582  -0.56063
 Alpha  occ. eigenvalues --   -0.54192  -0.53595  -0.52936  -0.52771  -0.50036
 Alpha  occ. eigenvalues --   -0.50015  -0.48762  -0.48756  -0.45983  -0.44780
 Alpha  occ. eigenvalues --   -0.38852  -0.38038  -0.36986  -0.36299
 Alpha virt. eigenvalues --    0.03707   0.05129   0.09751   0.11330   0.15218
 Alpha virt. eigenvalues --    0.16622   0.20177   0.21730   0.25874   0.26760
 Alpha virt. eigenvalues --    0.27610   0.28704   0.30071   0.30839   0.32074

 Mulliken charges:
               1
     1  C   -0.171030
     2  C   -0.228231
     3  C   -0.170854
     4  C    0.156838
     5  C   -0.170804
     6  C   -0.225723
     7  H    0.237348
     8  H    0.226505
     9  H    0.276375
    10  H    0.274067
    11  H    0.218197
    12  N    0.488044
    13  O   -0.461720
    14  O   -0.460198
    15  C   -0.171874
    16  C   -0.212546
    17  C   -0.176845
    18  C    0.154761
    19  C   -0.184734
    20  C   -0.222685
    21  H    0.231818
    22  H    0.231199
    23  H    0.279067
    24  H    0.280402
    25  H    0.228625
    26  N    0.487879
    27  O   -0.454904
    28  O   -0.458978
 Sum of Mulliken charges =  -0.00000

 Dipole moment (field-independent basis, Debye):
    X=              4.1745    Y=              5.8143    Z=              0.7717  Tot=              7.1992
 Quadrupole moment (field-independent basis, Debye-Ang):
   XX=           -145.8177   YY=           -102.6097   ZZ=            -99.8627
   XY=             11.3287   XZ=              6.1955   YZ=             -3.5769

 Normal termination of Gaussian 16 at Thu May  6 21:14:39 2021.
