 Gaussian 16, Revision A.03,
 Gaussian 16:  EM64L-G16RevA.03 25-Dec-2016

 -------------
 #p 6-31g* mp2
 -------------

 ------------------------------------------------------
 Input file generated by CHIRIPA (05-May-2021 14:57:23)
 ------------------------------------------------------
 Symbolic Z-matrix:
 Charge =  0 Multiplicity = 1

                         Standard orientation:
 ---------------------------------------------------------------------
 Center     Atomic      Atomic             Coordinates (Angstroms)
 Number     Number       Type             X           Y           Z
 ---------------------------------------------------------------------
      1          6           0       -1.935536    0.223713    1.836498
      2          6           0       -2.657179    1.307352    1.325149
      3          6           0       -3.672775    1.104357    0.386050
      4          6           0       -3.941460   -0.201429   -0.021408
      5          6           0       -3.240167   -1.301635    0.469537
      6          6           0       -2.228816   -1.075032    1.407816
      7          1           0       -1.148246    0.390574    2.565694
      8          1           0       -2.431589    2.317067    1.656252
      9          1           0       -4.247064    1.925142   -0.026166
     10          1           0       -3.487967   -2.296656    0.120327
     11          1           0       -1.670016   -1.918501    1.803223
     12          7           0       -5.014379   -0.428827   -1.015156
     13          8           0       -5.231740   -1.588946   -1.357959
     14          8           0       -5.617656    0.557364   -1.432435
     15          6           0        1.732863    1.631656    0.146914
     16          6           0        2.009755    0.627595    1.080568
     17          6           0        3.132685   -0.191553    0.930325
     18          6           0        3.961054    0.022059   -0.170341
     19          6           0        3.711967    1.014003   -1.117597
     20          6           0        2.583352    1.821322   -0.947260
     21          1           0        0.858337    2.263397    0.271431
     22          1           0        1.351011    0.478019    1.931290
     23          1           0        3.370683   -0.976303    1.638099
     24          1           0        4.387148    1.139089   -1.955392
     25          1           0        2.370792    2.600310   -1.673924
     26          7           0        5.152858   -0.838876   -0.340033
     27          8           0        5.867021   -0.630406   -1.318372
     28          8           0        5.350263   -1.705844    0.508515
 ---------------------------------------------------------------------

 SCF Done:  E(RHF) =  -868.336496732     A.U. after   16 cycles
 E2 =    -0.2600289592D+01 EUMP2 =    -0.87093678632361D+03

 The electronic state is 1-A.
 Alpha  occ. eigenvalues --  -20.61365 -20.61355 -20.61200 -20.61189 -15.86421
 Alpha  occ. eigenvalues --  -15.86257 -11.31963 -11.31718 -11.28566 -11.28509
 Alpha  occ. eigenvalues --  -11.28448 -11.28361 -11.28276 -11.28109 -11.27693
 Alpha  occ. eigenvalues --  -11.27599 -11.27465 -11.27297  -1.60434  -1.60271
 Alpha  occ. eigenvalues --   -1.39982  -1.39822  -1.20165  -1.19916  -1.09559
 Alpha  occ. eigenvalues --   -1.09295  -1.05583  -1.05348  -0.96358  -0.96108
 Alpha  occ. eigenvalues --   -0.86990  -0.86751  -0.83175  -0.82947  -0.78164
 Alpha  occ. eigenvalues --   -0.77979  -0.72637  -0.72475  -0.71758  -0.71596
 Alpha  occ. eigenvalues --   -0.71370  -0.71022  -0.65827  -0.65633  -0.65574
 Alpha  occ. eigenvalues --   -0.65358  -0.62915  -0.62708  -0.56217  -0.55830
 Alpha  occ. eigenvalues --   -0.53935  -0.53683  -0.53633  -0.53433  -0.49411
 Alpha  occ. eigenvalues --   -0.49380  -0.49240  -0.49221  -0.45347  -0.45206
 Alpha  occ. eigenvalues --   -0.38276  -0.37821  -0.37179  -0.36930
 Alpha virt. eigenvalues --    0.04325   0.04589   0.10368   0.10720   0.15678
 Alpha virt. eigenvalues --    0.16045   0.18267   0.22061   0.24614   0.25965
 Alpha virt. eigenvalues --    0.27791   0.28878   0.29585   0.31366   0.32225

 Mulliken charges:
               1
     1  C   -0.174027
     2  C   -0.222493
     3  C   -0.170241
     4  C    0.159761
     5  C   -0.169440
     6  C   -0.216512
     7  H    0.219667
     8  H    0.221620
     9  H    0.277349
    10  H    0.279152
    11  H    0.225937
    12  N    0.487875
    13  O   -0.457456
    14  O   -0.459088
    15  C   -0.168445
    16  C   -0.217440
    17  C   -0.171353
    18  C    0.159109
    19  C   -0.169660
    20  C   -0.218312
    21  H    0.222727
    22  H    0.212856
    23  H    0.275245
    24  H    0.277856
    25  H    0.225899
    26  N    0.488055
    27  O   -0.458342
    28  O   -0.460298
 Sum of Mulliken charges =  -0.00000

 Dipole moment (field-independent basis, Debye):
    X=             -0.5116    Y=              3.7360    Z=              3.8804  Tot=              5.4109
 Quadrupole moment (field-independent basis, Debye-Ang):
   XX=           -167.6235   YY=            -99.3409   ZZ=           -102.8482
   XY=              8.0197   XZ=            -12.0816   YZ=             -4.0660

 Normal termination of Gaussian 16 at Thu May  6 17:55:45 2021.
