 Gaussian 16, Revision A.03,
 Gaussian 16:  EM64L-G16RevA.03 25-Dec-2016

 -------------
 #p 6-31g* mp2
 -------------

 ------------------------------------------------------
 Input file generated by CHIRIPA (05-May-2021 14:53:12)
 ------------------------------------------------------
 Symbolic Z-matrix:
 Charge =  0 Multiplicity = 1

                         Standard orientation:
 ---------------------------------------------------------------------
 Center     Atomic      Atomic             Coordinates (Angstroms)
 Number     Number       Type             X           Y           Z
 ---------------------------------------------------------------------
      1          6           0       -1.924857    1.302238    0.196909
      2          6           0       -1.239029    2.467317   -0.517386
      3          6           0       -0.484740    3.387722    0.442664
      4          1           0       -2.620483    1.699693    0.948626
      5          1           0       -1.169944    0.722056    0.745444
      6          1           0       -1.994815    3.044323   -1.065535
      7          1           0       -0.545096    2.067043   -1.267622
      8          1           0        0.289852    2.831705    0.980673
      9          1           0       -1.168105    3.814537    1.183908
     10          1           0       -0.002069    4.213673   -0.089026
     11          6           0       -2.683055    0.373223   -0.749555
     12          6           0       -3.368883   -0.791856   -0.035260
     13          6           0       -4.123172   -1.712262   -0.995310
     14          1           0       -3.437968    0.953405   -1.298090
     15          1           0       -1.987429   -0.024233   -1.501272
     16          1           0       -4.062816   -0.391583    0.714976
     17          1           0       -2.613097   -1.368862    0.512889
     18          1           0       -3.439807   -2.139077   -1.736554
     19          1           0       -4.897764   -1.156245   -1.533319
     20          1           0       -4.605843   -2.538213   -0.463620
     21          6           0        0.194065   -1.340944    2.036803
     22          6           0        1.096679   -0.295342    2.257090
     23          6           0        1.991014    0.093493    1.255330
     24          6           0        1.955218   -0.588112    0.039837
     25          6           0        1.067806   -1.633753   -0.210011
     26          6           0        0.182531   -2.005641    0.806126
     27          1           0       -0.497157   -1.636419    2.820578
     28          1           0        1.107884    0.222660    3.211863
     29          1           0        2.700273    0.899538    1.399069
     30          1           0        1.080321   -2.131265   -1.172167
     31          1           0       -0.517352   -2.818029    0.632240
     32          7           0        2.897215   -0.185440   -1.028291
     33          8           0        2.845683   -0.801857   -2.090370
     34          8           0        3.669248    0.738966   -0.783185
 ---------------------------------------------------------------------

 SCF Done:  E(RHF) =  -669.533583564     A.U. after   15 cycles
 E2 =    -0.2097261452D+01 EUMP2 =    -0.67163084501594D+03

 The electronic state is 1-A.
 Alpha  occ. eigenvalues --  -20.60926 -20.60920 -15.85983 -11.31435 -11.27992
 Alpha  occ. eigenvalues --  -11.27986 -11.27675 -11.26982 -11.26971 -11.22045
 Alpha  occ. eigenvalues --  -11.21586 -11.21580 -11.21557 -11.21300 -11.21114
 Alpha  occ. eigenvalues --   -1.60001  -1.39551  -1.19614  -1.09003  -1.08587
 Alpha  occ. eigenvalues --   -1.05013  -1.03754  -0.96195  -0.95796  -0.87224
 Alpha  occ. eigenvalues --   -0.86391  -0.82619  -0.79847  -0.78420  -0.77663
 Alpha  occ. eigenvalues --   -0.72196  -0.71329  -0.70675  -0.65379  -0.65234
 Alpha  occ. eigenvalues --   -0.64957  -0.62370  -0.61146  -0.59577  -0.57809
 Alpha  occ. eigenvalues --   -0.55556  -0.55457  -0.53429  -0.53080  -0.52886
 Alpha  occ. eigenvalues --   -0.52603  -0.50158  -0.48964  -0.48948  -0.48167
 Alpha  occ. eigenvalues --   -0.46907  -0.45926  -0.45773  -0.44938  -0.43963
 Alpha  occ. eigenvalues --   -0.37425  -0.36560
 Alpha virt. eigenvalues --    0.04809   0.10879   0.16225   0.20421   0.23087
 Alpha virt. eigenvalues --    0.23469   0.26379   0.26849   0.27573   0.27773
 Alpha virt. eigenvalues --    0.28492   0.30660   0.31373   0.31658   0.31910

 Mulliken charges:
               1
     1  C   -0.309377
     2  C   -0.298895
     3  C   -0.476423
     4  H    0.144684
     5  H    0.163315
     6  H    0.151794
     7  H    0.154300
     8  H    0.150129
     9  H    0.152378
    10  H    0.163992
    11  C   -0.296264
    12  C   -0.302144
    13  C   -0.475980
    14  H    0.150559
    15  H    0.149618
    16  H    0.151510
    17  H    0.143667
    18  H    0.153651
    19  H    0.158996
    20  H    0.157955
    21  C   -0.173831
    22  C   -0.218180
    23  C   -0.170239
    24  C    0.159575
    25  C   -0.172872
    26  C   -0.214356
    27  H    0.227986
    28  H    0.225671
    29  H    0.277259
    30  H    0.276702
    31  H    0.226012
    32  N    0.487896
    33  O   -0.459810
    34  O   -0.459280
 Sum of Mulliken charges =  -0.00000

 Dipole moment (field-independent basis, Debye):
    X=             -3.1397    Y=             -1.4688    Z=              3.7705  Tot=              5.1217
 Quadrupole moment (field-independent basis, Debye-Ang):
   XX=           -107.6072   YY=            -91.3890   ZZ=            -93.2222
   XY=             -0.2532   XZ=              8.2839   YZ=             -0.4182

 Normal termination of Gaussian 16 at Thu May  6 15:19:13 2021.
